<event>
12    6  0.1402540E-007  0.1985653E+04  0.7818608E-02  0.8613358E-01
          2   -1    0    0  501    0  0.00000000000E+00  0.00000000000E+00  0.99707666376E+03  0.99707666376E+03  0.00000000000E+00 0. -1.
         -1   -1    0    0    0  501 -0.00000000000E+00 -0.00000000000E+00 -0.98859421261E+03  0.98859421261E+03  0.00000000000E+00 0.  1.
         24    2    1    2    0    0 -0.73019737142E+03 -0.30450579547E+02  0.29841033629E+03  0.79307135358E+03  0.76144625769E+02 0.  0.
        254    2    1    2    0    0  0.73019737142E+03  0.30450579547E+02 -0.28992788515E+03  0.11925995228E+04  0.89672738564E+03 0.  0.
         23    2    4    4    0    0  0.40729723970E+03 -0.39956717447E+03 -0.67799620881E+01  0.57821479051E+03  0.93495495625E+02 0.  0.
         23    2    4    4    0    0  0.32290013172E+03  0.43001775402E+03 -0.28314792306E+03  0.61438473228E+03  0.90089339495E+02 0.  0.
          4    1    3    3  502    0 -0.32453666665E+03 -0.14654362057E+01  0.17130840864E+03  0.36697788268E+03  0.00000000000E+00 0. -1.
         -3    1    3    3    0  502 -0.40566070477E+03 -0.28985143341E+02  0.12710192765E+03  0.42609347090E+03  0.00000000000E+00 0.  1.
         11    1    5    5    0    0  0.37010240032E+03 -0.33052425050E+03 -0.27915524646E+02  0.49699229713E+03  0.00000000000E+00 0. -1.
        -11    1    5    5    0    0  0.37194839380E+02 -0.69042923968E+02  0.21135562557E+02  0.81222493382E+02  0.00000000000E+00 0.  1.
          4    1    6    6  503    0  0.20585161044E+03  0.33830777851E+03 -0.21786907542E+03  0.45198890754E+03  0.00000000000E+00 0. -1.
         -4    1    6    6    0  503  0.11704852128E+03  0.91709975509E+02 -0.65278847642E+02  0.16239582474E+03  0.00000000000E+00 0.  1.
<mgrwt>
<rscale>  0 0.19856528E+04</rscale>
<asrwt>0</asrwt>
<pdfrwt beam="1">  1        2 0.15339641E+00 0.19856528E+04</pdfrwt>
<pdfrwt beam="2">  1       -1 0.15209142E+00 0.19856528E+04</pdfrwt>
<totfact> 0.90208970E+00</totfact>
</mgrwt>
</event>
<event>
12    6  0.1402540E-007  0.1502791E+04  0.7818608E-02  0.8882599E-01
          2   -1    0    0  501    0  0.00000000000E+00  0.00000000000E+00  0.25515268037E+03  0.25515268037E+03  0.00000000000E+00 0. -1.
         -1   -1    0    0    0  501 -0.00000000000E+00 -0.00000000000E+00 -0.22127748594E+04  0.22127748594E+04  0.00000000000E+00 0.  1.
         24    2    1    2    0    0  0.15313572262E+02  0.81682002540E+02  0.14209270633E+03  0.18203800124E+03  0.77724138263E+02 0.  0.
        254    2    1    2    0    0 -0.15313572262E+02 -0.81682002540E+02 -0.20997148854E+04  0.22858895386E+04  0.89976770753E+03 0.  0.
         23    2    4    4    0    0 -0.39379363472E+03 -0.53941103610E+02 -0.53135272780E+03  0.66964889285E+03  0.90060251783E+02 0.  0.
         23    2    4    4    0    0  0.37848006246E+03 -0.27740898930E+02 -0.15683621576E+04  0.16162406457E+04  0.91963320533E+02 0.  0.
          2    1    3    3  502    0 -0.20419452501E+02  0.35930921758E+02  0.10577448479E+03  0.11356155516E+03  0.00000000000E+00 0. -1.
         -1    1    3    3    0  502  0.35733024762E+02  0.45751080782E+02  0.36318221544E+02  0.68476446078E+02  0.00000000000E+00 0.  1.
         11    1    5    5    0    0 -0.19550653786E+03 -0.66557588598E+02 -0.30652296672E+03  0.36960661259E+03  0.00000000000E+00 0.  1.
        -11    1    5    5    0    0 -0.19828709686E+03  0.12616484988E+02 -0.22482976108E+03  0.30004228026E+03  0.00000000000E+00 0. -1.
          1    1    6    6  503    0  0.17270220052E+03 -0.26743739086E+02 -0.90406020495E+03  0.92079646601E+03  0.00000000000E+00 0. -1.
         -1    1    6    6    0  503  0.20577786194E+03 -0.99715984401E+00 -0.66430195264E+03  0.69544417970E+03  0.00000000000E+00 0.  1.
<mgrwt>
<rscale>  0 0.15027913E+04</rscale>
<asrwt>0</asrwt>
<pdfrwt beam="1">  1        2 0.39254257E-01 0.15027913E+04</pdfrwt>
<pdfrwt beam="2">  1       -1 0.34042692E+00 0.15027913E+04</pdfrwt>
<totfact> 0.26291058E+00</totfact>
</mgrwt>
</event>
<event>
12    6  0.1402540E-007  0.1426433E+04  0.7818608E-02  0.8934904E-01
         -1   -1    0    0    0  501 -0.00000000000E+00  0.00000000000E+00  0.31281871226E+03  0.31281871226E+03  0.00000000000E+00 0.  1.
          2   -1    0    0  501    0  0.00000000000E+00 -0.00000000000E+00 -0.16261113581E+04  0.16261113581E+04  0.00000000000E+00 0. -1.
         24    2    1    2    0    0  0.38422763209E+03  0.17716141693E+03 -0.44614081760E+03  0.62006473120E+03  0.80134891567E+02 0.  0.
        254    2    1    2    0    0 -0.38422763209E+03 -0.17716141693E+03 -0.86715182825E+03  0.13188653392E+04  0.89913094079E+03 0.  0.
         23    2    4    4    0    0 -0.35046555102E+03 -0.27225102375E+03 -0.11371278438E+02  0.45286971870E+03  0.89526274146E+02 0.  0.
         23    2    4    4    0    0 -0.33762081078E+02  0.95089606821E+02 -0.85578054982E+03  0.86599562046E+03  0.86059013268E+02 0.  0.
          2    1    3    3  502    0  0.24159928777E+03  0.15268810593E+03 -0.28954322035E+03  0.40684044783E+03  0.00000000000E+00 0. -1.
         -1    1    3    3    0  502  0.14262834432E+03  0.24473310998E+02 -0.15659759725E+03  0.21322428337E+03  0.00000000000E+00 0.  1.
         11    1    5    5    0    0 -0.38415316235E+01 -0.96994206133E+01  0.13808292631E+02  0.17306214803E+02  0.00000000000E+00 0. -1.
        -11    1    5    5    0    0 -0.34662401939E+03 -0.26255160313E+03 -0.25179571068E+02  0.43556350390E+03  0.00000000000E+00 0.  1.
          3    1    6    6  503    0 -0.37636385429E+02  0.25701523936E+01 -0.18087611846E+03  0.18476816128E+03  0.00000000000E+00 0. -1.
         -3    1    6    6    0  503  0.38743043512E+01  0.92519454428E+02 -0.67490443135E+03  0.68122745918E+03  0.00000000000E+00 0.  1.
<mgrwt>
<rscale>  0 0.14264334E+04</rscale>
<asrwt>0</asrwt>
<pdfrwt beam="1">  1        2 0.25017098E+00 0.14264334E+04</pdfrwt>
<pdfrwt beam="2">  1       -1 0.48125956E-01 0.14264334E+04</pdfrwt>
<totfact> 0.51506136E+01</totfact>
</mgrwt>
</event>
<event>
12    6  0.1402540E-007  0.1647573E+04  0.7818608E-02  0.8791844E-01
         -1   -1    0    0    0  501 -0.00000000000E+00  0.00000000000E+00  0.27723913704E+03  0.27723913704E+03  0.00000000000E+00 0.  1.
          2   -1    0    0  501    0  0.00000000000E+00 -0.00000000000E+00 -0.24477928392E+04  0.24477928392E+04  0.00000000000E+00 0. -1.
         24    2    1    2    0    0 -0.24051420643E+03  0.27960067019E+03 -0.35812207568E+02  0.37916699411E+03  0.80383312606E+02 0.  0.
        254    2    1    2    0    0  0.24051420643E+03 -0.27960067019E+03 -0.21347414946E+04  0.23458649822E+04  0.89996535900E+03 0.  0.
         23    2    4    4    0    0  0.30843126676E+03  0.18711743267E+03 -0.15218534670E+04  0.15674325633E+04  0.10326706001E+03 0.  0.
         23    2    4    4    0    0 -0.67917060330E+02 -0.46671810286E+03 -0.61288802763E+03  0.77843241882E+03  0.88807553993E+02 0.  0.
          4    1    3    3  502    0 -0.86665989217E+02  0.13734422319E+03 -0.47787857030E+02  0.16928705978E+03  0.00000000000E+00 0. -1.
         -3    1    3    3    0  502 -0.15384821721E+03  0.14225644700E+03  0.11975649462E+02  0.20987993433E+03  0.00000000000E+00 0.  1.
         11    1    5    5    0    0  0.24902600109E+03  0.16707261214E+03 -0.13821214459E+04  0.14142796393E+04  0.00000000000E+00 0.  1.
        -11    1    5    5    0    0  0.59405265671E+02  0.20044820529E+02 -0.13973202109E+03  0.15315292403E+03  0.00000000000E+00 0. -1.
          3    1    6    6  503    0 -0.42709582491E+02 -0.11970118900E+03 -0.21611788863E+03  0.25071781921E+03  0.00000000000E+00 0. -1.
         -3    1    6    6    0  503 -0.25207477839E+02 -0.34701691386E+03 -0.39677013900E+03  0.52771459961E+03  0.00000000000E+00 0.  1.
<mgrwt>
<rscale>  0 0.16475727E+04</rscale>
<asrwt>0</asrwt>
<pdfrwt beam="1">  1        2 0.37658350E+00 0.16475727E+04</pdfrwt>
<pdfrwt beam="2">  1       -1 0.42652176E-01 0.16475727E+04</pdfrwt>
<totfact> 0.22006430E+01</totfact>
</mgrwt>
</event>
<event>
12    6  0.1402540E-007  0.1755345E+04  0.7818608E-02  0.8730414E-01
          2   -1    0    0  501    0  0.00000000000E+00  0.00000000000E+00  0.69636467733E+03  0.69636467733E+03  0.00000000000E+00 0. -1.
         -1   -1    0    0    0  501 -0.00000000000E+00 -0.00000000000E+00 -0.11061859080E+04  0.11061859080E+04  0.00000000000E+00 0.  1.
         24    2    1    2    0    0  0.22589585078E+03  0.33829808892E+03  0.36088081350E+03  0.54957744136E+03  0.79535338923E+02 0.  0.
        254    2    1    2    0    0 -0.22589585078E+03 -0.33829808892E+03 -0.77070204415E+03  0.12529731439E+04  0.90026969638E+03 0.  0.
         23    2    4    4    0    0 -0.55871477404E+03 -0.25347907398E+03 -0.58051158178E+03  0.84964764221E+03  0.92160618829E+02 0.  0.
         23    2    4    4    0    0  0.33281892326E+03 -0.84819014945E+02 -0.19019046237E+03  0.40332550173E+03  0.92392355713E+02 0.  0.
          4    1    3    3  502    0  0.14130397035E+03  0.26472146355E+03  0.28758448500E+03  0.41563096770E+03  0.00000000000E+00 0. -1.
         -3    1    3    3    0  502  0.84591880422E+02  0.73576625375E+02  0.73296328500E+02  0.13394647366E+03  0.00000000000E+00 0.  1.
         11    1    5    5    0    0 -0.54334482561E+03 -0.26146317258E+03 -0.56159575228E+03  0.82400023004E+03  0.00000000000E+00 0.  1.
        -11    1    5    5    0    0 -0.15369948429E+02  0.79840986059E+01 -0.18915829498E+02  0.25647412167E+02  0.00000000000E+00 0. -1.
          3    1    6    6  503    0  0.17451312922E+03 -0.67532132828E+02 -0.56689891436E+02  0.19552279925E+03  0.00000000000E+00 0. -1.
         -3    1    6    6    0  503  0.15830579404E+03 -0.17286882117E+02 -0.13350057094E+03  0.20780270249E+03  0.00000000000E+00 0.  1.
<mgrwt>
<rscale>  0 0.17553447E+04</rscale>
<asrwt>0</asrwt>
<pdfrwt beam="1">  1        2 0.10713303E+00 0.17553447E+04</pdfrwt>
<pdfrwt beam="2">  1       -1 0.17018245E+00 0.17553447E+04</pdfrwt>
<totfact> 0.10945231E+01</totfact>
</mgrwt>
</event>
<event>
12    6  0.1402540E-007  0.2991499E+04  0.7818608E-02  0.8246163E-01
         -3   -1    0    0    0  501 -0.00000000000E+00  0.00000000000E+00  0.55848992292E+03  0.55848992292E+03  0.00000000000E+00 0.  1.
          2   -1    0    0  501    0  0.00000000000E+00 -0.00000000000E+00 -0.40059206034E+04  0.40059206034E+04  0.00000000000E+00 0. -1.
         24    2    1    2    0    0  0.10405553341E+04  0.85100981988E+03 -0.12619094324E+04  0.18454754104E+04  0.79943466928E+02 0.  0.
        254    2    1    2    0    0 -0.10405553341E+04 -0.85100981988E+03 -0.21855212481E+04  0.27189351159E+04  0.89951760516E+03 0.  0.
         23    2    4    4    0    0 -0.10442888636E+04 -0.80587651916E+03 -0.22418630767E+04  0.26027199916E+04  0.90692364675E+02 0.  0.
         23    2    4    4    0    0  0.37335294737E+01 -0.45133300724E+02  0.56341828648E+02  0.11621512436E+03  0.90997798868E+02 0.  0.
          2    1    3    3  502    0  0.25806711745E+03  0.25216672533E+03 -0.35968315583E+03  0.50946900500E+03  0.00000000000E+00 0. -1.
         -1    1    3    3    0  502  0.78248821665E+03  0.59884309455E+03 -0.90222627653E+03  0.13360064054E+04  0.00000000000E+00 0.  1.
         11    1    5    5    0    0 -0.58312049300E+03 -0.49736589347E+03 -0.13482685144E+04  0.15508805010E+04  0.00000000000E+00 0.  1.
        -11    1    5    5    0    0 -0.46116837057E+03 -0.30851062568E+03 -0.89359456234E+03  0.10518394906E+04  0.00000000000E+00 0. -1.
          2    1    6    6  503    0  0.10923726598E+02 -0.32391221025E+02 -0.19242728434E+02  0.39227561738E+02  0.00000000000E+00 0. -1.
         -2    1    6    6    0  503 -0.71901971241E+01 -0.12742079699E+02  0.75584557082E+02  0.76987562626E+02  0.00000000000E+00 0.  1.
<mgrwt>
<rscale>  0 0.29914988E+04</rscale>
<asrwt>0</asrwt>
<pdfrwt beam="1">  1        2 0.61629545E+00 0.29914988E+04</pdfrwt>
<pdfrwt beam="2">  1       -3 0.85921530E-01 0.29914988E+04</pdfrwt>
<totfact> 0.23068091E-01</totfact>
</mgrwt>
</event>
<event>
12    6  0.1402540E-007  0.1936540E+04  0.7818608E-02  0.8636879E-01
          2   -1    0    0  501    0  0.00000000000E+00  0.00000000000E+00  0.26393991371E+04  0.26393991371E+04  0.00000000000E+00 0. -1.
         -1   -1    0    0    0  501 -0.00000000000E+00 -0.00000000000E+00 -0.35521212581E+03  0.35521212581E+03  0.00000000000E+00 0.  1.
         24    2    1    2    0    0  0.56084135826E+03 -0.35534841436E+03  0.14561995612E+04  0.16023932109E+04  0.79569563753E+02 0.  0.
        254    2    1    2    0    0 -0.56084135826E+03  0.35534841436E+03  0.82798745009E+03  0.13922180520E+04  0.90105069901E+03 0.  0.
         23    2    4    4    0    0  0.29733258300E+02  0.49571055781E+03  0.38597898427E+03  0.63548757861E+03  0.90838661882E+02 0.  0.
         23    2    4    4    0    0 -0.59057461656E+03 -0.14036214346E+03  0.44200846582E+03  0.75673047343E+03  0.93752954702E+02 0.  0.
          2    1    3    3  502    0  0.51101906181E+03 -0.31404682121E+03  0.13606740636E+04  0.14870103547E+04  0.00000000000E+00 0. -1.
         -1    1    3    3    0  502  0.49822296447E+02 -0.41301593146E+02  0.95525497590E+02  0.11538285622E+03  0.00000000000E+00 0.  1.
         11    1    5    5    0    0  0.37619360098E+02  0.34394247417E+03  0.31439450316E+03  0.46749924643E+03  0.00000000000E+00 0.  1.
        -11    1    5    5    0    0 -0.78861017984E+01  0.15176808364E+03  0.71584481114E+02  0.16798833218E+03  0.00000000000E+00 0. -1.
          1    1    6    6  503    0 -0.44461629077E+03 -0.13898376562E+03  0.36431707537E+03  0.59137726075E+03  0.00000000000E+00 0. -1.
         -1    1    6    6    0  503 -0.14595832579E+03 -0.13783778372E+01  0.77691390445E+02  0.16535321267E+03  0.00000000000E+00 0.  1.
<mgrwt>
<rscale>  0 0.19365398E+04</rscale>
<asrwt>0</asrwt>
<pdfrwt beam="1">  1        2 0.40606139E+00 0.19365398E+04</pdfrwt>
<pdfrwt beam="2">  1       -1 0.54648021E-01 0.19365398E+04</pdfrwt>
<totfact> 0.10386781E+01</totfact>
</mgrwt>
</event>
<event>
12    6  0.1402540E-007  0.1370722E+04  0.7818608E-02  0.8975289E-01
         -1   -1    0    0    0  501 -0.00000000000E+00  0.00000000000E+00  0.26922479933E+04  0.26922479933E+04  0.00000000000E+00 0.  1.
          2   -1    0    0  501    0  0.00000000000E+00 -0.00000000000E+00 -0.17447110475E+03  0.17447110475E+03  0.00000000000E+00 0. -1.
         24    2    1    2    0    0 -0.36641382052E+03  0.72625019795E+02  0.90323050552E+03  0.98063918907E+03  0.79337202284E+02 0.  0.
        254    2    1    2    0    0  0.36641382052E+03 -0.72625019795E+02  0.16145463831E+04  0.18860799090E+04  0.90055755996E+03 0.  0.
         23    2    4    4    0    0 -0.20356163524E+02 -0.47887859259E+02 -0.87276250029E+02  0.13806162212E+03  0.93467894087E+02 0.  0.
         23    2    4    4    0    0  0.38676998404E+03 -0.24737160537E+02  0.17018226331E+04  0.17480182869E+04  0.95732487628E+02 0.  0.
          4    1    3    3  502    0 -0.31195498082E+03  0.77585131348E+02  0.70181745212E+03  0.77193464669E+03  0.00000000000E+00 0. -1.
         -3    1    3    3    0  502 -0.54458839697E+02 -0.49601115532E+01  0.20141305340E+03  0.20870454237E+03  0.00000000000E+00 0.  1.
         11    1    5    5    0    0 -0.10043754523E+02 -0.77523628467E+01  0.19647840412E+02  0.23388325452E+02  0.00000000000E+00 0.  1.
        -11    1    5    5    0    0 -0.10312409001E+02 -0.40135496412E+02 -0.10692409044E+03  0.11467329667E+03  0.00000000000E+00 0. -1.
          4    1    6    6  503    0  0.11045280106E+03  0.36234280931E+02  0.49655790339E+03  0.50998283873E+03  0.00000000000E+00 0.  1.
         -4    1    6    6    0  503  0.27631718298E+03 -0.60971441468E+02  0.12052647297E+04  0.12380354482E+04  0.00000000000E+00 0. -1.
<mgrwt>
<rscale>  0 0.13707217E+04</rscale>
<asrwt>0</asrwt>
<pdfrwt beam="1">  1        2 0.26841710E-01 0.13707217E+04</pdfrwt>
<pdfrwt beam="2">  1       -1 0.41419197E+00 0.13707217E+04</pdfrwt>
<totfact> 0.13063811E+00</totfact>
</mgrwt>
</event>
<event>
12    6  0.1402540E-007  0.1879335E+04  0.7818608E-02  0.8665211E-01
          2   -1    0    0  501    0  0.00000000000E+00  0.00000000000E+00  0.25630425122E+04  0.25630425122E+04  0.00000000000E+00 0. -1.
         -1   -1    0    0    0  501 -0.00000000000E+00 -0.00000000000E+00 -0.34450274046E+03  0.34450274046E+03  0.00000000000E+00 0.  1.
         24    2    1    2    0    0 -0.44041754245E+03 -0.55928652934E+03  0.67511763131E+03  0.98429708744E+03  0.79296321798E+02 0.  0.
        254    2    1    2    0    0  0.44041754245E+03  0.55928652934E+03  0.15434221404E+04  0.19232481652E+04  0.89997920411E+03 0.  0.
         23    2    4    4    0    0 -0.66771934640E+01 -0.48649177069E+02 -0.81276959894E+02  0.12950630274E+03  0.88060268558E+02 0.  0.
         23    2    4    4    0    0  0.44709473591E+03  0.60793570641E+03  0.16246991003E+04  0.17937418624E+04  0.91559688728E+02 0.  0.
          4    1    3    3  502    0 -0.10093869622E+03 -0.18223510832E+03  0.17848084545E+03  0.27432401880E+03  0.00000000000E+00 0. -1.
         -3    1    3    3    0  502 -0.33947884622E+03 -0.37705142101E+03  0.49663678586E+03  0.70997306864E+03  0.00000000000E+00 0.  1.
         11    1    5    5    0    0 -0.32541808599E+02  0.11818528942E+02 -0.22407794669E+02  0.41240225450E+02  0.00000000000E+00 0. -1.
        -11    1    5    5    0    0  0.25864615135E+02 -0.60467706011E+02 -0.58869165225E+02  0.88266077293E+02  0.00000000000E+00 0.  1.
          3    1    6    6  503    0  0.36839558613E+02  0.27022087730E+02  0.63871503264E+02  0.78529709240E+02  0.00000000000E+00 0. -1.
         -3    1    6    6    0  503  0.41025517730E+03  0.58091361868E+03  0.15608275970E+04  0.17152121532E+04  0.00000000000E+00 0.  1.
<mgrwt>
<rscale>  0 0.18793352E+04</rscale>
<asrwt>0</asrwt>
<pdfrwt beam="1">  1        2 0.39431422E+00 0.18793352E+04</pdfrwt>
<pdfrwt beam="2">  1       -1 0.53000423E-01 0.18793352E+04</pdfrwt>
<totfact> 0.12276870E+01</totfact>
</mgrwt>
</event>
<event>
12    6  0.1402540E-007  0.2880985E+04  0.7818608E-02  0.8278558E-01
          2   -1    0    0  501    0  0.00000000000E+00  0.00000000000E+00  0.14103244986E+04  0.14103244986E+04  0.00000000000E+00 0. -1.
         -1   -1    0    0    0  501 -0.00000000000E+00 -0.00000000000E+00 -0.14713055192E+04  0.14713055192E+04  0.00000000000E+00 0.  1.
         24    2    1    2    0    0 -0.10859510939E+04 -0.70030212813E+03  0.10382872884E+03  0.12987867401E+04  0.79710365564E+02 0.  0.
        254    2    1    2    0    0  0.10859510939E+04  0.70030212813E+03 -0.16480974942E+03  0.15828432776E+04  0.89917614457E+03 0.  0.
         23    2    4    4    0    0  0.10273407225E+04  0.75048395163E+03  0.11291154732E+03  0.12804917619E+04  0.90857102179E+02 0.  0.
         23    2    4    4    0    0  0.58610371395E+02 -0.50181823499E+02 -0.27772129674E+03  0.30235151571E+03  0.91290357324E+02 0.  0.
          2    1    3    3  502    0 -0.50682659635E+03 -0.32888554354E+03  0.86980189943E+01  0.60424709768E+03  0.00000000000E+00 0. -1.
         -3    1    3    3    0  502 -0.57912449755E+03 -0.37141658460E+03  0.95130709848E+02  0.69453964245E+03  0.00000000000E+00 0.  1.
         11    1    5    5    0    0  0.40056656544E+03  0.27276861923E+03  0.17843095488E+01  0.48462302540E+03  0.00000000000E+00 0.  1.
        -11    1    5    5    0    0  0.62677415707E+03  0.47771533240E+03  0.11112723777E+03  0.79586873651E+03  0.00000000000E+00 0. -1.
          4    1    6    6  503    0  0.29193031922E+02  0.14204626973E+02 -0.17254020124E+03  0.17556800843E+03  0.00000000000E+00 0. -1.
         -4    1    6    6    0  503  0.29417339474E+02 -0.64386450472E+02 -0.10518109551E+03  0.12678350728E+03  0.00000000000E+00 0.  1.
<mgrwt>
<rscale>  0 0.28809847E+04</rscale>
<asrwt>0</asrwt>
<pdfrwt beam="1">  1        2 0.21697300E+00 0.28809847E+04</pdfrwt>
<pdfrwt beam="2">  1       -1 0.22635470E+00 0.28809847E+04</pdfrwt>
<totfact> 0.14026297E+00</totfact>
</mgrwt>
</event>
<event>
12    6  0.1402540E-007  0.1596282E+04  0.7818608E-02  0.8822835E-01
          2   -1    0    0  501    0  0.00000000000E+00  0.00000000000E+00  0.33968119263E+04  0.33968119263E+04  0.00000000000E+00 0. -1.
         -1   -1    0    0    0  501 -0.00000000000E+00 -0.00000000000E+00 -0.18753730868E+03  0.18753730868E+03  0.00000000000E+00 0.  1.
         24    2    1    2    0    0 -0.46989516529E+03 -0.19169498853E+03  0.15148468705E+04  0.15998135343E+04  0.84225106529E+02 0.  0.
        254    2    1    2    0    0  0.46989516529E+03  0.19169498853E+03  0.16944277472E+04  0.19845357007E+04  0.89986005689E+03 0.  0.
         23    2    4    4    0    0  0.49893177520E+03  0.34937589433E+03  0.16910805633E+04  0.17999134628E+04  0.94544012282E+02 0.  0.
         23    2    4    4    0    0 -0.29036609914E+02 -0.15768090580E+03  0.33471838988E+01  0.18462223790E+03  0.91475539444E+02 0.  0.
          4    1    3    3  502    0 -0.11292873477E+03 -0.52231401106E+02  0.49313372314E+03  0.50858813130E+03  0.00000000000E+00 0. -1.
         -3    1    3    3    0  502 -0.35696643052E+03 -0.13946358742E+03  0.10217131473E+04  0.10912254030E+04  0.00000000000E+00 0.  1.
         11    1    5    5    0    0  0.22596783076E+03  0.13576017860E+03  0.60705147448E+03  0.66181853955E+03  0.00000000000E+00 0. -1.
        -11    1    5    5    0    0  0.27296394444E+03  0.21361571573E+03  0.10840290888E+04  0.11380949232E+04  0.00000000000E+00 0.  1.
          3    1    6    6  503    0  0.69767239527E+01 -0.40105920667E+01  0.24120228027E+02  0.25427247707E+02  0.00000000000E+00 0. -1.
         -3    1    6    6    0  503 -0.36013333867E+02 -0.15367031373E+03 -0.20773044129E+02  0.15919499019E+03  0.00000000000E+00 0.  1.
<mgrwt>
<rscale>  0 0.15962819E+04</rscale>
<asrwt>0</asrwt>
<pdfrwt beam="1">  1        2 0.52258640E+00 0.15962819E+04</pdfrwt>
<pdfrwt beam="2">  1       -1 0.28851896E-01 0.15962819E+04</pdfrwt>
<totfact> 0.11556247E+01</totfact>
</mgrwt>
</event>
<event>
12    6  0.1402540E-007  0.2553023E+04  0.7818608E-02  0.8384336E-01
          2   -1    0    0  501    0  0.00000000000E+00  0.00000000000E+00  0.83796149453E+03  0.83796149453E+03  0.00000000000E+00 0. -1.
         -1   -1    0    0    0  501 -0.00000000000E+00 -0.00000000000E+00 -0.19445782424E+04  0.19445782424E+04  0.00000000000E+00 0.  1.
         24    2    1    2    0    0 -0.10171779509E+04 -0.45906730399E+03 -0.51591443723E+03  0.12320495703E+04  0.79904091404E+02 0.  0.
        254    2    1    2    0    0  0.10171779509E+04  0.45906730399E+03 -0.59070231060E+03  0.15504901666E+04  0.89983151951E+03 0.  0.
         23    2    4    4    0    0  0.26733669641E+03  0.24746494078E+03 -0.66415098707E+03  0.76301855769E+03  0.91613206371E+02 0.  0.
         23    2    4    4    0    0  0.74984125448E+03  0.21160236322E+03  0.73448676472E+02  0.78747160888E+03  0.87631955854E+02 0.  0.
          4    1    3    3  502    0 -0.51625525327E+03 -0.21948428503E+03 -0.21741698272E+03  0.60163359471E+03  0.00000000000E+00 0. -1.
         -3    1    3    3    0  502 -0.50092269762E+03 -0.23958301896E+03 -0.29849745451E+03  0.63041597562E+03  0.00000000000E+00 0.  1.
         11    1    5    5    0    0  0.53822679767E+01  0.43733937030E+01 -0.65103059247E+02  0.65471396078E+02  0.00000000000E+00 0. -1.
        -11    1    5    5    0    0  0.26195442844E+03  0.24309154707E+03 -0.59904792783E+03  0.69754716161E+03  0.00000000000E+00 0.  1.
          2    1    6    6  503    0  0.49304710539E+03  0.17966829050E+03  0.35900740199E+02  0.52598954922E+03  0.00000000000E+00 0. -1.
         -2    1    6    6    0  503  0.25679414909E+03  0.31934072714E+02  0.37547936274E+02  0.26148205966E+03  0.00000000000E+00 0.  1.
<mgrwt>
<rscale>  0 0.25530231E+04</rscale>
<asrwt>0</asrwt>
<pdfrwt beam="1">  1        2 0.12891715E+00 0.25530231E+04</pdfrwt>
<pdfrwt beam="2">  1       -1 0.29916588E+00 0.25530231E+04</pdfrwt>
<totfact> 0.10959287E+00</totfact>
</mgrwt>
</event>
<event>
12    6  0.1402540E-007  0.1636878E+04  0.7818608E-02  0.8798207E-01
         -1   -1    0    0    0  501 -0.00000000000E+00  0.00000000000E+00  0.69360132344E+03  0.69360132344E+03  0.00000000000E+00 0.  1.
          2   -1    0    0  501    0  0.00000000000E+00 -0.00000000000E+00 -0.96574565536E+03  0.96574565536E+03  0.00000000000E+00 0. -1.
         24    2    1    2    0    0  0.16159243403E+03  0.49218393593E+03 -0.32849025991E+03  0.61873240430E+03  0.81035768363E+02 0.  0.
        254    2    1    2    0    0 -0.16159243403E+03 -0.49218393593E+03  0.56345927992E+02  0.10406145745E+04  0.90074784904E+03 0.  0.
         23    2    4    4    0    0 -0.26654193043E+03 -0.26162433444E+03  0.43189972068E+03  0.57875296772E+03  0.94476112720E+02 0.  0.
         23    2    4    4    0    0  0.10494949640E+03 -0.23055960149E+03 -0.37555379269E+03  0.46186160678E+03  0.90018697939E+02 0.  0.
          4    1    3    3  502    0  0.56256313595E+02  0.26172124720E+03 -0.20301583657E+03  0.33597353162E+03  0.00000000000E+00 0. -1.
         -1    1    3    3    0  502  0.10533612043E+03  0.23046268873E+03 -0.12547442334E+03  0.28275887268E+03  0.00000000000E+00 0.  1.
         11    1    5    5    0    0 -0.15966789461E+03 -0.90612136144E+02  0.20658021730E+03  0.27636892366E+03  0.00000000000E+00 0.  1.
        -11    1    5    5    0    0 -0.10687403581E+03 -0.17101219829E+03  0.22531950338E+03  0.30238404406E+03  0.00000000000E+00 0. -1.
          2    1    6    6  503    0  0.58712059286E+02 -0.13266158540E+03 -0.28855394245E+03  0.32296993645E+03  0.00000000000E+00 0. -1.
         -2    1    6    6    0  503  0.46237437118E+02 -0.97898016090E+02 -0.86999850241E+02  0.13889167033E+03  0.00000000000E+00 0.  1.
<mgrwt>
<rscale>  0 0.16368781E+04</rscale>
<asrwt>0</asrwt>
<pdfrwt beam="1">  1        2 0.14857626E+00 0.16368781E+04</pdfrwt>
<pdfrwt beam="2">  1       -1 0.10670790E+00 0.16368781E+04</pdfrwt>
<totfact> 0.23719608E+01</totfact>
</mgrwt>
</event>
<event>
12    6  0.1402540E-007  0.1745206E+04  0.7818608E-02  0.8735994E-01
         -1   -1    0    0    0  501 -0.00000000000E+00  0.00000000000E+00  0.51105118845E+03  0.51105118845E+03  0.00000000000E+00 0.  1.
          2   -1    0    0  501    0  0.00000000000E+00 -0.00000000000E+00 -0.14899399826E+04  0.14899399826E+04  0.00000000000E+00 0. -1.
         24    2    1    2    0    0  0.60246173073E+03 -0.20544853121E+03 -0.30651255999E+03  0.71089700235E+03  0.79090849991E+02 0.  0.
        254    2    1    2    0    0 -0.60246173073E+03  0.20544853121E+03 -0.67237623413E+03  0.12900941687E+04  0.89837849921E+03 0.  0.
         23    2    4    4    0    0 -0.58486061671E+03 -0.64835127068E+02 -0.41177178555E+02  0.59694478219E+03  0.91553144533E+02 0.  0.
         23    2    4    4    0    0 -0.17601114017E+02  0.27028365828E+03 -0.63119905557E+03  0.69314938647E+03  0.93170644849E+02 0.  0.
          2    1    3    3  502    0  0.16734068768E+03 -0.65184810804E+02 -0.12599554190E+03  0.21937830770E+03  0.00000000000E+00 0. -1.
         -1    1    3    3    0  502  0.43512104305E+03 -0.14026372041E+03 -0.18051701808E+03  0.49151869465E+03  0.00000000000E+00 0.  1.
         11    1    5    5    0    0 -0.26088671211E+03 -0.70226597771E+02  0.11294638929E+01  0.27017573407E+03  0.00000000000E+00 0. -1.
        -11    1    5    5    0    0 -0.32397390460E+03  0.53914707031E+01 -0.42306642448E+02  0.32676904812E+03  0.00000000000E+00 0.  1.
          2    1    6    6  503    0 -0.38280223096E+02  0.12470540216E+03 -0.21209950866E+03  0.24900404491E+03  0.00000000000E+00 0. -1.
         -2    1    6    6    0  503  0.20679109080E+02  0.14557825612E+03 -0.41909954692E+03  0.44414534156E+03  0.00000000000E+00 0.  1.
<mgrwt>
<rscale>  0 0.17452055E+04</rscale>
<asrwt>0</asrwt>
<pdfrwt beam="1">  1        2 0.22922153E+00 0.17452055E+04</pdfrwt>
<pdfrwt beam="2">  1       -1 0.78623261E-01 0.17452055E+04</pdfrwt>
<totfact> 0.22491952E+01</totfact>
</mgrwt>
</event>
<event>
12    6  0.1402540E-007  0.2910296E+04  0.7818608E-02  0.8269821E-01
          2   -1    0    0  501    0  0.00000000000E+00  0.00000000000E+00  0.79415710037E+03  0.79415710037E+03  0.00000000000E+00 0. -1.
         -1   -1    0    0    0  501 -0.00000000000E+00 -0.00000000000E+00 -0.26662940186E+04  0.26662940186E+04  0.00000000000E+00 0.  1.
         24    2    1    2    0    0 -0.42904903407E+02 -0.12750407556E+04 -0.46929614401E+03  0.13616141760E+04  0.78641810941E+02 0.  0.
        254    2    1    2    0    0  0.42904903407E+02  0.12750407556E+04 -0.14028407742E+04  0.20988369430E+04  0.89976914610E+03 0.  0.
         23    2    4    4    0    0 -0.20100128490E+03  0.97580449006E+03 -0.51278583149E+03  0.11242520918E+04  0.91638079716E+02 0.  0.
         23    2    4    4    0    0  0.24390618831E+03  0.29923626550E+03 -0.89005494274E+03  0.97458485114E+03  0.92656676479E+02 0.  0.
          4    1    3    3  502    0 -0.17314519422E+02 -0.91995110406E+03 -0.30337364974E+03  0.96883713689E+03  0.00000000000E+00 0. -1.
         -3    1    3    3    0  502 -0.25590383985E+02 -0.35508965150E+03 -0.16592249426E+03  0.39277703911E+03  0.00000000000E+00 0.  1.
         11    1    5    5    0    0 -0.66561745738E+02  0.53408850198E+03 -0.29464559003E+03  0.61359352806E+03  0.00000000000E+00 0. -1.
        -11    1    5    5    0    0 -0.13443953916E+03  0.44171598808E+03 -0.21814024146E+03  0.51065856378E+03  0.00000000000E+00 0.  1.
          1    1    6    6  503    0  0.35443962677E+02  0.47626694063E+01 -0.94515224267E+02  0.10105486197E+03  0.00000000000E+00 0. -1.
         -1    1    6    6    0  503  0.20846222563E+03  0.29447359609E+03 -0.79553971848E+03  0.87352998917E+03  0.00000000000E+00 0.  1.
<mgrwt>
<rscale>  0 0.29102964E+04</rscale>
<asrwt>0</asrwt>
<pdfrwt beam="1">  1        2 0.12217802E+00 0.29102964E+04</pdfrwt>
<pdfrwt beam="2">  1       -1 0.41019908E+00 0.29102964E+04</pdfrwt>
<totfact> 0.20812109E-01</totfact>
</mgrwt>
</event>
<event>
12    6  0.1402540E-007  0.1770750E+04  0.7818608E-02  0.8722011E-01
          2   -1    0    0  501    0  0.00000000000E+00  0.00000000000E+00  0.23536534378E+04  0.23536534378E+04  0.00000000000E+00 0. -1.
         -3   -1    0    0    0  501 -0.00000000000E+00 -0.00000000000E+00 -0.33305201125E+03  0.33305201125E+03  0.00000000000E+00 0.  1.
         24    2    1    2    0    0  0.20336422523E+03 -0.58601687943E+03  0.44308279025E+03  0.76665443255E+03  0.81632523265E+02 0.  0.
        254    2    1    2    0    0 -0.20336422523E+03  0.58601687943E+03  0.15775186363E+04  0.19200510165E+04  0.90180822076E+03 0.  0.
         23    2    4    4    0    0  0.15798435962E+03  0.58474561789E+03  0.13534155428E+04  0.14850280981E+04  0.81782179951E+02 0.  0.
         23    2    4    4    0    0 -0.36134858485E+03  0.12712615443E+01  0.22410309350E+03  0.43502291846E+03  0.91914782212E+02 0.  0.
          4    1    3    3  502    0  0.13247243550E+03 -0.28586492172E+03  0.19198623111E+03  0.36895313059E+03  0.00000000000E+00 0. -1.
         -3    1    3    3    0  502  0.70891789724E+02 -0.30015195772E+03  0.25109655914E+03  0.39770130196E+03  0.00000000000E+00 0.  1.
         11    1    5    5    0    0  0.16100870711E+03  0.58443050054E+03  0.13519800379E+04  0.14816655617E+04  0.00000000000E+00 0.  1.
        -11    1    5    5    0    0 -0.30243474883E+01  0.31511735045E+00  0.14355049184E+01  0.33625364006E+01  0.00000000000E+00 0. -1.
          3    1    6    6  503    0 -0.10100003879E+03 -0.17056459974E+02  0.10961100193E+03  0.15002167312E+03  0.00000000000E+00 0. -1.
         -3    1    6    6    0  503 -0.26034854606E+03  0.18327721518E+02  0.11449209157E+03  0.28500124534E+03  0.00000000000E+00 0.  1.
<mgrwt>
<rscale>  0 0.17707501E+04</rscale>
<asrwt>0</asrwt>
<pdfrwt beam="1">  1        2 0.36210052E+00 0.17707501E+04</pdfrwt>
<pdfrwt beam="2">  1       -3 0.51238773E-01 0.17707501E+04</pdfrwt>
<totfact> 0.97165234E+00</totfact>
</mgrwt>
</event>
<event>
12    6  0.1402540E-007  0.1832897E+04  0.7818608E-02  0.8688998E-01
         -1   -1    0    0    0  501 -0.00000000000E+00  0.00000000000E+00  0.10557427413E+04  0.10557427413E+04  0.00000000000E+00 0.  1.
          2   -1    0    0  501    0  0.00000000000E+00 -0.00000000000E+00 -0.79553226450E+03  0.79553226450E+03  0.00000000000E+00 0. -1.
         24    2    1    2    0    0 -0.66875066279E+03 -0.10689619465E+03  0.21861988182E+03  0.71613174441E+03  0.79973603229E+02 0.  0.
        254    2    1    2    0    0  0.66875066279E+03  0.10689619465E+03  0.41590594931E+02  0.11351432613E+04  0.91003637332E+03 0.  0.
         23    2    4    4    0    0 -0.16800867604E+03 -0.14791393592E+03 -0.61495364221E+02  0.24949459753E+03  0.91435369034E+02 0.  0.
         23    2    4    4    0    0  0.83675933883E+03  0.25481013057E+03  0.10308595915E+03  0.88564866382E+03  0.93018530369E+02 0.  0.
          2    1    3    3  502    0 -0.80755015106E+02 -0.34926917055E+02  0.45028059100E+02  0.98837179776E+02  0.00000000000E+00 0. -1.
         -1    1    3    3    0  502 -0.58799564768E+03 -0.71969277595E+02  0.17359182272E+03  0.61729456463E+03  0.00000000000E+00 0.  1.
         11    1    5    5    0    0 -0.64878883667E+02 -0.43653916004E+01 -0.17879666666E+02  0.67438925479E+02  0.00000000000E+00 0. -1.
        -11    1    5    5    0    0 -0.10312979237E+03 -0.14354854432E+03 -0.43615697555E+02  0.18205567205E+03  0.00000000000E+00 0.  1.
          4    1    6    6  503    0  0.26234220028E+03  0.12293101718E+03  0.48729619215E+02  0.29378570561E+03  0.00000000000E+00 0.  1.
         -4    1    6    6    0  503  0.57441713855E+03  0.13187911339E+03  0.54356339937E+02  0.59186295820E+03  0.00000000000E+00 0. -1.
<mgrwt>
<rscale>  0 0.18328965E+04</rscale>
<asrwt>0</asrwt>
<pdfrwt beam="1">  1        2 0.12238958E+00 0.18328965E+04</pdfrwt>
<pdfrwt beam="2">  1       -1 0.16242196E+00 0.18328965E+04</pdfrwt>
<totfact> 0.10450790E+01</totfact>
</mgrwt>
</event>
<event>
12    6  0.1402540E-007  0.1693892E+04  0.7818608E-02  0.8764856E-01
         -1   -1    0    0    0  501 -0.00000000000E+00  0.00000000000E+00  0.24534912339E+03  0.24534912339E+03  0.00000000000E+00 0.  1.
          2   -1    0    0  501    0  0.00000000000E+00 -0.00000000000E+00 -0.29236611827E+04  0.29236611827E+04  0.00000000000E+00 0. -1.
         24    2    1    2    0    0 -0.41816174685E+03  0.69854759577E+02 -0.15353345160E+03  0.45789072051E+03  0.79702303614E+02 0.  0.
        254    2    1    2    0    0  0.41816174685E+03 -0.69854759577E+02 -0.25247786077E+04  0.27111195855E+04  0.89214542280E+03 0.  0.
         23    2    4    4    0    0  0.34055233981E+03 -0.26897263713E+03 -0.24143779304E+04  0.24547511859E+04  0.90886840981E+02 0.  0.
         23    2    4    4    0    0  0.77609407041E+02  0.19911787755E+03 -0.11040067723E+03  0.25636839968E+03  0.88686513054E+02 0.  0.
          4    1    3    3  502    0 -0.11874621544E+02  0.71681522605E+01 -0.22475045396E+02  0.26410541631E+02  0.00000000000E+00 0. -1.
         -3    1    3    3    0  502 -0.40628712531E+03  0.62686607317E+02 -0.13105840620E+03  0.43148017888E+03  0.00000000000E+00 0.  1.
         11    1    5    5    0    0  0.11501995652E+03 -0.40501358290E+02 -0.61913446570E+03  0.63102887180E+03  0.00000000000E+00 0. -1.
        -11    1    5    5    0    0  0.22553238329E+03 -0.22847127884E+03 -0.17952434647E+04  0.18237223141E+04  0.00000000000E+00 0.  1.
          3    1    6    6  503    0  0.12353719931E+02  0.11514405048E+03 -0.93173654306E+02  0.14863410313E+03  0.00000000000E+00 0. -1.
         -3    1    6    6    0  503  0.65255687110E+02  0.83973827078E+02 -0.17227022927E+02  0.10773429655E+03  0.00000000000E+00 0.  1.
<mgrwt>
<rscale>  0 0.16938922E+04</rscale>
<asrwt>0</asrwt>
<pdfrwt beam="1">  1        2 0.44979402E+00 0.16938922E+04</pdfrwt>
<pdfrwt beam="2">  1       -1 0.37746020E-01 0.16938922E+04</pdfrwt>
<totfact> 0.14318600E+01</totfact>
</mgrwt>
</event>
<event>
12    6  0.1402540E-007  0.1527578E+04  0.7818608E-02  0.8866318E-01
          2   -1    0    0  501    0  0.00000000000E+00  0.00000000000E+00  0.18558855941E+04  0.18558855941E+04  0.00000000000E+00 0. -1.
         -1   -1    0    0    0  501 -0.00000000000E+00 -0.00000000000E+00 -0.31433695993E+03  0.31433695993E+03  0.00000000000E+00 0.  1.
         24    2    1    2    0    0  0.26696482044E+03 -0.41622061032E+03  0.53508121763E+03  0.73298686017E+03  0.80299538700E+02 0.  0.
        254    2    1    2    0    0 -0.26696482044E+03  0.41622061032E+03  0.10064674166E+04  0.14372356939E+04  0.89897717843E+03 0.  0.
         23    2    4    4    0    0 -0.51591135123E+03  0.49556539101E+01  0.40989409200E+03  0.66575294968E+03  0.94998644816E+02 0.  0.
         23    2    4    4    0    0  0.24894653079E+03  0.41126495641E+03  0.59657332457E+03  0.77148274420E+03  0.90402729182E+02 0.  0.
          2    1    3    3  502    0  0.19684393639E+03 -0.28553215015E+03  0.42353012627E+03  0.54740653259E+03  0.00000000000E+00 0. -1.
         -3    1    3    3    0  502  0.70120884056E+02 -0.13068846017E+03  0.11155109136E+03  0.18558032758E+03  0.00000000000E+00 0.  1.
         11    1    5    5    0    0 -0.50864424706E+03 -0.60652124529E+01  0.38637095444E+03  0.63877873423E+03  0.00000000000E+00 0.  1.
        -11    1    5    5    0    0 -0.72671041701E+01  0.11020866363E+02  0.23523137564E+02  0.26974215452E+02  0.00000000000E+00 0. -1.
          1    1    6    6  503    0 -0.23483832026E+01  0.40921625905E+02  0.61546174272E+02  0.73946101573E+02  0.00000000000E+00 0. -1.
         -1    1    6    6    0  503  0.25129491399E+03  0.37034333051E+03  0.53502715030E+03  0.69753664263E+03  0.00000000000E+00 0.  1.
<mgrwt>
<rscale>  0 0.15275777E+04</rscale>
<asrwt>0</asrwt>
<pdfrwt beam="1">  1        2 0.28552086E+00 0.15275777E+04</pdfrwt>
<pdfrwt beam="2">  1       -1 0.48359533E-01 0.15275777E+04</pdfrwt>
<totfact> 0.37740091E+01</totfact>
</mgrwt>
</event>
<event>
12    6  0.1402540E-007  0.1110013E+04  0.7818608E-02  0.9195487E-01
          2   -1    0    0  501    0  0.00000000000E+00  0.00000000000E+00  0.13620130340E+04  0.13620130340E+04  0.00000000000E+00 0. -1.
         -1   -1    0    0    0  501 -0.00000000000E+00 -0.00000000000E+00 -0.22615960358E+03  0.22615960358E+03  0.00000000000E+00 0.  1.
         24    2    1    2    0    0  0.12584480706E+03  0.80906756225E+02  0.12014739258E+03  0.20890235712E+03  0.82595279537E+02 0.  0.
        254    2    1    2    0    0 -0.12584480706E+03 -0.80906756225E+02  0.10157060378E+04  0.13792702804E+04  0.92105642201E+03 0.  0.
         23    2    4    4    0    0  0.23882614998E+03  0.14360907258E+02 -0.36588411143E+02  0.25764079352E+03  0.88294400071E+02 0.  0.
         23    2    4    4    0    0 -0.36467095704E+03 -0.95267663483E+02  0.10522944489E+04  0.11216294869E+04  0.93103512106E+02 0.  0.
          2    1    3    3  502    0  0.11586121923E+03  0.94641513574E+02  0.12022206266E+03  0.19192233472E+03  0.00000000000E+00 0. -1.
         -1    1    3    3    0  502  0.99835878267E+01 -0.13734757349E+02 -0.74670077907E-01  0.16980022407E+02  0.00000000000E+00 0.  1.
         11    1    5    5    0    0  0.19061941209E+03 -0.63373615544E+01 -0.60354157396E+02  0.20004636145E+03  0.00000000000E+00 0.  1.
        -11    1    5    5    0    0  0.48206737896E+02  0.20698268812E+02  0.23765746252E+02  0.57594432069E+02  0.00000000000E+00 0. -1.
          3    1    6    6  503    0 -0.22868205575E+03 -0.98596279923E+02  0.60953450276E+03  0.65844439332E+03  0.00000000000E+00 0. -1.
         -3    1    6    6    0  503 -0.13598890129E+03  0.33286164409E+01  0.44275994618E+03  0.46318509357E+03  0.00000000000E+00 0.  1.
<mgrwt>
<rscale>  0 0.11100132E+04</rscale>
<asrwt>0</asrwt>
<pdfrwt beam="1">  1        2 0.20954046E+00 0.11100132E+04</pdfrwt>
<pdfrwt beam="2">  1       -1 0.34793786E-01 0.11100132E+04</pdfrwt>
<totfact> 0.13482719E+02</totfact>
</mgrwt>
</event>
<event>
12    6  0.1402540E-007  0.2017290E+04  0.7818608E-02  0.8598579E-01
          2   -1    0    0  501    0  0.00000000000E+00  0.00000000000E+00  0.28254351550E+04  0.28254351550E+04  0.00000000000E+00 0. -1.
         -1   -1    0    0    0  501 -0.00000000000E+00 -0.00000000000E+00 -0.36007372776E+03  0.36007372776E+03  0.00000000000E+00 0.  1.
         24    2    1    2    0    0  0.64166370292E+03  0.29172612033E+03  0.15971616076E+04  0.17476728044E+04  0.81231728380E+02 0.  0.
        254    2    1    2    0    0 -0.64166370292E+03 -0.29172612033E+03  0.86819981970E+03  0.14378360784E+04  0.90375064282E+03 0.  0.
         23    2    4    4    0    0 -0.48529582860E+03  0.17322333475E+03  0.76676300334E+03  0.92812252621E+03  0.89261164067E+02 0.  0.
         23    2    4    4    0    0 -0.15636787433E+03 -0.46494945509E+03  0.10143681637E+03  0.50971355216E+03  0.94284514299E+02 0.  0.
          2    1    3    3  502    0  0.22663158336E+03  0.62951497995E+02  0.50208910693E+03  0.55445309719E+03  0.00000000000E+00 0. -1.
         -1    1    3    3    0  502  0.41503211956E+03  0.22877462234E+03  0.10950725007E+04  0.11932197073E+04  0.00000000000E+00 0.  1.
         11    1    5    5    0    0 -0.12895578411E+03  0.45625028056E+02  0.13854861404E+03  0.19469708753E+03  0.00000000000E+00 0.  1.
        -11    1    5    5    0    0 -0.35634004448E+03  0.12759830670E+03  0.62821438930E+03  0.73342543868E+03  0.00000000000E+00 0. -1.
          4    1    6    6  503    0 -0.76574121519E+02 -0.34505408903E+03  0.92830865638E+02  0.36543602731E+03  0.00000000000E+00 0.  1.
         -4    1    6    6    0  503 -0.79793752808E+02 -0.11989536606E+03  0.86059507281E+01  0.14427752485E+03  0.00000000000E+00 0. -1.
<mgrwt>
<rscale>  0 0.20172902E+04</rscale>
<asrwt>0</asrwt>
<pdfrwt beam="1">  1        2 0.43468232E+00 0.20172902E+04</pdfrwt>
<pdfrwt beam="2">  1       -1 0.55395960E-01 0.20172902E+04</pdfrwt>
<totfact> 0.77764163E+00</totfact>
</mgrwt>
</event>
<event>
12    6  0.1402540E-007  0.2810858E+04  0.7818608E-02  0.8299905E-01
          2   -1    0    0  501    0  0.00000000000E+00  0.00000000000E+00  0.19662401395E+04  0.19662401395E+04  0.00000000000E+00 0. -1.
         -1   -1    0    0    0  501 -0.00000000000E+00 -0.00000000000E+00 -0.10045724984E+04  0.10045724984E+04  0.00000000000E+00 0.  1.
         24    2    1    2    0    0  0.10808813915E+04 -0.62848738948E+03  0.27420821965E+03  0.12818737034E+04  0.68622608944E+02 0.  0.
        254    2    1    2    0    0 -0.10808813915E+04  0.62848738948E+03  0.68745942141E+03  0.16889389345E+04  0.90366657961E+03 0.  0.
         23    2    4    4    0    0 -0.45229284389E+03  0.29977487475E+03 -0.16635170935E+03  0.57471117729E+03  0.90477919577E+02 0.  0.
         23    2    4    4    0    0 -0.62858854762E+03  0.32871251473E+03  0.85381113076E+03  0.11142277572E+04  0.96615570008E+02 0.  0.
          4    1    3    3  502    0  0.66048466821E+03 -0.38106404850E+03  0.20130591118E+03  0.78865320381E+03  0.00000000000E+00 0. -1.
         -3    1    3    3    0  502  0.42039672330E+03 -0.24742334098E+03  0.72902308467E+02  0.49322049958E+03  0.00000000000E+00 0.  1.
         11    1    5    5    0    0 -0.85269054806E+01  0.26549367620E+02 -0.16751521975E+02  0.32529840555E+02  0.00000000000E+00 0.  1.
        -11    1    5    5    0    0 -0.44376593841E+03  0.27322550713E+03 -0.14960018738E+03  0.54218133673E+03  0.00000000000E+00 0. -1.
          1    1    6    6  503    0 -0.54434150788E+03  0.30421199902E+03  0.78612062342E+03  0.10034133007E+04  0.00000000000E+00 0. -1.
         -1    1    6    6    0  503 -0.84247039745E+02  0.24500515703E+02  0.67690507341E+02  0.11081445646E+03  0.00000000000E+00 0.  1.
<mgrwt>
<rscale>  0 0.28108581E+04</rscale>
<asrwt>0</asrwt>
<pdfrwt beam="1">  1        2 0.30249848E+00 0.28108581E+04</pdfrwt>
<pdfrwt beam="2">  1       -1 0.15454962E+00 0.28108581E+04</pdfrwt>
<totfact> 0.22197235E+00</totfact>
</mgrwt>
</event>
<event>
12    6  0.1402540E-007  0.3671267E+04  0.7818608E-02  0.8074359E-01
          2   -1    0    0  501    0  0.00000000000E+00  0.00000000000E+00  0.31687027922E+04  0.31687027922E+04  0.00000000000E+00 0. -1.
         -1   -1    0    0    0  501 -0.00000000000E+00 -0.00000000000E+00 -0.10633847019E+04  0.10633847019E+04  0.00000000000E+00 0.  1.
         24    2    1    2    0    0  0.16918448737E+04 -0.16245347303E+03  0.65406764446E+03  0.18228949093E+04  0.80069714546E+02 0.  0.
        254    2    1    2    0    0 -0.16918448737E+04  0.16245347303E+03  0.14512504459E+04  0.24091925848E+04  0.89963928688E+03 0.  0.
         23    2    4    4    0    0 -0.22426235262E+03  0.32440543164E+03  0.52873937744E+03  0.66584454151E+03  0.90835771190E+02 0.  0.
         23    2    4    4    0    0 -0.14675825211E+04 -0.16195195861E+03  0.92251106843E+03  0.17433480433E+04  0.90602624835E+02 0.  0.
          4    1    3    3  502    0  0.95190836767E+03 -0.12376182040E+03  0.34423869731E+03  0.10197778235E+04  0.00000000000E+00 0. -1.
         -3    1    3    3    0  502  0.73993650600E+03 -0.38691652624E+02  0.30982894714E+03  0.80311708573E+03  0.00000000000E+00 0.  1.
         11    1    5    5    0    0 -0.12877115765E+03  0.23211539055E+03  0.40560447609E+03  0.48474174216E+03  0.00000000000E+00 0. -1.
        -11    1    5    5    0    0 -0.95491194973E+02  0.92290041089E+02  0.12313490135E+03  0.18110279935E+03  0.00000000000E+00 0.  1.
          1    1    6    6  503    0 -0.13465542085E+04 -0.17098448638E+03  0.83361168115E+03  0.15929068918E+04  0.00000000000E+00 0. -1.
         -1    1    6    6    0  503 -0.12102831254E+03  0.90325277718E+01  0.88899387282E+02  0.15044115147E+03  0.00000000000E+00 0.  1.
<mgrwt>
<rscale>  0 0.36712669E+04</rscale>
<asrwt>0</asrwt>
<pdfrwt beam="1">  1        2 0.48749273E+00 0.36712669E+04</pdfrwt>
<pdfrwt beam="2">  1       -1 0.16359765E+00 0.36712669E+04</pdfrwt>
<totfact> 0.34291788E-01</totfact>
</mgrwt>
</event>
<event>
12    6  0.1402540E-007  0.2194057E+04  0.7818608E-02  0.8520906E-01
          2   -1    0    0  501    0  0.00000000000E+00  0.00000000000E+00  0.92838095931E+03  0.92838095931E+03  0.00000000000E+00 0. -1.
         -1   -1    0    0    0  501 -0.00000000000E+00 -0.00000000000E+00 -0.12963121865E+04  0.12963121865E+04  0.00000000000E+00 0.  1.
         24    2    1    2    0    0 -0.55436972774E+03 -0.67104889864E+03  0.11588133895E+03  0.88183840115E+03  0.81105250286E+02 0.  0.
        254    2    1    2    0    0  0.55436972774E+03  0.67104889864E+03 -0.48381256618E+03  0.13428547447E+04  0.90086172455E+03 0.  0.
         23    2    4    4    0    0  0.29959546910E+03 -0.17732410500E+03 -0.17696983966E+03  0.40093886062E+03  0.90732367354E+02 0.  0.
         23    2    4    4    0    0  0.25477425864E+03  0.84837300365E+03 -0.30684272652E+03  0.94191588407E+03  0.91686409425E+02 0.  0.
          4    1    3    3  502    0 -0.23518290105E+03 -0.33412167620E+03  0.28621147465E+02  0.40959426453E+03  0.00000000000E+00 0. -1.
         -3    1    3    3    0  502 -0.31918682670E+03 -0.33692722244E+03  0.87260191488E+02  0.47224413663E+03  0.00000000000E+00 0.  1.
         11    1    5    5    0    0  0.81819470658E+02 -0.97998782945E+02 -0.71134470296E+02  0.14614479157E+03  0.00000000000E+00 0.  1.
        -11    1    5    5    0    0  0.21777599844E+03 -0.79325322059E+02 -0.10583536936E+03  0.25479406905E+03  0.00000000000E+00 0. -1.
          4    1    6    6  503    0  0.35252358795E+02  0.25455560986E+03 -0.75005843706E+02  0.26770723543E+03  0.00000000000E+00 0. -1.
         -4    1    6    6    0  503  0.21952189985E+03  0.59381739379E+03 -0.23183688281E+03  0.67420864865E+03  0.00000000000E+00 0.  1.
<mgrwt>
<rscale>  0 0.21940570E+04</rscale>
<asrwt>0</asrwt>
<pdfrwt beam="1">  1        2 0.14282784E+00 0.21940570E+04</pdfrwt>
<pdfrwt beam="2">  1       -1 0.19943264E+00 0.21940570E+04</pdfrwt>
<totfact> 0.44450648E+00</totfact>
</mgrwt>
</event>
<event>
12    6  0.1402540E-007  0.2054259E+04  0.7818608E-02  0.8581665E-01
          2   -1    0    0  501    0  0.00000000000E+00  0.00000000000E+00  0.19355074770E+04  0.19355074770E+04  0.00000000000E+00 0. -1.
         -1   -1    0    0    0  501 -0.00000000000E+00 -0.00000000000E+00 -0.54507424609E+03  0.54507424609E+03  0.00000000000E+00 0.  1.
         24    2    1    2    0    0 -0.39378964986E+03  0.49282029524E+03  0.12097254646E+04  0.13666787620E+04  0.80206028203E+02 0.  0.
        254    2    1    2    0    0  0.39378964986E+03 -0.49282029524E+03  0.18070776627E+03  0.11139029611E+04  0.90010131551E+03 0.  0.
         23    2    4    4    0    0 -0.20305712374E+03 -0.28632720558E+03  0.29050220006E+03  0.46481980911E+03  0.91926397425E+02 0.  0.
         23    2    4    4    0    0  0.59684677361E+03 -0.20649308966E+03 -0.10979443378E+03  0.64908315198E+03  0.10192474308E+03 0.  0.
          4    1    3    3  502    0 -0.27709467228E+03  0.32293156821E+03  0.88644490913E+03  0.98328573267E+03  0.00000000000E+00 0. -1.
         -3    1    3    3    0  502 -0.11669497758E+03  0.16988872704E+03  0.32328055549E+03  0.38339302931E+03  0.00000000000E+00 0.  1.
         11    1    5    5    0    0 -0.11617958726E+03 -0.86567191694E+02  0.10975907931E+03  0.18176531755E+03  0.00000000000E+00 0.  1.
        -11    1    5    5    0    0 -0.86877536482E+02 -0.19976001389E+03  0.18074312075E+03  0.28305449156E+03  0.00000000000E+00 0. -1.
          2    1    6    6  503    0  0.50236790569E+03 -0.17095483066E+03 -0.12950953680E+03  0.54623418688E+03  0.00000000000E+00 0. -1.
         -2    1    6    6    0  503  0.94478867918E+02 -0.35538259001E+02  0.19715103015E+02  0.10284896510E+03  0.00000000000E+00 0.  1.
<mgrwt>
<rscale>  0 0.20542593E+04</rscale>
<asrwt>0</asrwt>
<pdfrwt beam="1">  1        2 0.29777038E+00 0.20542593E+04</pdfrwt>
<pdfrwt beam="2">  1       -1 0.83857577E-01 0.20542593E+04</pdfrwt>
<totfact> 0.10773228E+01</totfact>
</mgrwt>
</event>
<event>
12    6  0.1402540E-007  0.1924698E+04  0.7818608E-02  0.8642659E-01
          2   -1    0    0  501    0  0.00000000000E+00  0.00000000000E+00  0.23485761365E+04  0.23485761365E+04  0.00000000000E+00 0. -1.
         -1   -1    0    0    0  501 -0.00000000000E+00 -0.00000000000E+00 -0.39433074611E+03  0.39433074611E+03  0.00000000000E+00 0.  1.
         24    2    1    2    0    0  0.70715627137E+03 -0.89287374380E+02  0.43586938126E+03  0.83927036021E+03  0.79689350855E+02 0.  0.
        254    2    1    2    0    0 -0.70715627137E+03  0.89287374380E+02  0.15183760091E+04  0.19036365224E+04  0.90018002474E+03 0.  0.
         23    2    4    4    0    0 -0.60873108285E+02  0.16055552213E+03 -0.52642537060E+02  0.20097382391E+03  0.90197728284E+02 0.  0.
         23    2    4    4    0    0 -0.64628316308E+03 -0.71268147754E+02  0.15710185462E+04  0.17026626985E+04  0.90553390852E+02 0.  0.
          4    1    3    3  502    0  0.24626237084E+03 -0.11158351480E+02  0.18892888968E+03  0.31058620294E+03  0.00000000000E+00 0. -1.
         -3    1    3    3    0  502  0.46089390053E+03 -0.78129022900E+02  0.24694049158E+03  0.52868415727E+03  0.00000000000E+00 0.  1.
         11    1    5    5    0    0 -0.70438347293E+02  0.92608551614E+02 -0.31949588790E+01  0.11639635889E+03  0.00000000000E+00 0.  1.
        -11    1    5    5    0    0  0.95652390078E+01  0.67946970520E+02 -0.49447578181E+02  0.84577465014E+02  0.00000000000E+00 0. -1.
          2    1    6    6  503    0 -0.58499122939E+03 -0.40654384273E+02  0.13676504961E+04  0.14880643120E+04  0.00000000000E+00 0. -1.
         -2    1    6    6    0  503 -0.61291933694E+02 -0.30613763481E+02  0.20336805009E+03  0.21459838641E+03  0.00000000000E+00 0.  1.
<mgrwt>
<rscale>  0 0.19246982E+04</rscale>
<asrwt>0</asrwt>
<pdfrwt beam="1">  1        2 0.36131940E+00 0.19246982E+04</pdfrwt>
<pdfrwt beam="2">  1       -1 0.60666270E-01 0.19246982E+04</pdfrwt>
<totfact> 0.12478590E+01</totfact>
</mgrwt>
</event>
<event>
12    6  0.1402540E-007  0.1772535E+04  0.7818608E-02  0.8721043E-01
          2   -1    0    0  501    0  0.00000000000E+00  0.00000000000E+00  0.64639349066E+03  0.64639349066E+03  0.00000000000E+00 0. -1.
         -1   -1    0    0    0  501 -0.00000000000E+00 -0.00000000000E+00 -0.12151579371E+04  0.12151579371E+04  0.00000000000E+00 0.  1.
         24    2    1    2    0    0  0.22313545291E+03 -0.14646780769E+03 -0.83336155690E+03  0.87847746593E+03  0.77388142541E+02 0.  0.
        254    2    1    2    0    0 -0.22313545291E+03  0.14646780769E+03  0.26459711050E+03  0.98307396178E+03  0.90839448172E+03 0.  0.
         23    2    4    4    0    0 -0.20863702074E+03  0.51210438164E+03  0.90666993504E+02  0.56782805492E+03  0.91803551802E+02 0.  0.
         23    2    4    4    0    0 -0.14498432167E+02 -0.36563657395E+03  0.17393011700E+03  0.41524590686E+03  0.90978947138E+02 0.  0.
          2    1    3    3  502    0  0.67133557599E+01 -0.18860839804E+02 -0.25321952049E+02  0.32280050793E+02  0.00000000000E+00 0. -1.
         -1    1    3    3    0  502  0.21642209715E+03 -0.12760696788E+03 -0.80803960485E+03  0.84619741514E+03  0.00000000000E+00 0.  1.
         11    1    5    5    0    0 -0.81378052260E+01  0.19230282419E+02 -0.14523423633E+02  0.25435358653E+02  0.00000000000E+00 0.  1.
        -11    1    5    5    0    0 -0.20049921552E+03  0.49287409922E+03  0.10519041714E+03  0.54239269627E+03  0.00000000000E+00 0. -1.
          3    1    6    6  503    0 -0.86990548846E+01 -0.26423143019E+03  0.78263802081E+02  0.27571569592E+03  0.00000000000E+00 0. -1.
         -3    1    6    6    0  503 -0.57993772823E+01 -0.10140514376E+03  0.95666314918E+02  0.13953021095E+03  0.00000000000E+00 0.  1.
<mgrwt>
<rscale>  0 0.17725351E+04</rscale>
<asrwt>0</asrwt>
<pdfrwt beam="1">  1        2 0.99445152E-01 0.17725351E+04</pdfrwt>
<pdfrwt beam="2">  1       -1 0.18694738E+00 0.17725351E+04</pdfrwt>
<totfact> 0.90822551E+00</totfact>
</mgrwt>
</event>
<event>
12    6  0.1402540E-007  0.1346309E+04  0.7818608E-02  0.8993626E-01
          2   -1    0    0  501    0  0.00000000000E+00  0.00000000000E+00  0.23535866523E+04  0.23535866523E+04  0.00000000000E+00 0. -1.
         -1   -1    0    0    0  501 -0.00000000000E+00 -0.00000000000E+00 -0.19253054092E+03  0.19253054092E+03  0.00000000000E+00 0.  1.
         24    2    1    2    0    0 -0.28612852625E+03  0.22755955289E+03  0.62301970512E+03  0.72669093867E+03  0.79204063833E+02 0.  0.
        254    2    1    2    0    0  0.28612852625E+03 -0.22755955289E+03  0.15380364062E+04  0.18194262545E+04  0.90061258326E+03 0.  0.
         23    2    4    4    0    0  0.57945474248E+01 -0.60607436452E+01 -0.10250521498E+03  0.13785788771E+03  0.91799611716E+02 0.  0.
         23    2    4    4    0    0  0.28033397882E+03 -0.22149880925E+03  0.16405416212E+04  0.16815683668E+04  0.92986553745E+02 0.  0.
          4    1    3    3  502    0 -0.20025544949E+03  0.13376514822E+03  0.46676556248E+03  0.52522895032E+03  0.00000000000E+00 0. -1.
         -3    1    3    3    0  502 -0.85873076755E+02  0.93794404671E+02  0.15625414263E+03  0.20146198835E+03  0.00000000000E+00 0.  1.
         11    1    5    5    0    0  0.23984877434E+02  0.35327560408E+02 -0.70655595479E+02  0.82556187184E+02  0.00000000000E+00 0.  1.
        -11    1    5    5    0    0 -0.18190330009E+02 -0.41388304053E+02 -0.31849619503E+02  0.55301700523E+02  0.00000000000E+00 0. -1.
          3    1    6    6  503    0  0.28147964330E+03 -0.20481144129E+03  0.16045942900E+04  0.16419200198E+04  0.00000000000E+00 0. -1.
         -3    1    6    6    0  503 -0.11456644822E+01 -0.16687367958E+02  0.35947331250E+02  0.39648347008E+02  0.00000000000E+00 0.  1.
<mgrwt>
<rscale>  0 0.13463095E+04</rscale>
<asrwt>0</asrwt>
<pdfrwt beam="1">  1        2 0.36209023E+00 0.13463095E+04</pdfrwt>
<pdfrwt beam="2">  1       -1 0.29620085E-01 0.13463095E+04</pdfrwt>
<totfact> 0.49218758E+01</totfact>
</mgrwt>
</event>
<event>
12    6  0.1402540E-007  0.6309768E+04  0.7818608E-02  0.7653137E-01
          2   -1    0    0  501    0  0.00000000000E+00  0.00000000000E+00  0.43378964294E+04  0.43378964294E+04  0.00000000000E+00 0. -1.
         -1   -1    0    0    0  501 -0.00000000000E+00 -0.00000000000E+00 -0.22944977918E+04  0.22944977918E+04  0.00000000000E+00 0.  1.
         24    2    1    2    0    0  0.25431813274E+04  0.16553258217E+04  0.16109475760E+04  0.34364717884E+04  0.79444445372E+02 0.  0.
        254    2    1    2    0    0 -0.25431813274E+04 -0.16553258217E+04  0.43245106154E+03  0.31959224329E+04  0.90500355596E+03 0.  0.
         23    2    4    4    0    0 -0.21585743655E+04 -0.96866019645E+03  0.23401474407E+03  0.23792214954E+04  0.90477379903E+02 0.  0.
         23    2    4    4    0    0 -0.38460696186E+03 -0.68666562528E+03  0.19843631747E+03  0.81670093743E+03  0.90505541599E+02 0.  0.
          4    1    3    3  502    0  0.12014708146E+04  0.74121675641E+03  0.77193576876E+03  0.16089808046E+04  0.00000000000E+00 0. -1.
         -3    1    3    3    0  502  0.13417105127E+04  0.91410906531E+03  0.83901180728E+03  0.18274909838E+04  0.00000000000E+00 0.  1.
         11    1    5    5    0    0 -0.67970190759E+03 -0.31629167403E+03  0.11522824669E+03  0.75849367504E+03  0.00000000000E+00 0. -1.
        -11    1    5    5    0    0 -0.14788724579E+04 -0.65236852242E+03  0.11878649738E+03  0.16207278204E+04  0.00000000000E+00 0.  1.
          4    1    6    6  503    0 -0.11108895326E+03 -0.18023925020E+03  0.13513161705E+02  0.21215453893E+03  0.00000000000E+00 0. -1.
         -4    1    6    6    0  503 -0.27351800860E+03 -0.50642637508E+03  0.18492315577E+03  0.60454639850E+03  0.00000000000E+00 0.  1.
<mgrwt>
<rscale>  0 0.63097682E+04</rscale>
<asrwt>0</asrwt>
<pdfrwt beam="1">  1        2 0.66736868E+00 0.63097682E+04</pdfrwt>
<pdfrwt beam="2">  1       -1 0.35299966E+00 0.63097682E+04</pdfrwt>
<totfact> 0.19236559E-03</totfact>
</mgrwt>
</event>
<event>
12    6  0.1402540E-007  0.1666580E+04  0.7818608E-02  0.8780658E-01
          2   -1    0    0  501    0  0.00000000000E+00  0.00000000000E+00  0.38205022410E+04  0.38205022410E+04  0.00000000000E+00 0. -1.
         -1   -1    0    0    0  501 -0.00000000000E+00 -0.00000000000E+00 -0.18174895689E+03  0.18174895689E+03  0.00000000000E+00 0.  1.
         24    2    1    2    0    0 -0.47462354435E+03  0.34308020904E+03  0.12160750058E+04  0.13523963411E+04  0.84651668787E+02 0.  0.
        254    2    1    2    0    0  0.47462354435E+03 -0.34308020904E+03  0.24226782783E+04  0.26498548568E+04  0.89966059329E+03 0.  0.
         23    2    4    4    0    0 -0.22700527540E+03  0.20804082375E+02  0.33352840633E+03  0.41428678917E+03  0.91804907007E+02 0.  0.
         23    2    4    4    0    0  0.70162881976E+03 -0.36388429142E+03  0.20891498720E+04  0.22355680676E+04  0.92318032085E+02 0.  0.
          4    1    3    3  502    0 -0.35328835171E+03  0.20945339481E+03  0.81832022232E+03  0.91560437434E+03  0.00000000000E+00 0. -1.
         -3    1    3    3    0  502 -0.12133519264E+03  0.13362681423E+03  0.39775478346E+03  0.43679196676E+03  0.00000000000E+00 0.  1.
         11    1    5    5    0    0 -0.19304105124E+03  0.16772459593E+02  0.32604099325E+03  0.37927416487E+03  0.00000000000E+00 0. -1.
        -11    1    5    5    0    0 -0.33964224168E+02  0.40316227824E+01  0.74874130796E+01  0.35012624298E+02  0.00000000000E+00 0.  1.
          3    1    6    6  503    0  0.34111986773E+03 -0.19908224500E+03  0.92540803675E+03  0.10061692397E+04  0.00000000000E+00 0. -1.
         -3    1    6    6    0  503  0.36050895203E+03 -0.16480204642E+03  0.11637418352E+04  0.12293988279E+04  0.00000000000E+00 0.  1.
<mgrwt>
<rscale>  0 0.16665801E+04</rscale>
<asrwt>0</asrwt>
<pdfrwt beam="1">  1        2 0.58776952E+00 0.16665801E+04</pdfrwt>
<pdfrwt beam="2">  1       -1 0.27961381E-01 0.16665801E+04</pdfrwt>
<totfact> 0.60298585E+00</totfact>
</mgrwt>
</event>
<event>
12    6  0.1402540E-007  0.2439806E+04  0.7818608E-02  0.8424749E-01
          2   -1    0    0  501    0  0.00000000000E+00  0.00000000000E+00  0.18760856225E+04  0.18760856225E+04  0.00000000000E+00 0. -1.
         -1   -1    0    0    0  501 -0.00000000000E+00 -0.00000000000E+00 -0.79322809318E+03  0.79322809318E+03  0.00000000000E+00 0.  1.
         24    2    1    2    0    0  0.59349464359E+03 -0.83819086391E+03  0.71854075329E+03  0.12559518743E+04  0.79463703561E+02 0.  0.
        254    2    1    2    0    0 -0.59349464359E+03  0.83819086391E+03  0.36431677608E+03  0.14133618414E+04  0.90003620209E+03 0.  0.
         23    2    4    4    0    0  0.59385634788E+02  0.67881475380E+03  0.18768048870E+03  0.71233277498E+03  0.88757494762E+02 0.  0.
         23    2    4    4    0    0 -0.65288027838E+03  0.15937611011E+03  0.17663628738E+03  0.70102906641E+03  0.92671309322E+02 0.  0.
          2    1    3    3  502    0  0.17954314401E+03 -0.19468373569E+03  0.19308079943E+03  0.32774638459E+03  0.00000000000E+00 0. -1.
         -1    1    3    3    0  502  0.41395149958E+03 -0.64350712822E+03  0.52545995386E+03  0.92820548974E+03  0.00000000000E+00 0.  1.
         11    1    5    5    0    0  0.58518928809E+02  0.20101094825E+03  0.58199719600E+02  0.21729490033E+03  0.00000000000E+00 0. -1.
        -11    1    5    5    0    0  0.86670597894E+00  0.47780380555E+03  0.12948076910E+03  0.49503787465E+03  0.00000000000E+00 0.  1.
          4    1    6    6  503    0 -0.19699326693E+03  0.90000694889E+02  0.41702830496E+02  0.22055747180E+03  0.00000000000E+00 0. -1.
         -4    1    6    6    0  503 -0.45588701144E+03  0.69375415218E+02  0.13493345688E+03  0.48047159461E+03  0.00000000000E+00 0.  1.
<mgrwt>
<rscale>  0 0.24398064E+04</rscale>
<asrwt>0</asrwt>
<pdfrwt beam="1">  1        2 0.28862856E+00 0.24398064E+04</pdfrwt>
<pdfrwt beam="2">  1       -1 0.12203509E+00 0.24398064E+04</pdfrwt>
<totfact> 0.47438967E+00</totfact>
</mgrwt>
</event>
<event>
12    6  0.1402540E-007  0.3149760E+04  0.7818608E-02  0.8202213E-01
         -1   -1    0    0    0  501 -0.00000000000E+00  0.00000000000E+00  0.20689141479E+04  0.20689141479E+04  0.00000000000E+00 0.  1.
          2   -1    0    0  501    0  0.00000000000E+00 -0.00000000000E+00 -0.11988158890E+04  0.11988158890E+04  0.00000000000E+00 0. -1.
         24    2    1    2    0    0  0.11583042037E+04 -0.46472773416E+03  0.11596297322E+04  0.17055865713E+04  0.81510374710E+02 0.  0.
        254    2    1    2    0    0 -0.11583042037E+04  0.46472773416E+03 -0.28953147337E+03  0.15621434656E+04  0.89376911882E+03 0.  0.
         23    2    4    4    0    0 -0.75636772119E+03  0.54992738488E+03  0.15247272312E+03  0.95186725136E+03  0.91055338183E+02 0.  0.
         23    2    4    4    0    0 -0.40193648254E+03 -0.85199650725E+02 -0.44200419649E+03  0.61027621423E+03  0.90870410276E+02 0.  0.
          4    1    3    3  502    0  0.85800447976E+03 -0.30626453608E+03  0.85615924823E+03  0.12501913100E+04  0.00000000000E+00 0. -1.
         -3    1    3    3    0  502  0.30029972397E+03 -0.15846319808E+03  0.30347048395E+03  0.45539526128E+03  0.00000000000E+00 0.  1.
         11    1    5    5    0    0 -0.28951255233E+03  0.22413537726E+03  0.10344723828E+03  0.38046749717E+03  0.00000000000E+00 0.  1.
        -11    1    5    5    0    0 -0.46685516886E+03  0.32579200763E+03  0.49025484844E+02  0.57139975419E+03  0.00000000000E+00 0. -1.
          4    1    6    6  503    0 -0.12371779976E+03 -0.37525488592E+02 -0.83178117308E+02  0.15372981321E+03  0.00000000000E+00 0. -1.
         -4    1    6    6    0  503 -0.27821868278E+03 -0.47674162133E+02 -0.35882607918E+03  0.45654640102E+03  0.00000000000E+00 0.  1.
<mgrwt>
<rscale>  0 0.31497601E+04</rscale>
<asrwt>0</asrwt>
<pdfrwt beam="1">  1        2 0.18443321E+00 0.31497601E+04</pdfrwt>
<pdfrwt beam="2">  1       -1 0.31829448E+00 0.31497601E+04</pdfrwt>
<totfact> 0.45878730E-01</totfact>
</mgrwt>
</event>
<event>
12    6  0.1402540E-007  0.2489747E+04  0.7818608E-02  0.8406647E-01
         -1   -1    0    0    0  501 -0.00000000000E+00  0.00000000000E+00  0.78057847503E+03  0.78057847503E+03  0.00000000000E+00 0.  1.
          2   -1    0    0  501    0  0.00000000000E+00 -0.00000000000E+00 -0.19853356232E+04  0.19853356232E+04  0.00000000000E+00 0. -1.
         24    2    1    2    0    0 -0.62900636345E+03 -0.85828336705E+03 -0.32394937502E+03  0.11151576695E+04  0.79586977150E+02 0.  0.
        254    2    1    2    0    0  0.62900636345E+03  0.85828336705E+03 -0.88080777317E+03  0.16507564287E+04  0.90381143511E+03 0.  0.
         23    2    4    4    0    0  0.92206724269E+02  0.16753917222E+03  0.17627493130E+03  0.27555643817E+03  0.91033208120E+02 0.  0.
         23    2    4    4    0    0  0.53679963919E+03  0.69074419483E+03 -0.10570827045E+04  0.13751999905E+04  0.92031378228E+02 0.  0.
          2    1    3    3  502    0 -0.13176420599E+03 -0.23029360918E+03 -0.98562766811E+02  0.28303987601E+03  0.00000000000E+00 0. -1.
         -1    1    3    3    0  502 -0.49724215746E+03 -0.62798975787E+03 -0.22538660821E+03  0.83211779353E+03  0.00000000000E+00 0.  1.
         11    1    5    5    0    0  0.92366572758E+02  0.75926054703E+02  0.89313792260E+02  0.14924243041E+03  0.00000000000E+00 0.  1.
        -11    1    5    5    0    0 -0.15984848916E+00  0.91613117517E+02  0.86961139044E+02  0.12631400776E+03  0.00000000000E+00 0. -1.
          4    1    6    6  503    0  0.33787753912E+03  0.40662414884E+03 -0.57229982295E+03  0.77912227359E+03  0.00000000000E+00 0. -1.
         -4    1    6    6    0  503  0.19892210006E+03  0.28412004599E+03 -0.48478288152E+03  0.59607771695E+03  0.00000000000E+00 0.  1.
<mgrwt>
<rscale>  0 0.24897472E+04</rscale>
<asrwt>0</asrwt>
<pdfrwt beam="1">  1        2 0.30543624E+00 0.24897472E+04</pdfrwt>
<pdfrwt beam="2">  1       -1 0.12008900E+00 0.24897472E+04</pdfrwt>
<totfact> 0.42730485E+00</totfact>
</mgrwt>
</event>
<event>
12    6  0.1402540E-007  0.2566551E+04  0.7818608E-02  0.8379652E-01
         -1   -1    0    0    0  501 -0.00000000000E+00  0.00000000000E+00  0.82491181245E+03  0.82491181245E+03  0.00000000000E+00 0.  1.
          2   -1    0    0  501    0  0.00000000000E+00 -0.00000000000E+00 -0.19963304124E+04  0.19963304124E+04  0.00000000000E+00 0. -1.
         24    2    1    2    0    0  0.16043191460E+03 -0.11021958615E+04 -0.68195237003E+03  0.13083567345E+04  0.78512377671E+02 0.  0.
        254    2    1    2    0    0 -0.16043191460E+03  0.11021958615E+04 -0.48946622994E+03  0.15128854904E+04  0.89926147503E+03 0.  0.
         23    2    4    4    0    0 -0.31892716973E+03  0.10220196338E+04 -0.65077823395E+03  0.12561860534E+04  0.90842829495E+02 0.  0.
         23    2    4    4    0    0  0.15849525513E+03  0.80176227696E+02  0.16131200401E+03  0.25669943693E+03  0.91236313491E+02 0.  0.
          4    1    3    3  502    0  0.66941362887E+02 -0.25115464171E+03 -0.17537454324E+03  0.31355387183E+03  0.00000000000E+00 0. -1.
         -3    1    3    3    0  502  0.93490551714E+02 -0.85104121976E+03 -0.50657782679E+03  0.99480286268E+03  0.00000000000E+00 0.  1.
         11    1    5    5    0    0 -0.15730272117E+03  0.57520939779E+03 -0.31539837390E+03  0.67460072017E+03  0.00000000000E+00 0. -1.
        -11    1    5    5    0    0 -0.16162444856E+03  0.44681023598E+03 -0.33537986005E+03  0.58158533327E+03  0.00000000000E+00 0.  1.
          1    1    6    6  503    0  0.47504022803E+01  0.35297513568E+02  0.11588383390E+02  0.37453590155E+02  0.00000000000E+00 0. -1.
         -1    1    6    6    0  503  0.15374485285E+03  0.44878714128E+02  0.14972362062E+03  0.21924584678E+03  0.00000000000E+00 0.  1.
<mgrwt>
<rscale>  0 0.25665514E+04</rscale>
<asrwt>0</asrwt>
<pdfrwt beam="1">  1        2 0.30712775E+00 0.25665514E+04</pdfrwt>
<pdfrwt beam="2">  1       -1 0.12690951E+00 0.25665514E+04</pdfrwt>
<totfact> 0.36502453E+00</totfact>
</mgrwt>
</event>
<event>
12    6  0.1402540E-007  0.2122199E+04  0.7818608E-02  0.8551527E-01
          2   -1    0    0  501    0  0.00000000000E+00  0.00000000000E+00  0.29458324091E+04  0.29458324091E+04  0.00000000000E+00 0. -1.
         -1   -1    0    0    0  501 -0.00000000000E+00 -0.00000000000E+00 -0.38221191938E+03  0.38221191938E+03  0.00000000000E+00 0.  1.
         24    2    1    2    0    0 -0.14818759863E+03  0.82009608004E+03  0.14364939548E+04  0.16624688085E+04  0.75963887477E+02 0.  0.
        254    2    1    2    0    0  0.14818759863E+03 -0.82009608004E+03  0.11271265349E+04  0.16655755200E+04  0.89956124979E+03 0.  0.
         23    2    4    4    0    0  0.27664122612E+03 -0.96323606644E+03  0.99402014050E+03  0.14143629474E+04  0.89400333708E+02 0.  0.
         23    2    4    4    0    0 -0.12845362749E+03  0.14313998640E+03  0.13310639442E+03  0.25121257254E+03  0.91657265095E+02 0.  0.
          2    1    3    3  502    0 -0.11068729820E+03  0.65571327001E+03  0.12014375581E+04  0.13731947337E+04  0.00000000000E+00 0. -1.
         -1    1    3    3    0  502 -0.37500300433E+02  0.16438281004E+03  0.23505639663E+03  0.28927407483E+03  0.00000000000E+00 0.  1.
         11    1    5    5    0    0  0.19659908805E+03 -0.80293628452E+03  0.80293842725E+03  0.11524183253E+04  0.00000000000E+00 0.  1.
        -11    1    5    5    0    0  0.80042138072E+02 -0.16029978192E+03  0.19108171325E+03  0.26194462218E+03  0.00000000000E+00 0. -1.
          4    1    6    6  503    0  0.98084992569E+01  0.38069733457E+02  0.27307852085E+02  0.47866794844E+02  0.00000000000E+00 0. -1.
         -4    1    6    6    0  503 -0.13826212675E+03  0.10507025294E+03  0.10579854233E+03  0.20334577770E+03  0.00000000000E+00 0.  1.
<mgrwt>
<rscale>  0 0.21221991E+04</rscale>
<asrwt>0</asrwt>
<pdfrwt beam="1">  1        2 0.45320497E+00 0.21221991E+04</pdfrwt>
<pdfrwt beam="2">  1       -1 0.58801836E-01 0.21221991E+04</pdfrwt>
<totfact> 0.57836422E+00</totfact>
</mgrwt>
</event>
<event>
12    6  0.1402540E-007  0.1335635E+04  0.7818608E-02  0.9001774E-01
         -1   -1    0    0    0  501 -0.00000000000E+00  0.00000000000E+00  0.31275708184E+03  0.31275708184E+03  0.00000000000E+00 0.  1.
          2   -1    0    0  501    0  0.00000000000E+00 -0.00000000000E+00 -0.14259636476E+04  0.14259636476E+04  0.00000000000E+00 0. -1.
         24    2    1    2    0    0  0.17910857680E+03  0.23018222227E+03 -0.57626058670E+03  0.65025868582E+03  0.75474214010E+02 0.  0.
        254    2    1    2    0    0 -0.17910857680E+03 -0.23018222227E+03 -0.53694597902E+03  0.10884620436E+04  0.90076350846E+03 0.  0.
         23    2    4    4    0    0 -0.53878328062E+03 -0.15414902646E+03 -0.30669828180E+03  0.64530255795E+03  0.91116460650E+02 0.  0.
         23    2    4    4    0    0  0.35967470381E+03 -0.76033195810E+02 -0.23024769722E+03  0.44315948562E+03  0.90715975408E+02 0.  0.
          4    1    3    3  502    0  0.14876821489E+03  0.16124480302E+03 -0.48216605766E+03  0.52973198452E+03  0.00000000000E+00 0. -1.
         -3    1    3    3    0  502  0.30340361912E+02  0.68937419248E+02 -0.94094529036E+02  0.12052670131E+03  0.00000000000E+00 0.  1.
         11    1    5    5    0    0 -0.52830782517E+03 -0.16292422196E+03 -0.30532895958E+03  0.63156886703E+03  0.00000000000E+00 0. -1.
        -11    1    5    5    0    0 -0.10475455445E+02  0.87751955053E+01 -0.13693222253E+01  0.13733690920E+02  0.00000000000E+00 0.  1.
          2    1    6    6  503    0  0.21624745723E+03 -0.58100493651E+02 -0.88681816362E+02  0.24083831646E+03  0.00000000000E+00 0. -1.
         -2    1    6    6    0  503  0.14342724658E+03 -0.17932702159E+02 -0.14156588086E+03  0.20232116916E+03  0.00000000000E+00 0.  1.
<mgrwt>
<rscale>  0 0.13356350E+04</rscale>
<asrwt>0</asrwt>
<pdfrwt beam="1">  1        2 0.21937903E+00 0.13356350E+04</pdfrwt>
<pdfrwt beam="2">  1       -1 0.48116474E-01 0.13356350E+04</pdfrwt>
<totfact> 0.67263016E+01</totfact>
</mgrwt>
</event>
<event>
12    6  0.1402540E-007  0.1275597E+04  0.7818608E-02  0.9049144E-01
          2   -1    0    0  501    0  0.00000000000E+00  0.00000000000E+00  0.54969804776E+03  0.54969804776E+03  0.00000000000E+00 0. -1.
         -1   -1    0    0    0  501 -0.00000000000E+00 -0.00000000000E+00 -0.74001856087E+03  0.74001856087E+03  0.00000000000E+00 0.  1.
         24    2    1    2    0    0 -0.13502489998E+03  0.13186056541E+03  0.20355161549E+03  0.28839967331E+03  0.78244354905E+02 0.  0.
        254    2    1    2    0    0  0.13502489998E+03 -0.13186056541E+03 -0.39387212860E+03  0.10013169353E+04  0.90104462650E+03 0.  0.
         23    2    4    4    0    0 -0.14154105674E+03  0.31687300588E+03 -0.43669418724E+02  0.36203753305E+03  0.93390495262E+02 0.  0.
         23    2    4    4    0    0  0.27656595672E+03 -0.44873357129E+03 -0.35020270988E+03  0.63927940227E+03  0.90474691189E+02 0.  0.
          4    1    3    3  502    0 -0.13588079742E+03  0.13394558624E+03  0.20870382169E+03  0.28277605338E+03  0.00000000000E+00 0. -1.
         -3    1    3    3    0  502  0.85589743823E+00 -0.20850208302E+01 -0.51522062051E+01  0.56236199255E+01  0.00000000000E+00 0.  1.
         11    1    5    5    0    0 -0.14492323549E+03  0.25328740560E+03 -0.14991235424E+02  0.29220196980E+03  0.00000000000E+00 0. -1.
        -11    1    5    5    0    0  0.33821787427E+01  0.63585600283E+02 -0.28678183300E+02  0.69835563245E+02  0.00000000000E+00 0.  1.
          4    1    6    6  503    0  0.26416479345E+03 -0.38712250128E+03 -0.28401042597E+03  0.54800437148E+03  0.00000000000E+00 0. -1.
         -4    1    6    6    0  503  0.12401163270E+02 -0.61611070005E+02 -0.66192283908E+02  0.91275030795E+02  0.00000000000E+00 0.  1.
<mgrwt>
<rscale>  0 0.12755967E+04</rscale>
<asrwt>0</asrwt>
<pdfrwt beam="1">  1        2 0.84568930E-01 0.12755967E+04</pdfrwt>
<pdfrwt beam="2">  1       -1 0.11384901E+00 0.12755967E+04</pdfrwt>
<totfact> 0.43495758E+01</totfact>
</mgrwt>
</event>
<event>
12    6  0.1402540E-007  0.1483027E+04  0.7818608E-02  0.8895819E-01
         -1   -1    0    0    0  501 -0.00000000000E+00  0.00000000000E+00  0.33992943718E+03  0.33992943718E+03  0.00000000000E+00 0.  1.
          2   -1    0    0  501    0  0.00000000000E+00 -0.00000000000E+00 -0.16175193365E+04  0.16175193365E+04  0.00000000000E+00 0. -1.
         24    2    1    2    0    0 -0.25760654184E+03  0.37554495768E+03 -0.51817520842E+03  0.69446040333E+03  0.79840838794E+02 0.  0.
        254    2    1    2    0    0  0.25760654184E+03 -0.37554495768E+03 -0.75941469092E+03  0.12629883704E+04  0.90057415311E+03 0.  0.
         23    2    4    4    0    0  0.20701615365E+03 -0.49899212709E+03 -0.66682605627E+02  0.55165979834E+03  0.89627743718E+02 0.  0.
         23    2    4    4    0    0  0.50590388187E+02  0.12344716941E+03 -0.69273208529E+03  0.71132857202E+03  0.91170194496E+02 0.  0.
          2    1    3    3  502    0 -0.12309655177E+03  0.15484987379E+03 -0.16990985481E+03  0.26076925285E+03  0.00000000000E+00 0. -1.
         -1    1    3    3    0  502 -0.13450999007E+03  0.22069508388E+03 -0.34826535361E+03  0.43369115048E+03  0.00000000000E+00 0.  1.
         11    1    5    5    0    0  0.16316106959E+03 -0.29433255728E+03 -0.19459889352E+02  0.33709327522E+03  0.00000000000E+00 0. -1.
        -11    1    5    5    0    0  0.43855084062E+02 -0.20465956981E+03 -0.47222716275E+02  0.21456652312E+03  0.00000000000E+00 0.  1.
          2    1    6    6  503    0  0.42634987331E+02  0.52065514917E+02 -0.51886252708E+03  0.52320825873E+03  0.00000000000E+00 0. -1.
         -2    1    6    6    0  503  0.79554008553E+01  0.71381654497E+02 -0.17386955820E+03  0.18812031329E+03  0.00000000000E+00 0.  1.
<mgrwt>
<rscale>  0 0.14830272E+04</rscale>
<asrwt>0</asrwt>
<pdfrwt beam="1">  1        2 0.24884913E+00 0.14830272E+04</pdfrwt>
<pdfrwt beam="2">  1       -1 0.52296836E-01 0.14830272E+04</pdfrwt>
<totfact> 0.44257347E+01</totfact>
</mgrwt>
</event>
<event>
12    6  0.1402540E-007  0.2602188E+04  0.7818608E-02  0.8367459E-01
          2   -1    0    0  501    0  0.00000000000E+00  0.00000000000E+00  0.23069475268E+04  0.23069475268E+04  0.00000000000E+00 0. -1.
         -1   -1    0    0    0  501 -0.00000000000E+00 -0.00000000000E+00 -0.73380297071E+03  0.73380297071E+03  0.00000000000E+00 0.  1.
         24    2    1    2    0    0 -0.10185409569E+04  0.50135201293E+03  0.53322917319E+03  0.12566857659E+04  0.78397966443E+02 0.  0.
        254    2    1    2    0    0  0.10185409569E+04 -0.50135201293E+03  0.10399153829E+04  0.17840647316E+04  0.90148956799E+03 0.  0.
         23    2    4    4    0    0  0.13159461680E+03 -0.13982331577E+03 -0.14515306762E+03  0.25814715717E+03  0.93289007437E+02 0.  0.
         23    2    4    4    0    0  0.88694634014E+03 -0.36152869716E+03  0.11850684505E+04  0.15259175744E+04  0.81611288875E+02 0.  0.
          4    1    3    3  502    0 -0.34867798868E+03  0.20584495008E+03  0.21385977640E+03  0.45791318744E+03  0.00000000000E+00 0. -1.
         -3    1    3    3    0  502 -0.66986296827E+03  0.29550706284E+03  0.31936939679E+03  0.79877257843E+03  0.00000000000E+00 0.  1.
         11    1    5    5    0    0  0.20850864181E+02 -0.28618726429E+02  0.10676224870E+02  0.36983399208E+02  0.00000000000E+00 0. -1.
        -11    1    5    5    0    0  0.11074375262E+03 -0.11120458934E+03 -0.15582929249E+03  0.22116375796E+03  0.00000000000E+00 0.  1.
          4    1    6    6  503    0  0.12636003431E+03 -0.22545906123E+02  0.14771239278E+03  0.19568885286E+03  0.00000000000E+00 0. -1.
         -4    1    6    6    0  503  0.76058630583E+03 -0.33898279104E+03  0.10373560577E+04  0.13302287216E+04  0.00000000000E+00 0.  1.
<mgrwt>
<rscale>  0 0.26021875E+04</rscale>
<asrwt>0</asrwt>
<pdfrwt beam="1">  1        2 0.35491500E+00 0.26021875E+04</pdfrwt>
<pdfrwt beam="2">  1       -1 0.11289277E+00 0.26021875E+04</pdfrwt>
<totfact> 0.32417492E+00</totfact>
</mgrwt>
</event>
<event>
12    6  0.1402540E-007  0.1477917E+04  0.7818608E-02  0.8899272E-01
          2   -1    0    0  501    0  0.00000000000E+00  0.00000000000E+00  0.20100025484E+03  0.20100025484E+03  0.00000000000E+00 0. -1.
         -1   -1    0    0    0  501 -0.00000000000E+00 -0.00000000000E+00 -0.27167128649E+04  0.27167128649E+04  0.00000000000E+00 0.  1.
         24    2    1    2    0    0  0.68893690239E+01 -0.44556924991E+03 -0.56864296554E+03  0.72690660262E+03  0.80367697523E+02 0.  0.
        254    2    1    2    0    0 -0.68893690239E+01  0.44556924991E+03 -0.19470696445E+04  0.21908065172E+04  0.89998531932E+03 0.  0.
         23    2    4    4    0    0  0.23708304240E+02  0.60728141366E+03 -0.70831904202E+03  0.93786519940E+03  0.92317213451E+02 0.  0.
         23    2    4    4    0    0 -0.30597673264E+02 -0.16171216374E+03 -0.12387506025E+04  0.12529413178E+04  0.90949705556E+02 0.  0.
          4    1    3    3  502    0  0.34666411681E+02 -0.34579110145E+03 -0.41029683739E+03  0.53769576967E+03  0.00000000000E+00 0. -1.
         -1    1    3    3    0  502 -0.27777042657E+02 -0.99778148461E+02 -0.15834612814E+03  0.18921083295E+03  0.00000000000E+00 0.  1.
         11    1    5    5    0    0  0.44589518047E+02  0.18270095315E+03 -0.24873455681E+03  0.31182806665E+03  0.00000000000E+00 0. -1.
        -11    1    5    5    0    0 -0.20881213807E+02  0.42458046051E+03 -0.45958448521E+03  0.62603713275E+03  0.00000000000E+00 0.  1.
          4    1    6    6  503    0  0.23019905749E+02 -0.11008116358E+03 -0.81138522228E+03  0.81914208631E+03  0.00000000000E+00 0.  1.
         -4    1    6    6    0  503 -0.53617579013E+02 -0.51631000160E+02 -0.42736538026E+03  0.43379923144E+03  0.00000000000E+00 0. -1.
<mgrwt>
<rscale>  0 0.14779174E+04</rscale>
<asrwt>0</asrwt>
<pdfrwt beam="1">  1        2 0.30923117E-01 0.14779174E+04</pdfrwt>
<pdfrwt beam="2">  1       -1 0.41795581E+00 0.14779174E+04</pdfrwt>
<totfact> 0.10359149E+00</totfact>
</mgrwt>
</event>
<event>
12    6  0.1402540E-007  0.1995929E+04  0.7818608E-02  0.8608526E-01
         -1   -1    0    0    0  501 -0.00000000000E+00  0.00000000000E+00  0.11515913962E+04  0.11515913962E+04  0.00000000000E+00 0.  1.
          2   -1    0    0  501    0  0.00000000000E+00 -0.00000000000E+00 -0.86483223154E+03  0.86483223154E+03  0.00000000000E+00 0. -1.
         24    2    1    2    0    0 -0.63618817609E+03 -0.45967440122E+03  0.20034523798E+03  0.81391906678E+03  0.79310039411E+02 0.  0.
        254    2    1    2    0    0  0.63618817609E+03  0.45967440122E+03  0.86413926656E+02  0.12025045609E+04  0.90692552166E+03 0.  0.
         23    2    4    4    0    0  0.52257675400E+03  0.66654101390E+03 -0.14006256263E+03  0.86331417407E+03  0.91271324485E+02 0.  0.
         23    2    4    4    0    0  0.11361142208E+03 -0.20686661268E+03  0.22647648928E+03  0.33919038687E+03  0.89761727258E+02 0.  0.
          4    1    3    3  502    0 -0.86918599556E+02 -0.99106296572E+02  0.35102618126E+02  0.13641515593E+03  0.00000000000E+00 0. -1.
         -3    1    3    3    0  502 -0.54926957653E+03 -0.36056810465E+03  0.16524261985E+03  0.67750391084E+03  0.00000000000E+00 0.  1.
         11    1    5    5    0    0  0.78067104220E+02  0.75404657189E+02  0.87035648007E+01  0.10888566080E+03  0.00000000000E+00 0.  1.
        -11    1    5    5    0    0  0.44450964978E+03  0.59113635671E+03 -0.14876612743E+03  0.75442851328E+03  0.00000000000E+00 0. -1.
          3    1    6    6  503    0  0.10936858846E+03 -0.14449780803E+03  0.20373289264E+03  0.27266865644E+03  0.00000000000E+00 0. -1.
         -3    1    6    6    0  503  0.42428336275E+01 -0.62368804649E+02  0.22743596646E+02  0.66521730426E+02  0.00000000000E+00 0.  1.
<mgrwt>
<rscale>  0 0.19959292E+04</rscale>
<asrwt>0</asrwt>
<pdfrwt beam="1">  1        2 0.13305111E+00 0.19959292E+04</pdfrwt>
<pdfrwt beam="2">  1       -1 0.17716791E+00 0.19959292E+04</pdfrwt>
<totfact> 0.71694878E+00</totfact>
</mgrwt>
</event>
<event>
12    6  0.1402540E-007  0.1551223E+04  0.7818608E-02  0.8851087E-01
         -1   -1    0    0    0  501 -0.00000000000E+00  0.00000000000E+00  0.92577316742E+03  0.92577316742E+03  0.00000000000E+00 0.  1.
          2   -1    0    0  501    0  0.00000000000E+00 -0.00000000000E+00 -0.64980635706E+03  0.64980635706E+03  0.00000000000E+00 0. -1.
         24    2    1    2    0    0 -0.46088549189E+03  0.20956055518E+03  0.12112053540E+02  0.51277601701E+03  0.80383324537E+02 0.  0.
        254    2    1    2    0    0  0.46088549189E+03 -0.20956055518E+03  0.26385475682E+03  0.10628035075E+04  0.89643789516E+03 0.  0.
         23    2    4    4    0    0  0.14137955359E+03  0.16914088190E+03  0.46345337513E+03  0.52160337291E+03  0.93189224731E+02 0.  0.
         23    2    4    4    0    0  0.31950593830E+03 -0.37870143708E+03 -0.19959861831E+03  0.54120013456E+03  0.86943396294E+02 0.  0.
          2    1    3    3  502    0 -0.28402652493E+03  0.11448082802E+03  0.44293672615E+02  0.30941696185E+03  0.00000000000E+00 0. -1.
         -1    1    3    3    0  502 -0.17685896696E+03  0.95079727155E+02 -0.32181619075E+02  0.20335905516E+03  0.00000000000E+00 0.  1.
         11    1    5    5    0    0  0.11805950930E+03  0.16682352187E+03  0.34613377942E+03  0.40196607872E+03  0.00000000000E+00 0.  1.
        -11    1    5    5    0    0  0.23320044284E+02  0.23173600327E+01  0.11731959571E+03  0.11963729419E+03  0.00000000000E+00 0. -1.
          4    1    6    6  503    0  0.29581238901E+03 -0.30349183308E+03 -0.17591915405E+03  0.45886796685E+03  0.00000000000E+00 0.  1.
         -4    1    6    6    0  503  0.23693549288E+02 -0.75209604006E+02 -0.23679464262E+02  0.82332167713E+02  0.00000000000E+00 0. -1.
<mgrwt>
<rscale>  0 0.15512231E+04</rscale>
<asrwt>0</asrwt>
<pdfrwt beam="1">  1        2 0.99970209E-01 0.15512231E+04</pdfrwt>
<pdfrwt beam="2">  1       -1 0.14242664E+00 0.15512231E+04</pdfrwt>
<totfact> 0.19816352E+01</totfact>
</mgrwt>
</event>
<event>
12    6  0.1402540E-007  0.2030770E+04  0.7818608E-02  0.8592368E-01
         -1   -1    0    0    0  501 -0.00000000000E+00  0.00000000000E+00  0.44675445987E+03  0.44675445987E+03  0.00000000000E+00 0.  1.
          2   -1    0    0  501    0  0.00000000000E+00 -0.00000000000E+00 -0.23077701518E+04  0.23077701518E+04  0.00000000000E+00 0. -1.
         24    2    1    2    0    0 -0.43652278161E+03  0.36375411390E+03 -0.15448413345E+04  0.16479783304E+04  0.80178767012E+02 0.  0.
        254    2    1    2    0    0  0.43652278161E+03 -0.36375411390E+03 -0.31617435751E+03  0.11065462813E+04  0.89532633938E+03 0.  0.
         23    2    4    4    0    0 -0.17396659228E+03  0.53580114024E+01  0.15188762529E+03  0.24909401596E+03  0.93192781670E+02 0.  0.
         23    2    4    4    0    0  0.61048937389E+03 -0.36911212531E+03 -0.46806198280E+03  0.85745226531E+03  0.84860655525E+02 0.  0.
          4    1    3    3  502    0 -0.24862130846E+03  0.18414098822E+03 -0.94128352887E+03  0.99082548427E+03  0.00000000000E+00 0. -1.
         -3    1    3    3    0  502 -0.18790147315E+03  0.17961312568E+03 -0.60355780560E+03  0.65715284617E+03  0.00000000000E+00 0.  1.
         11    1    5    5    0    0 -0.10351473339E+02 -0.12039521645E+02  0.56970724195E+02  0.59141918273E+02  0.00000000000E+00 0. -1.
        -11    1    5    5    0    0 -0.16361511894E+03  0.17397533047E+02  0.94916901092E+02  0.18995209769E+03  0.00000000000E+00 0.  1.
          4    1    6    6  503    0  0.45592501097E+03 -0.29795038483E+03 -0.31871021731E+03  0.63104536292E+03  0.00000000000E+00 0.  1.
         -4    1    6    6    0  503  0.15456436293E+03 -0.71161740478E+02 -0.14935176549E+03  0.22640690239E+03  0.00000000000E+00 0. -1.
<mgrwt>
<rscale>  0 0.20307699E+04</rscale>
<asrwt>0</asrwt>
<pdfrwt beam="1">  1        2 0.35504157E+00 0.20307699E+04</pdfrwt>
<pdfrwt beam="2">  1       -1 0.68731453E-01 0.20307699E+04</pdfrwt>
<totfact> 0.10143180E+01</totfact>
</mgrwt>
</event>
<event>
12    6  0.1402540E-007  0.1703923E+04  0.7818608E-02  0.8759130E-01
          2   -1    0    0  501    0  0.00000000000E+00  0.00000000000E+00  0.12013825857E+04  0.12013825857E+04  0.00000000000E+00 0. -1.
         -1   -1    0    0    0  501 -0.00000000000E+00 -0.00000000000E+00 -0.60416955913E+03  0.60416955913E+03  0.00000000000E+00 0.  1.
         24    2    1    2    0    0  0.64481226916E+02 -0.58782236707E+03  0.56664218109E+02  0.59978801616E+03  0.82715578111E+02 0.  0.
        254    2    1    2    0    0 -0.64481226916E+02  0.58782236707E+03  0.54054880845E+03  0.12057641287E+04  0.90109996993E+03 0.  0.
         23    2    4    4    0    0 -0.13388071869E+03  0.81069350483E+03  0.40388825868E+03  0.92003800763E+03  0.90532891098E+02 0.  0.
         23    2    4    4    0    0  0.69399491775E+02 -0.22287113777E+03  0.13666054976E+03  0.28572612103E+03  0.92062353174E+02 0.  0.
          4    1    3    3  502    0  0.44280021454E+01 -0.39716995357E+03  0.40228436545E+02  0.39922663530E+03  0.00000000000E+00 0. -1.
         -3    1    3    3    0  502  0.60053224770E+02 -0.19065241350E+03  0.16435781564E+02  0.20056138086E+03  0.00000000000E+00 0.  1.
         11    1    5    5    0    0 -0.53973680694E+02  0.49792737368E+03  0.20710581556E+03  0.54197568812E+03  0.00000000000E+00 0.  1.
        -11    1    5    5    0    0 -0.79907037997E+02  0.31276613115E+03  0.19678244313E+03  0.37806231952E+03  0.00000000000E+00 0. -1.
          1    1    6    6  503    0  0.87983026920E+02 -0.13542744050E+03  0.85834553486E+02  0.18289115681E+03  0.00000000000E+00 0. -1.
         -1    1    6    6    0  503 -0.18583535145E+02 -0.87443697261E+02  0.50825996278E+02  0.10283496422E+03  0.00000000000E+00 0.  1.
<mgrwt>
<rscale>  0 0.17039235E+04</rscale>
<asrwt>0</asrwt>
<pdfrwt beam="1">  1        2 0.18482809E+00 0.17039235E+04</pdfrwt>
<pdfrwt beam="2">  1       -1 0.92949163E-01 0.17039235E+04</pdfrwt>
<totfact> 0.23060300E+01</totfact>
</mgrwt>
</event>
<event>
12    6  0.1402540E-007  0.1412721E+04  0.7818608E-02  0.8944662E-01
         -1   -1    0    0    0  501 -0.00000000000E+00  0.00000000000E+00  0.16450566245E+03  0.16450566245E+03  0.00000000000E+00 0.  1.
          2   -1    0    0  501    0  0.00000000000E+00 -0.00000000000E+00 -0.30329970039E+04  0.30329970039E+04  0.00000000000E+00 0. -1.
         24    2    1    2    0    0  0.36412973895E+03  0.13597809300E+03 -0.58692820890E+03  0.70853403134E+03  0.80344524385E+02 0.  0.
        254    2    1    2    0    0 -0.36412973895E+03 -0.13597809300E+03 -0.22815631325E+04  0.24889686350E+04  0.91561674827E+03 0.  0.
         23    2    4    4    0    0 -0.13642914733E+03 -0.34876551166E+01  0.25938513970E+02  0.16465203102E+03  0.88387831933E+02 0.  0.
         23    2    4    4    0    0 -0.22770059162E+03 -0.13249043788E+03 -0.23075016465E+04  0.23243166039E+04  0.92100767498E+02 0.  0.
          4    1    3    3  502    0  0.17222225206E+03  0.50453258379E+02 -0.33886393688E+03  0.38345117434E+03  0.00000000000E+00 0. -1.
         -3    1    3    3    0  502  0.19190748689E+03  0.85524834617E+02 -0.24806427202E+03  0.32508285700E+03  0.00000000000E+00 0.  1.
         11    1    5    5    0    0 -0.32714549674E+02 -0.40760091310E+02  0.11335471262E+02  0.53480087067E+02  0.00000000000E+00 0. -1.
        -11    1    5    5    0    0 -0.10371459765E+03  0.37272436194E+02  0.14603042708E+02  0.11117194395E+03  0.00000000000E+00 0.  1.
          4    1    6    6  503    0 -0.92454479156E+02 -0.10595094709E+03 -0.12435109494E+04  0.12514363408E+04  0.00000000000E+00 0.  1.
         -4    1    6    6    0  503 -0.13524611247E+03 -0.26539490784E+02 -0.10639906971E+04  0.10728802631E+04  0.00000000000E+00 0. -1.
<mgrwt>
<rscale>  0 0.14127210E+04</rscale>
<asrwt>0</asrwt>
<pdfrwt beam="1">  1        2 0.46661489E+00 0.14127210E+04</pdfrwt>
<pdfrwt beam="2">  1       -1 0.25308566E-01 0.14127210E+04</pdfrwt>
<totfact> 0.25446471E+01</totfact>
</mgrwt>
</event>
<event>
12    6  0.1402540E-007  0.1630073E+04  0.7818608E-02  0.8802283E-01
         -1   -1    0    0    0  501 -0.00000000000E+00  0.00000000000E+00  0.13665495066E+04  0.13665495066E+04  0.00000000000E+00 0.  1.
          2   -1    0    0  501    0  0.00000000000E+00 -0.00000000000E+00 -0.48610325512E+03  0.48610325512E+03  0.00000000000E+00 0. -1.
         24    2    1    2    0    0  0.25249308826E+03  0.50304867204E+03  0.29340726637E+03  0.63949490925E+03  0.77815094562E+02 0.  0.
        254    2    1    2    0    0 -0.25249308826E+03 -0.50304867204E+03  0.58703898512E+03  0.12131578525E+04  0.90018135889E+03 0.  0.
         23    2    4    4    0    0 -0.10730036930E+03 -0.13469803109E+03 -0.22959531581E+03  0.30098030592E+03  0.90654325207E+02 0.  0.
         23    2    4    4    0    0 -0.14519271896E+03 -0.36835064095E+03  0.81663430093E+03  0.91217754656E+03  0.91723359404E+02 0.  0.
          2    1    3    3  502    0  0.12069152269E+03  0.29086056148E+03  0.12813362374E+03  0.33997725719E+03  0.00000000000E+00 0. -1.
         -1    1    3    3    0  502  0.13180156557E+03  0.21218811057E+03  0.16527364263E+03  0.29951765207E+03  0.00000000000E+00 0.  1.
         11    1    5    5    0    0 -0.34751178563E+02 -0.82791128533E+02 -0.56041009768E+02  0.10584238353E+03  0.00000000000E+00 0.  1.
        -11    1    5    5    0    0 -0.72549190735E+02 -0.51906902556E+02 -0.17355430604E+03  0.19513792239E+03  0.00000000000E+00 0. -1.
          1    1    6    6  503    0 -0.11532991280E+03 -0.35506080071E+03  0.76137733912E+03  0.84797677652E+03  0.00000000000E+00 0. -1.
         -1    1    6    6    0  503 -0.29862806158E+02 -0.13289840243E+02  0.55256961805E+02  0.64200770036E+02  0.00000000000E+00 0.  1.
<mgrwt>
<rscale>  0 0.16300726E+04</rscale>
<asrwt>0</asrwt>
<pdfrwt beam="1">  1        2 0.74785117E-01 0.16300726E+04</pdfrwt>
<pdfrwt beam="2">  1       -1 0.21023838E+00 0.16300726E+04</pdfrwt>
<totfact> 0.89120678E+00</totfact>
</mgrwt>
</event>
<event>
12    6  0.1402540E-007  0.2701452E+04  0.7818608E-02  0.8334534E-01
          2   -1    0    0  501    0  0.00000000000E+00  0.00000000000E+00  0.19749526133E+04  0.19749526133E+04  0.00000000000E+00 0. -1.
         -1   -1    0    0    0  501 -0.00000000000E+00 -0.00000000000E+00 -0.92379997369E+03  0.92379997369E+03  0.00000000000E+00 0.  1.
         24    2    1    2    0    0  0.89226343263E+03  0.38556226813E+02 -0.39031836931E+03  0.97814975664E+03  0.82510006406E+02 0.  0.
        254    2    1    2    0    0 -0.89226343263E+03 -0.38556226813E+02  0.14414710090E+04  0.19206028304E+04  0.90180704507E+03 0.  0.
         23    2    4    4    0    0 -0.18358519137E+03  0.28956955206E+03  0.89576088476E+03  0.96351876945E+03  0.91797649444E+02 0.  0.
         23    2    4    4    0    0 -0.70867824126E+03 -0.32812577887E+03  0.54571012419E+03  0.95708406092E+03  0.91208462470E+02 0.  0.
          2    1    3    3  502    0  0.13177318851E+03 -0.20500322140E+02 -0.43965597072E+02  0.14041869584E+03  0.00000000000E+00 0. -1.
         -1    1    3    3    0  502  0.76049024413E+03  0.59056548952E+02 -0.34635277224E+03  0.83773106080E+03  0.00000000000E+00 0.  1.
         11    1    5    5    0    0 -0.14763843434E+03  0.27495044468E+03  0.83509205364E+03  0.89150075288E+03  0.00000000000E+00 0. -1.
        -11    1    5    5    0    0 -0.35946757034E+02  0.14619107381E+02  0.60668831118E+02  0.72018016572E+02  0.00000000000E+00 0.  1.
          1    1    6    6  503    0 -0.36360137296E+03 -0.12764637931E+03  0.30064346322E+03  0.48875970430E+03  0.00000000000E+00 0. -1.
         -1    1    6    6    0  503 -0.34507686830E+03 -0.20047939956E+03  0.24506666097E+03  0.46832435662E+03  0.00000000000E+00 0.  1.
<mgrwt>
<rscale>  0 0.27014523E+04</rscale>
<asrwt>0</asrwt>
<pdfrwt beam="1">  1        2 0.30383886E+00 0.27014523E+04</pdfrwt>
<pdfrwt beam="2">  1       -1 0.14212307E+00 0.27014523E+04</pdfrwt>
<totfact> 0.27741281E+00</totfact>
</mgrwt>
</event>
<event>
12    6  0.1402540E-007  0.2438254E+04  0.7818608E-02  0.8425319E-01
          2   -1    0    0  501    0  0.00000000000E+00  0.00000000000E+00  0.34480595057E+04  0.34480595057E+04  0.00000000000E+00 0. -1.
         -1   -1    0    0    0  501 -0.00000000000E+00 -0.00000000000E+00 -0.43104543731E+03  0.43104543731E+03  0.00000000000E+00 0.  1.
         24    2    1    2    0    0  0.85777925846E+03  0.14682119880E+03  0.36274268441E+03  0.94619844528E+03  0.79796754884E+02 0.  0.
        254    2    1    2    0    0 -0.85777925846E+03 -0.14682119880E+03  0.26542713840E+04  0.29329064977E+04  0.89411533035E+03 0.  0.
         23    2    4    4    0    0 -0.94467454315E+03 -0.26453470413E+03  0.25434143983E+04  0.27275409584E+04  0.90190221636E+02 0.  0.
         23    2    4    4    0    0  0.86895284687E+02  0.11771350533E+03  0.11085698566E+03  0.20536553932E+03  0.92078627444E+02 0.  0.
          4    1    3    3  502    0  0.74963429460E+03  0.11864355800E+03  0.34231682058E+03  0.83259154161E+03  0.00000000000E+00 0. -1.
         -3    1    3    3    0  502  0.10814496386E+03  0.28177640800E+02  0.20425863829E+02  0.11360690367E+03  0.00000000000E+00 0.  1.
         11    1    5    5    0    0 -0.17543678070E+03 -0.18593709372E+02  0.50810741423E+03  0.53786330461E+03  0.00000000000E+00 0. -1.
        -11    1    5    5    0    0 -0.76923776245E+03 -0.24594099476E+03  0.20353069841E+04  0.21896776538E+04  0.00000000000E+00 0.  1.
          3    1    6    6  503    0  0.91049975255E+02  0.58874902636E+02  0.46239732381E+02  0.11787478528E+03  0.00000000000E+00 0. -1.
         -3    1    6    6    0  503 -0.41546905679E+01  0.58838602697E+02  0.64617253279E+02  0.87490754039E+02  0.00000000000E+00 0.  1.
<mgrwt>
<rscale>  0 0.24382537E+04</rscale>
<asrwt>0</asrwt>
<pdfrwt beam="1">  1        2 0.53047068E+00 0.24382537E+04</pdfrwt>
<pdfrwt beam="2">  1       -1 0.66314685E-01 0.24382537E+04</pdfrwt>
<totfact> 0.20789648E+00</totfact>
</mgrwt>
</event>
<event>
12    6  0.1402540E-007  0.1934780E+04  0.7818608E-02  0.8637735E-01
         -1   -1    0    0    0  501 -0.00000000000E+00  0.00000000000E+00  0.16007288986E+04  0.16007288986E+04  0.00000000000E+00 0.  1.
          2   -1    0    0  501    0  0.00000000000E+00 -0.00000000000E+00 -0.58463552932E+03  0.58463552932E+03  0.00000000000E+00 0. -1.
         24    2    1    2    0    0  0.70259624276E+02  0.58236158678E+03 -0.14027619968E+03  0.60877165662E+03  0.82728986154E+02 0.  0.
        254    2    1    2    0    0 -0.70259624276E+02 -0.58236158678E+03  0.11563695690E+04  0.15765927713E+04  0.89686830353E+03 0.  0.
         23    2    4    4    0    0 -0.96219391137E+02 -0.79727701119E+03  0.10321134322E+04  0.13109003010E+04  0.91064033817E+02 0.  0.
         23    2    4    4    0    0  0.25959766862E+02  0.21491542440E+03  0.12425613671E+03  0.26569247032E+03  0.91051370830E+02 0.  0.
          2    1    3    3  502    0  0.40866359649E+02  0.52415665492E+03 -0.13785875447E+03  0.54352119962E+03  0.00000000000E+00 0. -1.
         -1    1    3    3    0  502  0.29393264626E+02  0.58204931861E+02 -0.24174452095E+01  0.65250457008E+02  0.00000000000E+00 0.  1.
         11    1    5    5    0    0 -0.10462798873E+02 -0.38904891871E+03  0.54291709953E+03  0.66800262595E+03  0.00000000000E+00 0. -1.
        -11    1    5    5    0    0 -0.85756592265E+02 -0.40822809247E+03  0.48919633272E+03  0.64289767502E+03  0.00000000000E+00 0.  1.
          2    1    6    6  503    0  0.30710168574E+01 -0.46682512468E+01 -0.69157567440E+01  0.88910857371E+01  0.00000000000E+00 0. -1.
         -2    1    6    6    0  503  0.22888750004E+02  0.21958367565E+03  0.13117189346E+03  0.25680138458E+03  0.00000000000E+00 0.  1.
<mgrwt>
<rscale>  0 0.19347796E+04</rscale>
<asrwt>0</asrwt>
<pdfrwt beam="1">  1        2 0.89943928E-01 0.19347796E+04</pdfrwt>
<pdfrwt beam="2">  1       -1 0.24626598E+00 0.19347796E+04</pdfrwt>
<totfact> 0.40260600E+00</totfact>
</mgrwt>
</event>
<event>
12    6  0.1402540E-007  0.1608815E+04  0.7818608E-02  0.8815151E-01
          2   -1    0    0  501    0  0.00000000000E+00  0.00000000000E+00  0.18631026614E+04  0.18631026614E+04  0.00000000000E+00 0. -1.
         -1   -1    0    0    0  501 -0.00000000000E+00 -0.00000000000E+00 -0.34730841615E+03  0.34730841615E+03  0.00000000000E+00 0.  1.
         24    2    1    2    0    0 -0.31151552608E+03  0.24760218085E+03  0.31054435805E+01  0.40542804308E+03  0.77546704488E+02 0.  0.
        254    2    1    2    0    0  0.31151552608E+03 -0.24760218085E+03  0.15126888016E+04  0.18049830344E+04  0.90077054850E+03 0.  0.
         23    2    4    4    0    0  0.20395677123E+03 -0.48198424403E+03  0.14202707918E+04  0.15163700274E+04  0.91114005224E+02 0.  0.
         23    2    4    4    0    0  0.10755875485E+03  0.23438206317E+03  0.92418009888E+02  0.28861300708E+03  0.90843502901E+02 0.  0.
          4    1    3    3  502    0 -0.85872657920E+02  0.43407001694E+02  0.27667827779E+02  0.10011887868E+03  0.00000000000E+00 0. -1.
         -3    1    3    3    0  502 -0.22564286816E+03  0.20419517916E+03 -0.24562384199E+02  0.30530916439E+03  0.00000000000E+00 0.  1.
         11    1    5    5    0    0  0.16601993105E+03 -0.39837637813E+03  0.10579027345E+04  0.11425517720E+04  0.00000000000E+00 0.  1.
        -11    1    5    5    0    0  0.37936840183E+02 -0.83607865896E+02  0.36236805728E+03  0.37381825534E+03  0.00000000000E+00 0. -1.
          3    1    6    6  503    0  0.11672880764E+03  0.19512795159E+03  0.98591151269E+02  0.24783209464E+03  0.00000000000E+00 0. -1.
         -3    1    6    6    0  503 -0.91700527944E+01  0.39254111583E+02 -0.61731413819E+01  0.40780912434E+02  0.00000000000E+00 0.  1.
<mgrwt>
<rscale>  0 0.16088148E+04</rscale>
<asrwt>0</asrwt>
<pdfrwt beam="1">  1        2 0.28663117E+00 0.16088148E+04</pdfrwt>
<pdfrwt beam="2">  1       -1 0.53432065E-01 0.16088148E+04</pdfrwt>
<totfact> 0.30705759E+01</totfact>
</mgrwt>
</event>
<event>
12    6  0.1402540E-007  0.1972147E+04  0.7818608E-02  0.8619755E-01
         -1   -1    0    0    0  501 -0.00000000000E+00  0.00000000000E+00  0.44655787757E+03  0.44655787757E+03  0.00000000000E+00 0.  1.
          2   -1    0    0  501    0  0.00000000000E+00 -0.00000000000E+00 -0.21774132961E+04  0.21774132961E+04  0.00000000000E+00 0. -1.
         24    2    1    2    0    0 -0.69464959915E+03 -0.35075187997E+03 -0.74614459428E+03  0.10811092788E+04  0.80626114375E+02 0.  0.
        254    2    1    2    0    0  0.69464959915E+03  0.35075187997E+03 -0.98471082426E+03  0.15428618948E+04  0.89733074852E+03 0.  0.
         23    2    4    4    0    0 -0.10478047515E+03  0.34593108434E+03 -0.22826545018E+03  0.43857900462E+03  0.97975325818E+02 0.  0.
         23    2    4    4    0    0  0.79943007430E+03  0.48207956372E+01 -0.75644537408E+03  0.11042828902E+04  0.90107790449E+02 0.  0.
          2    1    3    3  502    0 -0.13600551647E+03 -0.35327882465E+02 -0.14546020932E+03  0.20224794754E+03  0.00000000000E+00 0. -1.
         -1    1    3    3    0  502 -0.55864408269E+03 -0.31542399751E+03 -0.60068438496E+03  0.87886133130E+03  0.00000000000E+00 0.  1.
         11    1    5    5    0    0 -0.30435789669E+02  0.25513976809E+03 -0.16330039336E+03  0.30444976108E+03  0.00000000000E+00 0. -1.
        -11    1    5    5    0    0 -0.74344685479E+02  0.90791316249E+02 -0.64965056825E+02  0.13412924354E+03  0.00000000000E+00 0.  1.
          4    1    6    6  503    0  0.47390437104E+02 -0.68208174487E+01 -0.77171409806E+02  0.90817418874E+02  0.00000000000E+00 0. -1.
         -4    1    6    6    0  503  0.75203963720E+03  0.11641613086E+02 -0.67927396428E+03  0.10134654713E+04  0.00000000000E+00 0.  1.
<mgrwt>
<rscale>  0 0.19721471E+04</rscale>
<asrwt>0</asrwt>
<pdfrwt beam="1">  1        2 0.33498665E+00 0.19721471E+04</pdfrwt>
<pdfrwt beam="2">  1       -1 0.68701214E-01 0.19721471E+04</pdfrwt>
<totfact> 0.12086265E+01</totfact>
</mgrwt>
</event>
<event>
12    6  0.1402540E-007  0.1996253E+04  0.7818608E-02  0.8608375E-01
          2   -1    0    0  501    0  0.00000000000E+00  0.00000000000E+00  0.14227275688E+04  0.14227275688E+04  0.00000000000E+00 0. -1.
         -1   -1    0    0    0  501 -0.00000000000E+00 -0.00000000000E+00 -0.70024394795E+03  0.70024394795E+03  0.00000000000E+00 0.  1.
         24    2    1    2    0    0 -0.58648014581E+03  0.20953271770E+03  0.80962436813E+03  0.10245554434E+04  0.79745332150E+02 0.  0.
        254    2    1    2    0    0  0.58648014581E+03 -0.20953271770E+03 -0.87140747290E+02  0.10984160733E+04  0.90058949530E+03 0.  0.
         23    2    4    4    0    0  0.58299724867E+03 -0.38395289149E+03 -0.33697483933E+03  0.78041779924E+03  0.90522285536E+02 0.  0.
         23    2    4    4    0    0  0.34828971347E+01  0.17442017379E+03  0.24983409204E+03  0.31799827407E+03  0.90946694090E+02 0.  0.
          2    1    3    3  502    0 -0.29288217402E+03  0.10883272230E+03  0.47087450630E+03  0.56510824625E+03  0.00000000000E+00 0. -1.
         -1    1    3    3    0  502 -0.29359797179E+03  0.10069999540E+03  0.33874986183E+03  0.45944719719E+03  0.00000000000E+00 0.  1.
         11    1    5    5    0    0  0.11440517772E+03 -0.39732728817E+02 -0.76961019339E+02  0.14349297170E+03  0.00000000000E+00 0.  1.
        -11    1    5    5    0    0  0.46859207095E+03 -0.34422016267E+03 -0.26001381999E+03  0.63692482754E+03  0.00000000000E+00 0. -1.
          4    1    6    6  503    0 -0.11438541993E+02  0.12921270318E+03  0.10932340834E+03  0.16964188904E+03  0.00000000000E+00 0. -1.
         -4    1    6    6    0  503  0.14921439127E+02  0.45207470613E+02  0.14051068370E+03  0.14835638503E+03  0.00000000000E+00 0.  1.
<mgrwt>
<rscale>  0 0.19962529E+04</rscale>
<asrwt>0</asrwt>
<pdfrwt beam="1">  1        2 0.21888116E+00 0.19962529E+04</pdfrwt>
<pdfrwt beam="2">  1       -1 0.10772984E+00 0.19962529E+04</pdfrwt>
<totfact> 0.11923949E+01</totfact>
</mgrwt>
</event>
<event>
12    6  0.1402540E-007  0.2229455E+04  0.7818608E-02  0.8506267E-01
         -1   -1    0    0    0  501 -0.00000000000E+00  0.00000000000E+00  0.69760887821E+03  0.69760887821E+03  0.00000000000E+00 0.  1.
          2   -1    0    0  501    0  0.00000000000E+00 -0.00000000000E+00 -0.17812523282E+04  0.17812523282E+04  0.00000000000E+00 0. -1.
         24    2    1    2    0    0  0.12751029002E+03 -0.64249693463E+03  0.28226192726E+03  0.71763788578E+03  0.79190621018E+02 0.  0.
        254    2    1    2    0    0 -0.12751029002E+03  0.64249693463E+03 -0.13659053772E+04  0.17612233206E+04  0.89841465954E+03 0.  0.
         23    2    4    4    0    0 -0.21983721881E+03  0.70009246915E+03 -0.52073167121E+03  0.90428274469E+03  0.90044104806E+02 0.  0.
         23    2    4    4    0    0  0.92326928794E+02 -0.57595534521E+02 -0.84517370603E+03  0.85694057593E+03  0.90482318376E+02 0.  0.
          2    1    3    3  502    0  0.13347978745E+03 -0.53360538955E+03  0.22311043661E+03  0.59357378003E+03  0.00000000000E+00 0. -1.
         -1    1    3    3    0  502 -0.59694974332E+01 -0.10889154508E+03  0.59151490647E+02  0.12406410575E+03  0.00000000000E+00 0.  1.
         11    1    5    5    0    0 -0.13831529146E+03  0.50592002320E+03 -0.32659022649E+03  0.61785707552E+03  0.00000000000E+00 0.  1.
        -11    1    5    5    0    0 -0.81521927348E+02  0.19417244595E+03 -0.19414144471E+03  0.28642566917E+03  0.00000000000E+00 0. -1.
          4    1    6    6  503    0 -0.46037771571E+00 -0.40421285401E+02 -0.14844034150E+03  0.15384611547E+03  0.00000000000E+00 0. -1.
         -4    1    6    6    0  503  0.92787306510E+02 -0.17174249120E+02 -0.69673336452E+03  0.70309446046E+03  0.00000000000E+00 0.  1.
<mgrwt>
<rscale>  0 0.22294550E+04</rscale>
<asrwt>0</asrwt>
<pdfrwt beam="1">  1        2 0.27403882E+00 0.22294550E+04</pdfrwt>
<pdfrwt beam="2">  1       -1 0.10732444E+00 0.22294550E+04</pdfrwt>
<totfact> 0.74211413E+00</totfact>
</mgrwt>
</event>
<event>
12    6  0.1402540E-007  0.2055836E+04  0.7818608E-02  0.8580952E-01
          2   -1    0    0  501    0  0.00000000000E+00  0.00000000000E+00  0.13018109499E+04  0.13018109499E+04  0.00000000000E+00 0. -1.
         -1   -1    0    0    0  501 -0.00000000000E+00 -0.00000000000E+00 -0.81165019749E+03  0.81165019749E+03  0.00000000000E+00 0.  1.
         24    2    1    2    0    0  0.68770391865E+03 -0.33184344754E+03  0.52983090010E+03  0.93186543294E+03  0.67791216210E+02 0.  0.
        254    2    1    2    0    0 -0.68770391865E+03  0.33184344754E+03 -0.39670147659E+02  0.11815957145E+04  0.90085401617E+03 0.  0.
         23    2    4    4    0    0 -0.16300232617E+02 -0.10657629765E+03 -0.30184227755E+03  0.33328577715E+03  0.91358874405E+02 0.  0.
         23    2    4    4    0    0 -0.67140368604E+03  0.43841974519E+03  0.26217212989E+03  0.84830993732E+03  0.88886115209E+02 0.  0.
          2    1    3    3  502    0  0.35645184843E+03 -0.20596055836E+03  0.26721575789E+03  0.49079724236E+03  0.00000000000E+00 0. -1.
         -1    1    3    3    0  502  0.33125207022E+03 -0.12588288918E+03  0.26261514222E+03  0.44106819057E+03  0.00000000000E+00 0.  1.
         11    1    5    5    0    0  0.14700204398E+02 -0.28700953388E+02 -0.17175531930E+02  0.36535457186E+02  0.00000000000E+00 0.  1.
        -11    1    5    5    0    0 -0.31000437015E+02 -0.77875344262E+02 -0.28466674562E+03  0.29675031997E+03  0.00000000000E+00 0. -1.
          1    1    6    6  503    0 -0.32625992131E+03  0.26371367416E+03  0.15018176198E+03  0.44558388640E+03  0.00000000000E+00 0. -1.
         -1    1    6    6    0  503 -0.34514376473E+03  0.17470607103E+03  0.11199036791E+03  0.40272605092E+03  0.00000000000E+00 0.  1.
<mgrwt>
<rscale>  0 0.20558357E+04</rscale>
<asrwt>0</asrwt>
<pdfrwt beam="1">  1        2 0.20027861E+00 0.20558357E+04</pdfrwt>
<pdfrwt beam="2">  1       -1 0.12486926E+00 0.20558357E+04</pdfrwt>
<totfact> 0.97553046E+00</totfact>
</mgrwt>
</event>
<event>
12    6  0.1402540E-007  0.3404721E+04  0.7818608E-02  0.8136749E-01
          2   -1    0    0  501    0  0.00000000000E+00  0.00000000000E+00  0.14755721751E+04  0.14755721751E+04  0.00000000000E+00 0. -1.
         -3   -1    0    0    0  501 -0.00000000000E+00 -0.00000000000E+00 -0.19640045392E+04  0.19640045392E+04  0.00000000000E+00 0.  1.
         24    2    1    2    0    0 -0.58101088306E+03  0.14199557105E+04 -0.61843286013E+03  0.16561511967E+04  0.80806668806E+02 0.  0.
        254    2    1    2    0    0  0.58101088306E+03 -0.14199557105E+04  0.13000049597E+03  0.17834255176E+04  0.89992143088E+03 0.  0.
         23    2    4    4    0    0  0.10146201548E+03 -0.11016982475E+04  0.34425130420E+03  0.11626051761E+04  0.95437235978E+02 0.  0.
         23    2    4    4    0    0  0.47954886758E+03 -0.31825746305E+03 -0.21425080823E+03  0.62082034147E+03  0.90882112537E+02 0.  0.
          4    1    3    3  502    0 -0.66963534613E+01  0.30470476050E+01 -0.15905146950E+01  0.75269772008E+01  0.00000000000E+00 0. -1.
         -3    1    3    3    0  502 -0.57431452960E+03  0.14169086629E+04 -0.61684234544E+03  0.16486242195E+04  0.00000000000E+00 0.  1.
         11    1    5    5    0    0 -0.23407668157E+01 -0.13802551795E+02  0.16583936816E+02  0.21702916524E+02  0.00000000000E+00 0.  1.
        -11    1    5    5    0    0  0.10380278230E+03 -0.10878956957E+04  0.32766736738E+03  0.11409022596E+04  0.00000000000E+00 0. -1.
          2    1    6    6  503    0  0.47098439364E+03 -0.28999441801E+03 -0.20171381992E+03  0.58873723059E+03  0.00000000000E+00 0. -1.
         -2    1    6    6    0  503  0.85644739388E+01 -0.28263045031E+02 -0.12536988304E+02  0.32083110884E+02  0.00000000000E+00 0.  1.
<mgrwt>
<rscale>  0 0.34047205E+04</rscale>
<asrwt>0</asrwt>
<pdfrwt beam="1">  1        2 0.22701110E+00 0.34047205E+04</pdfrwt>
<pdfrwt beam="2">  1       -3 0.30215454E+00 0.34047205E+04</pdfrwt>
<totfact> 0.25162766E-01</totfact>
</mgrwt>
</event>
<event>
12    6  0.1402540E-007  0.2527601E+04  0.7818608E-02  0.8393218E-01
          2   -1    0    0  501    0  0.00000000000E+00  0.00000000000E+00  0.11404987974E+04  0.11404987974E+04  0.00000000000E+00 0. -1.
         -1   -1    0    0    0  501 -0.00000000000E+00 -0.00000000000E+00 -0.14004327427E+04  0.14004327427E+04  0.00000000000E+00 0.  1.
         24    2    1    2    0    0  0.68549477853E+03 -0.76539087928E+03 -0.51353104240E+03  0.11514581038E+04  0.80095840936E+02 0.  0.
        254    2    1    2    0    0 -0.68549477853E+03  0.76539087928E+03  0.25359709711E+03  0.13894734363E+04  0.90033252354E+03 0.  0.
         23    2    4    4    0    0  0.43201364579E+01 -0.21792428114E+02 -0.21852151687E+03  0.23761182214E+03  0.90631954548E+02 0.  0.
         23    2    4    4    0    0 -0.68981491499E+03  0.78718330739E+03  0.47211861397E+03  0.11518616141E+04  0.91580653278E+02 0.  0.
          4    1    3    3  502    0  0.48322393931E+03 -0.58723214868E+03 -0.39580521194E+03  0.85732650593E+03  0.00000000000E+00 0. -1.
         -3    1    3    3    0  502  0.20227083922E+03 -0.17815873060E+03 -0.11772583046E+03  0.29413159784E+03  0.00000000000E+00 0.  1.
         11    1    5    5    0    0  0.23705829451E+02  0.73465861923E+01 -0.19226250145E+03  0.19385770076E+03  0.00000000000E+00 0. -1.
        -11    1    5    5    0    0 -0.19385692993E+02 -0.29139014306E+02 -0.26259015419E+02  0.43754121387E+02  0.00000000000E+00 0.  1.
          1    1    6    6  503    0 -0.21297443907E+03  0.18660084901E+03  0.10956568759E+03  0.30361592258E+03  0.00000000000E+00 0. -1.
         -1    1    6    6    0  503 -0.47684047592E+03  0.60058245839E+03  0.36255292638E+03  0.84824569155E+03  0.00000000000E+00 0.  1.
<mgrwt>
<rscale>  0 0.25276011E+04</rscale>
<asrwt>0</asrwt>
<pdfrwt beam="1">  1        2 0.17546135E+00 0.25276011E+04</pdfrwt>
<pdfrwt beam="2">  1       -1 0.21545119E+00 0.25276011E+04</pdfrwt>
<totfact> 0.24640548E+00</totfact>
</mgrwt>
</event>
<event>
12    6  0.1402540E-007  0.2594169E+04  0.7818608E-02  0.8370184E-01
         -1   -1    0    0    0  501 -0.00000000000E+00  0.00000000000E+00  0.15871549633E+04  0.15871549633E+04  0.00000000000E+00 0.  1.
          2   -1    0    0  501    0  0.00000000000E+00 -0.00000000000E+00 -0.10600280851E+04  0.10600280851E+04  0.00000000000E+00 0. -1.
         24    2    1    2    0    0 -0.98967999342E+02 -0.97653533830E+03 -0.35788282128E+03  0.10474544536E+04  0.75264778345E+02 0.  0.
        254    2    1    2    0    0  0.98967999342E+02  0.97653533830E+03  0.88500969946E+03  0.15997285948E+04  0.90137310649E+03 0.  0.
         23    2    4    4    0    0  0.10767039604E+03 -0.10996127287E+03  0.33323630283E+03  0.37783521159E+03  0.89602555071E+02 0.  0.
         23    2    4    4    0    0 -0.87023967003E+01  0.10864966112E+04  0.55177339663E+03  0.12218933832E+04  0.89548539748E+02 0.  0.
          4    1    3    3  502    0 -0.25489928383E+02 -0.19240738261E+03 -0.10267603358E+03  0.21957391740E+03  0.00000000000E+00 0. -1.
         -3    1    3    3    0  502 -0.73478070959E+02 -0.78412795569E+03 -0.25520678770E+03  0.82788053624E+03  0.00000000000E+00 0.  1.
         11    1    5    5    0    0  0.77889080473E+02 -0.50167972886E+02  0.10502888917E+03  0.14005214001E+03  0.00000000000E+00 0. -1.
        -11    1    5    5    0    0  0.29781315570E+02 -0.59793299984E+02  0.22820741366E+03  0.23778307158E+03  0.00000000000E+00 0.  1.
          1    1    6    6  503    0 -0.16475057063E+02  0.71703370189E+03  0.40960569984E+03  0.82594526846E+03  0.00000000000E+00 0. -1.
         -1    1    6    6    0  503  0.77726603629E+01  0.36946290927E+03  0.14216769679E+03  0.39594811477E+03  0.00000000000E+00 0.  1.
<mgrwt>
<rscale>  0 0.25941695E+04</rscale>
<asrwt>0</asrwt>
<pdfrwt beam="1">  1        2 0.16308124E+00 0.25941695E+04</pdfrwt>
<pdfrwt beam="2">  1       -1 0.24417769E+00 0.25941695E+04</pdfrwt>
<totfact> 0.17713458E+00</totfact>
</mgrwt>
</event>
<event>
12    6  0.1402540E-007  0.2167684E+04  0.7818608E-02  0.8532001E-01
         -1   -1    0    0    0  501 -0.00000000000E+00  0.00000000000E+00  0.15029544175E+04  0.15029544175E+04  0.00000000000E+00 0.  1.
          2   -1    0    0  501    0  0.00000000000E+00 -0.00000000000E+00 -0.78160257324E+03  0.78160257324E+03  0.00000000000E+00 0. -1.
         24    2    1    2    0    0  0.42596916925E+03  0.43686201849E+03  0.98951511671E+03  0.11651603479E+04  0.78487665711E+02 0.  0.
        254    2    1    2    0    0 -0.42596916925E+03 -0.43686201849E+03 -0.26816327247E+03  0.11193966429E+04  0.89935485043E+03 0.  0.
         23    2    4    4    0    0  0.20865588161E+03 -0.29059569867E+03  0.76584055189E+02  0.37721051246E+03  0.91866839419E+02 0.  0.
         23    2    4    4    0    0 -0.63462505086E+03 -0.14626631982E+03 -0.34474732766E+03  0.74218613040E+03  0.88581830725E+02 0.  0.
          4    1    3    3  502    0  0.14424940059E+03  0.18254600431E+03  0.32141652963E+03  0.39678649016E+03  0.00000000000E+00 0. -1.
         -3    1    3    3    0  502  0.28171976866E+03  0.25431601419E+03  0.66809858708E+03  0.76837385769E+03  0.00000000000E+00 0.  1.
         11    1    5    5    0    0  0.16359137526E+03 -0.16453884505E+03  0.23541874551E+02  0.23321532850E+03  0.00000000000E+00 0. -1.
        -11    1    5    5    0    0  0.45064506352E+02 -0.12605685362E+03  0.53042180638E+02  0.14399518396E+03  0.00000000000E+00 0.  1.
          4    1    6    6  503    0 -0.60354402685E+03 -0.12077958762E+03 -0.31056788991E+03  0.68942404612E+03  0.00000000000E+00 0. -1.
         -4    1    6    6    0  503 -0.31081024005E+02 -0.25486732199E+02 -0.34179437757E+02  0.52762084272E+02  0.00000000000E+00 0.  1.
<mgrwt>
<rscale>  0 0.21676836E+04</rscale>
<asrwt>0</asrwt>
<pdfrwt beam="1">  1        2 0.12024655E+00 0.21676836E+04</pdfrwt>
<pdfrwt beam="2">  1       -1 0.23122376E+00 0.21676836E+04</pdfrwt>
<totfact> 0.34415719E+00</totfact>
</mgrwt>
</event>
<event>
12    6  0.1402540E-007  0.1790009E+04  0.7818608E-02  0.8711631E-01
         -1   -1    0    0    0  501 -0.00000000000E+00  0.00000000000E+00  0.87242337056E+03  0.87242337056E+03  0.00000000000E+00 0.  1.
          2   -1    0    0  501    0  0.00000000000E+00 -0.00000000000E+00 -0.91817005212E+03  0.91817005212E+03  0.00000000000E+00 0. -1.
         24    2    1    2    0    0  0.39605552423E+03 -0.11062731521E+03 -0.53914339134E+03  0.68269371077E+03  0.79351907054E+02 0.  0.
        254    2    1    2    0    0 -0.39605552423E+03  0.11062731521E+03  0.49339670977E+03  0.11078997119E+04  0.90271982215E+03 0.  0.
         23    2    4    4    0    0 -0.28992436705E+03  0.39155507387E+03 -0.29394252499E+02  0.49766551401E+03  0.97136127556E+02 0.  0.
         23    2    4    4    0    0 -0.10613115718E+03 -0.28092775866E+03  0.52279096227E+03  0.61023419790E+03  0.94292936899E+02 0.  0.
          4    1    3    3  502    0  0.31666588948E+03 -0.57731395953E+02 -0.43925993559E+03  0.54457275974E+03  0.00000000000E+00 0. -1.
         -3    1    3    3    0  502  0.79389634746E+02 -0.52895919255E+02 -0.99883455748E+02  0.13812095102E+03  0.00000000000E+00 0.  1.
         11    1    5    5    0    0 -0.23861587455E+03  0.31767823172E+03  0.14507497803E+02  0.39757698876E+03  0.00000000000E+00 0. -1.
        -11    1    5    5    0    0 -0.51308492493E+02  0.73876842150E+02 -0.43901750302E+02  0.10008852525E+03  0.00000000000E+00 0.  1.
          2    1    6    6  503    0 -0.10938803599E+03 -0.26546127522E+03  0.43619964616E+03  0.52221218137E+03  0.00000000000E+00 0. -1.
         -2    1    6    6    0  503  0.32568788101E+01 -0.15466483446E+02  0.86591316108E+02  0.88022016536E+02  0.00000000000E+00 0.  1.
<mgrwt>
<rscale>  0 0.17900090E+04</rscale>
<asrwt>0</asrwt>
<pdfrwt beam="1">  1        2 0.14125693E+00 0.17900090E+04</pdfrwt>
<pdfrwt beam="2">  1       -1 0.13421898E+00 0.17900090E+04</pdfrwt>
<totfact> 0.14371247E+01</totfact>
</mgrwt>
</event>
<event>
12    6  0.1402540E-007  0.1459928E+04  0.7818608E-02  0.8911546E-01
         -1   -1    0    0    0  501 -0.00000000000E+00  0.00000000000E+00  0.16019917895E+03  0.16019917895E+03  0.00000000000E+00 0.  1.
          2   -1    0    0  501    0  0.00000000000E+00 -0.00000000000E+00 -0.33261557600E+04  0.33261557600E+04  0.00000000000E+00 0. -1.
         24    2    1    2    0    0  0.32468587546E+03 -0.21294576070E+03 -0.45411376414E+03  0.60279637490E+03  0.79858275029E+02 0.  0.
        254    2    1    2    0    0 -0.32468587546E+03  0.21294576070E+03 -0.27118428169E+04  0.28835585641E+04  0.90002872951E+03 0.  0.
         23    2    4    4    0    0  0.27447257883E+03  0.21885322221E+03 -0.12459877945E+04  0.12973071259E+04  0.85371339102E+02 0.  0.
         23    2    4    4    0    0 -0.59915845429E+03 -0.59074615148E+01 -0.14658550224E+04  0.15862514381E+04  0.91852744962E+02 0.  0.
          2    1    3    3  502    0  0.10462037338E+03 -0.26910461908E+02 -0.13298457214E+03  0.17133152632E+03  0.00000000000E+00 0. -1.
         -1    1    3    3    0  502  0.22006550208E+03 -0.18603529879E+03 -0.32112919201E+03  0.43146484858E+03  0.00000000000E+00 0.  1.
         11    1    5    5    0    0  0.12055430437E+03  0.71973708411E+02 -0.63498775219E+03  0.65032530355E+03  0.00000000000E+00 0. -1.
        -11    1    5    5    0    0  0.15391827446E+03  0.14687951380E+03 -0.61100004231E+03  0.64698182237E+03  0.00000000000E+00 0.  1.
          3    1    6    6  503    0 -0.43632101982E+02 -0.11180236845E+01 -0.56796973475E+02  0.71630346197E+02  0.00000000000E+00 0. -1.
         -3    1    6    6    0  503 -0.55552635231E+03 -0.47894378303E+01 -0.14090580489E+04  0.15146210919E+04  0.00000000000E+00 0.  1.
<mgrwt>
<rscale>  0 0.14599280E+04</rscale>
<asrwt>0</asrwt>
<pdfrwt beam="1">  1        2 0.51171626E+00 0.14599280E+04</pdfrwt>
<pdfrwt beam="2">  1       -1 0.24646028E-01 0.14599280E+04</pdfrwt>
<totfact> 0.17159991E+01</totfact>
</mgrwt>
</event>
<event>
12    6  0.1402540E-007  0.1602837E+04  0.7818608E-02  0.8818807E-01
         -1   -1    0    0    0  501 -0.00000000000E+00  0.00000000000E+00  0.71593195901E+03  0.71593195901E+03  0.00000000000E+00 0.  1.
          2   -1    0    0  501    0  0.00000000000E+00 -0.00000000000E+00 -0.89711217407E+03  0.89711217407E+03  0.00000000000E+00 0. -1.
         24    2    1    2    0    0  0.23033207541E+03  0.49354593819E+03 -0.93395839050E+02  0.55816837079E+03  0.78668223191E+02 0.  0.
        254    2    1    2    0    0 -0.23033207541E+03 -0.49354593819E+03 -0.87784376015E+02  0.10548757623E+04  0.89911974682E+03 0.  0.
         23    2    4    4    0    0 -0.11740873851E+03  0.19087588183E+03  0.18632570112E+03  0.30361390502E+03  0.85121808488E+02 0.  0.
         23    2    4    4    0    0 -0.11292333690E+03 -0.68442182002E+03 -0.27411007713E+03  0.75126185726E+03  0.89850631893E+02 0.  0.
          2    1    3    3  502    0  0.19082885747E+03  0.39161322103E+03 -0.10536762132E+03  0.44819516213E+03  0.00000000000E+00 0. -1.
         -1    1    3    3    0  502  0.39503217935E+02  0.10193271715E+03  0.11971782269E+02  0.10997320867E+03  0.00000000000E+00 0.  1.
         11    1    5    5    0    0 -0.10365202748E+03  0.98655189530E+02  0.13710982540E+03  0.19818096135E+03  0.00000000000E+00 0.  1.
        -11    1    5    5    0    0 -0.13756711026E+02  0.92220692305E+02  0.49215875723E+02  0.10543294367E+03  0.00000000000E+00 0. -1.
          4    1    6    6  503    0 -0.12831996343E+03 -0.59169042061E+03 -0.23938736966E+03  0.65105290078E+03  0.00000000000E+00 0. -1.
         -4    1    6    6    0  503  0.15396626534E+02 -0.92731399408E+02 -0.34722707474E+02  0.10020895648E+03  0.00000000000E+00 0.  1.
<mgrwt>
<rscale>  0 0.16028366E+04</rscale>
<asrwt>0</asrwt>
<pdfrwt beam="1">  1        2 0.13801726E+00 0.16028366E+04</pdfrwt>
<pdfrwt beam="2">  1       -1 0.11014338E+00 0.16028366E+04</pdfrwt>
<totfact> 0.24526487E+01</totfact>
</mgrwt>
</event>
<event>
12    6  0.1402540E-007  0.2219389E+04  0.7818608E-02  0.8510401E-01
          2   -1    0    0  501    0  0.00000000000E+00  0.00000000000E+00  0.92721888855E+03  0.92721888855E+03  0.00000000000E+00 0. -1.
         -1   -1    0    0    0  501 -0.00000000000E+00 -0.00000000000E+00 -0.13280813702E+04  0.13280813702E+04  0.00000000000E+00 0.  1.
         24    2    1    2    0    0 -0.19302527682E+03 -0.70509031917E+03  0.40784815872E+03  0.84146540513E+03  0.85514862902E+02 0.  0.
        254    2    1    2    0    0  0.19302527682E+03  0.70509031917E+03 -0.80871064040E+03  0.14138348536E+04  0.90028049952E+03 0.  0.
         23    2    4    4    0    0 -0.25226959910E+03  0.62288797772E+03 -0.60408419052E+03  0.90852376000E+03  0.94171810140E+02 0.  0.
         23    2    4    4    0    0  0.44529487592E+03  0.82202341450E+02 -0.20462644987E+03  0.50531109364E+03  0.91774538457E+02 0.  0.
          4    1    3    3  502    0 -0.13322671055E+03 -0.35508887768E+03  0.23906255799E+03  0.44831726945E+03  0.00000000000E+00 0. -1.
         -3    1    3    3    0  502 -0.59798566274E+02 -0.35000144148E+03  0.16878560074E+03  0.39314813568E+03  0.00000000000E+00 0.  1.
         11    1    5    5    0    0 -0.18342433276E+03  0.33376772418E+03 -0.32113489713E+03  0.49816965153E+03  0.00000000000E+00 0.  1.
        -11    1    5    5    0    0 -0.68845266342E+02  0.28912025353E+03 -0.28294929340E+03  0.41035410847E+03  0.00000000000E+00 0. -1.
          3    1    6    6  503    0  0.27933616434E+03  0.50933984057E+02 -0.78685436424E+02  0.29464276904E+03  0.00000000000E+00 0. -1.
         -3    1    6    6    0  503  0.16595871158E+03  0.31268357393E+02 -0.12594101345E+03  0.21066832460E+03  0.00000000000E+00 0.  1.
<mgrwt>
<rscale>  0 0.22193892E+04</rscale>
<asrwt>0</asrwt>
<pdfrwt beam="1">  1        2 0.14264906E+00 0.22193892E+04</pdfrwt>
<pdfrwt beam="2">  1       -1 0.20432021E+00 0.22193892E+04</pdfrwt>
<totfact> 0.41124689E+00</totfact>
</mgrwt>
</event>
<event>
12    6  0.1402540E-007  0.2245035E+04  0.7818608E-02  0.8499914E-01
         -1   -1    0    0    0  501 -0.00000000000E+00  0.00000000000E+00  0.14110734402E+04  0.14110734402E+04  0.00000000000E+00 0.  1.
          2   -1    0    0  501    0  0.00000000000E+00 -0.00000000000E+00 -0.89296963012E+03  0.89296963012E+03  0.00000000000E+00 0. -1.
         24    2    1    2    0    0  0.25470215665E+03 -0.73172706990E+03  0.77159401902E+03  0.10961885316E+04  0.77293422957E+02 0.  0.
        254    2    1    2    0    0 -0.25470215665E+03  0.73172706990E+03 -0.25349020896E+03  0.12078545387E+04  0.89126741619E+03 0.  0.
         23    2    4    4    0    0 -0.43456367514E+03  0.23843156709E+02 -0.99934988106E+02  0.45604940926E+03  0.92628170506E+02 0.  0.
         23    2    4    4    0    0  0.17986151848E+03  0.70788391319E+03 -0.15355522085E+03  0.75180512942E+03  0.90454112087E+02 0.  0.
          2    1    3    3  502    0  0.13452470833E+03 -0.49400376025E+03  0.49380619901E+03  0.71132353713E+03  0.00000000000E+00 0. -1.
         -1    1    3    3    0  502  0.12017744832E+03 -0.23772330964E+03  0.27778782001E+03  0.38486499448E+03  0.00000000000E+00 0.  1.
         11    1    5    5    0    0 -0.88622307494E+01 -0.18400881563E+01  0.12093232706E+02  0.15105341292E+02  0.00000000000E+00 0. -1.
        -11    1    5    5    0    0 -0.42570144439E+03  0.25683244866E+02 -0.11202822081E+03  0.44094406797E+03  0.00000000000E+00 0.  1.
          2    1    6    6  503    0  0.10907432584E+02  0.19620096224E+03 -0.54494129494E+02  0.20392008194E+03  0.00000000000E+00 0. -1.
         -2    1    6    6    0  503  0.16895408590E+03  0.51168295095E+03 -0.99061091359E+02  0.54788504748E+03  0.00000000000E+00 0.  1.
<mgrwt>
<rscale>  0 0.22450352E+04</rscale>
<asrwt>0</asrwt>
<pdfrwt beam="1">  1        2 0.13737994E+00 0.22450352E+04</pdfrwt>
<pdfrwt beam="2">  1       -1 0.21708822E+00 0.22450352E+04</pdfrwt>
<totfact> 0.35449252E+00</totfact>
</mgrwt>
</event>
<event>
12    6  0.1402540E-007  0.1212017E+04  0.7818608E-02  0.9102403E-01
         -1   -1    0    0    0  501 -0.00000000000E+00  0.00000000000E+00  0.63903394364E+03  0.63903394364E+03  0.00000000000E+00 0.  1.
          2   -1    0    0  501    0  0.00000000000E+00 -0.00000000000E+00 -0.57468988055E+03  0.57468988055E+03  0.00000000000E+00 0. -1.
         24    2    1    2    0    0  0.89614457861E+02 -0.13960832200E+03 -0.19396108633E+03  0.26736516566E+03  0.79636638332E+02 0.  0.
        254    2    1    2    0    0 -0.89614457861E+02  0.13960832200E+03  0.25830514942E+03  0.94635865853E+03  0.89518262144E+03 0.  0.
         23    2    4    4    0    0  0.14132367344E+03 -0.22249948543E+03  0.39793149936E+03  0.48552895893E+03  0.88940935921E+02 0.  0.
         23    2    4    4    0    0 -0.23093813130E+03  0.36210780743E+03 -0.13962634994E+03  0.46082969960E+03  0.91727911491E+02 0.  0.
          2    1    3    3  502    0  0.26330362101E+02 -0.85212152988E+02 -0.14608187785E+03  0.17115581796E+03  0.00000000000E+00 0. -1.
         -1    1    3    3    0  502  0.63284095760E+02 -0.54396169010E+02 -0.47879208488E+02  0.96209347699E+02  0.00000000000E+00 0.  1.
         11    1    5    5    0    0 -0.31227613484E+00 -0.53292199364E+01  0.56797569669E+02  0.57047892352E+02  0.00000000000E+00 0.  1.
        -11    1    5    5    0    0  0.14163594957E+03 -0.21717026550E+03  0.34113392969E+03  0.42848106658E+03  0.00000000000E+00 0. -1.
          3    1    6    6  503    0 -0.24769697076E+02  0.10751352073E+03 -0.20364012911E+02  0.11219352947E+03  0.00000000000E+00 0. -1.
         -3    1    6    6    0  503 -0.20616843422E+03  0.25459428671E+03 -0.11926233703E+03  0.34863617014E+03  0.00000000000E+00 0.  1.
<mgrwt>
<rscale>  0 0.12120171E+04</rscale>
<asrwt>0</asrwt>
<pdfrwt beam="1">  1        2 0.88413828E-01 0.12120171E+04</pdfrwt>
<pdfrwt beam="2">  1       -1 0.98312914E-01 0.12120171E+04</pdfrwt>
<totfact> 0.58369913E+01</totfact>
</mgrwt>
</event>
<event>
12    6  0.1402540E-007  0.1924766E+04  0.7818608E-02  0.8642626E-01
         -1   -1    0    0    0  501 -0.00000000000E+00  0.00000000000E+00  0.48552389557E+03  0.48552389557E+03  0.00000000000E+00 0.  1.
          2   -1    0    0  501    0  0.00000000000E+00 -0.00000000000E+00 -0.19075901043E+04  0.19075901043E+04  0.00000000000E+00 0. -1.
         24    2    1    2    0    0 -0.60643428812E+03  0.43150679584E+03 -0.44545837830E+03  0.87105708506E+03  0.79665663707E+02 0.  0.
        254    2    1    2    0    0  0.60643428812E+03 -0.43150679584E+03 -0.97660783047E+03  0.15220569149E+04  0.89940743651E+03 0.  0.
         23    2    4    4    0    0  0.21689100296E+03 -0.21575542967E+03  0.11555862381E+03  0.33919074547E+03  0.90024739279E+02 0.  0.
         23    2    4    4    0    0  0.38954328515E+03 -0.21575136618E+03 -0.10921664543E+04  0.11828661694E+04  0.89733983428E+02 0.  0.
          2    1    3    3  502    0 -0.44490005953E+03  0.34591054326E+03 -0.36424805063E+03  0.67101923169E+03  0.00000000000E+00 0. -1.
         -3    1    3    3    0  502 -0.16153422859E+03  0.85596252586E+02 -0.81210327671E+02  0.20003785338E+03  0.00000000000E+00 0.  1.
         11    1    5    5    0    0  0.14318632267E+03 -0.99150819747E+02  0.98784760552E+02  0.20022896137E+03  0.00000000000E+00 0. -1.
        -11    1    5    5    0    0  0.73704680293E+02 -0.11660460992E+03  0.16773863258E+02  0.13896178410E+03  0.00000000000E+00 0.  1.
          3    1    6    6  503    0  0.16469625531E+03 -0.98626646082E+02 -0.58802887859E+03  0.61857096107E+03  0.00000000000E+00 0. -1.
         -3    1    6    6    0  503  0.22484702985E+03 -0.11712472010E+03 -0.50413757569E+03  0.56429520830E+03  0.00000000000E+00 0.  1.
<mgrwt>
<rscale>  0 0.19247655E+04</rscale>
<asrwt>0</asrwt>
<pdfrwt beam="1">  1        2 0.29347540E+00 0.19247655E+04</pdfrwt>
<pdfrwt beam="2">  1       -1 0.74695984E-01 0.19247655E+04</pdfrwt>
<totfact> 0.14432455E+01</totfact>
</mgrwt>
</event>
<event>
12    6  0.1402540E-007  0.1476238E+04  0.7818608E-02  0.8900410E-01
          2   -1    0    0  501    0  0.00000000000E+00  0.00000000000E+00  0.22508389010E+04  0.22508389010E+04  0.00000000000E+00 0. -1.
         -1   -1    0    0    0  501 -0.00000000000E+00 -0.00000000000E+00 -0.24205167314E+03  0.24205167314E+03  0.00000000000E+00 0.  1.
         24    2    1    2    0    0 -0.25341171433E+03  0.36512244035E+03  0.43758941832E+03  0.62866925453E+03  0.78794918367E+02 0.  0.
        254    2    1    2    0    0  0.25341171433E+03 -0.36512244035E+03  0.15711978095E+04  0.18642213196E+04  0.89951469048E+03 0.  0.
         23    2    4    4    0    0  0.32410251472E+03 -0.88127464048E+02  0.15205194135E+04  0.15600941754E+04  0.95423579594E+02 0.  0.
         23    2    4    4    0    0 -0.70690800397E+02 -0.27699497631E+03  0.50678396052E+02  0.30412714415E+03  0.90562761802E+02 0.  0.
          4    1    3    3  502    0 -0.14747833663E+02  0.47180640215E+02  0.79539586189E+02  0.93648583438E+02  0.00000000000E+00 0. -1.
         -3    1    3    3    0  502 -0.23866388066E+03  0.31794180014E+03  0.35804983213E+03  0.53502067109E+03  0.00000000000E+00 0.  1.
         11    1    5    5    0    0  0.10766352130E+03 -0.75852269096E+02  0.62238586090E+03  0.63616755686E+03  0.00000000000E+00 0.  1.
        -11    1    5    5    0    0  0.21643899342E+03 -0.12275194952E+02  0.89813355256E+03  0.92392661858E+03  0.00000000000E+00 0. -1.
          1    1    6    6  503    0 -0.90967914542E+02 -0.21772134517E+03  0.28524073612E+02  0.23767912907E+03  0.00000000000E+00 0. -1.
         -1    1    6    6    0  503  0.20277114146E+02 -0.59273631136E+02  0.22154322440E+02  0.66448015086E+02  0.00000000000E+00 0.  1.
<mgrwt>
<rscale>  0 0.14762375E+04</rscale>
<asrwt>0</asrwt>
<pdfrwt beam="1">  1        2 0.34628289E+00 0.14762375E+04</pdfrwt>
<pdfrwt beam="2">  1       -1 0.37238720E-01 0.14762375E+04</pdfrwt>
<totfact> 0.37029424E+01</totfact>
</mgrwt>
</event>
<event>
12    6  0.1402540E-007  0.2630630E+04  0.7818608E-02  0.8357871E-01
          2   -1    0    0  501    0  0.00000000000E+00  0.00000000000E+00  0.13858738731E+04  0.13858738731E+04  0.00000000000E+00 0. -1.
         -3   -1    0    0    0  501 -0.00000000000E+00 -0.00000000000E+00 -0.12483485179E+04  0.12483485179E+04  0.00000000000E+00 0.  1.
         24    2    1    2    0    0  0.84855373677E+03 -0.13149613777E+03 -0.71985431761E+03  0.11234052394E+04  0.80711925386E+02 0.  0.
        254    2    1    2    0    0 -0.84855373677E+03  0.13149613777E+03  0.85737967280E+03  0.15108171517E+04  0.90007437693E+03 0.  0.
         23    2    4    4    0    0 -0.37601009474E+03 -0.37231089958E+03  0.47182432066E+03  0.71452739913E+03  0.89062995960E+02 0.  0.
         23    2    4    4    0    0 -0.47254364202E+03  0.50380703735E+03  0.38555535214E+03  0.79628975253E+03  0.91134054710E+02 0.  0.
          2    1    3    3  502    0  0.54021639049E+03 -0.49151216476E+02 -0.47746301983E+03  0.72264827263E+03  0.00000000000E+00 0. -1.
         -1    1    3    3    0  502  0.30833734628E+03 -0.82344921296E+02 -0.24239129778E+03  0.40075696677E+03  0.00000000000E+00 0.  1.
         11    1    5    5    0    0 -0.17126029891E+03 -0.11969615848E+03  0.15157261328E+03  0.25813081457E+03  0.00000000000E+00 0. -1.
        -11    1    5    5    0    0 -0.20474979584E+03 -0.25261474110E+03  0.32025170738E+03  0.45639658456E+03  0.00000000000E+00 0.  1.
          3    1    6    6  503    0 -0.31856004135E+03  0.33293140824E+03  0.30494447911E+03  0.55255312674E+03  0.00000000000E+00 0. -1.
         -3    1    6    6    0  503 -0.15398360067E+03  0.17087562911E+03  0.80610873032E+02  0.24373662579E+03  0.00000000000E+00 0.  1.
<mgrwt>
<rscale>  0 0.26306300E+04</rscale>
<asrwt>0</asrwt>
<pdfrwt beam="1">  1        2 0.21321137E+00 0.26306300E+04</pdfrwt>
<pdfrwt beam="2">  1       -3 0.19205362E+00 0.26306300E+04</pdfrwt>
<totfact> 0.13522297E+00</totfact>
</mgrwt>
</event>
<event>
12    6  0.1402540E-007  0.3352054E+04  0.7818608E-02  0.8149775E-01
          2   -1    0    0  501    0  0.00000000000E+00  0.00000000000E+00  0.27798870238E+04  0.27798870238E+04  0.00000000000E+00 0. -1.
         -3   -1    0    0    0  501 -0.00000000000E+00 -0.00000000000E+00 -0.10104965022E+04  0.10104965022E+04  0.00000000000E+00 0.  1.
         24    2    1    2    0    0 -0.66578307669E+03  0.13445393493E+04  0.36379017646E+03  0.15461500076E+04  0.84754861604E+02 0.  0.
        254    2    1    2    0    0  0.66578307669E+03 -0.13445393493E+04  0.14056003452E+04  0.22442335184E+04  0.89989920953E+03 0.  0.
         23    2    4    4    0    0  0.58911276623E+03 -0.25450089489E+03  0.44635198530E+03  0.78733041705E+03  0.93992201763E+02 0.  0.
         23    2    4    4    0    0  0.76670310454E+02 -0.10900384544E+04  0.95924835993E+03  0.14569031013E+04  0.91362256489E+02 0.  0.
          4    1    3    3  502    0 -0.43181058603E+03  0.90527795486E+03  0.28112727487E+03  0.10416434622E+04  0.00000000000E+00 0. -1.
         -3    1    3    3    0  502 -0.23397249065E+03  0.43926139446E+03  0.82662901588E+02  0.50450654539E+03  0.00000000000E+00 0.  1.
         11    1    5    5    0    0  0.19647535848E+03 -0.13351119013E+03  0.17251852582E+03  0.29358209436E+03  0.00000000000E+00 0.  1.
        -11    1    5    5    0    0  0.39263740775E+03 -0.12098970476E+03  0.27383345948E+03  0.49374832269E+03  0.00000000000E+00 0. -1.
          1    1    6    6  503    0  0.84197232690E+02 -0.87626125160E+03  0.80823089019E+03  0.11950565371E+04  0.00000000000E+00 0. -1.
         -1    1    6    6    0  503 -0.75269222363E+01 -0.21377720283E+03  0.15101746973E+03  0.26184656418E+03  0.00000000000E+00 0.  1.
<mgrwt>
<rscale>  0 0.33520538E+04</rscale>
<asrwt>0</asrwt>
<pdfrwt beam="1">  1        2 0.42767492E+00 0.33520538E+04</pdfrwt>
<pdfrwt beam="2">  1       -3 0.15546100E+00 0.33520538E+04</pdfrwt>
<totfact> 0.36946108E-01</totfact>
</mgrwt>
</event>
<event>
12    6  0.1402540E-007  0.2188206E+04  0.7818608E-02  0.8523353E-01
         -1   -1    0    0    0  501 -0.00000000000E+00  0.00000000000E+00  0.76046258526E+03  0.76046258526E+03  0.00000000000E+00 0.  1.
          2   -1    0    0  501    0  0.00000000000E+00 -0.00000000000E+00 -0.15741231445E+04  0.15741231445E+04  0.00000000000E+00 0. -1.
         24    2    1    2    0    0 -0.56127559908E+03  0.70277721145E+03 -0.46613695359E+03  0.10161566524E+04  0.79778290573E+02 0.  0.
        254    2    1    2    0    0  0.56127559908E+03 -0.70277721145E+03 -0.34752360570E+03  0.13184290774E+04  0.89919768047E+03 0.  0.
         23    2    4    4    0    0  0.57661952803E+03 -0.58775367350E+03 -0.60216351544E+03  0.10244418883E+04  0.94529478430E+02 0.  0.
         23    2    4    4    0    0 -0.15343928949E+02 -0.11502353795E+03  0.25463990975E+03  0.29398718913E+03  0.90117330719E+02 0.  0.
          4    1    3    3  502    0 -0.17815859073E+03  0.25322069728E+03 -0.19776892082E+03  0.36738773935E+03  0.00000000000E+00 0. -1.
         -3    1    3    3    0  502 -0.38311700835E+03  0.44955651417E+03 -0.26836803277E+03  0.64876891305E+03  0.00000000000E+00 0.  1.
         11    1    5    5    0    0  0.25374584245E+03 -0.22600827287E+03 -0.29874083729E+03  0.45245196412E+03  0.00000000000E+00 0. -1.
        -11    1    5    5    0    0  0.32287368558E+03 -0.36174540063E+03 -0.30342267815E+03  0.57198992415E+03  0.00000000000E+00 0.  1.
          1    1    6    6  503    0  0.24819943928E+02 -0.62132539869E+02  0.65930020043E+02  0.93932154612E+02  0.00000000000E+00 0. -1.
         -1    1    6    6    0  503 -0.40163872877E+02 -0.52890998086E+02  0.18870988971E+03  0.20005503452E+03  0.00000000000E+00 0.  1.
<mgrwt>
<rscale>  0 0.21882063E+04</rscale>
<asrwt>0</asrwt>
<pdfrwt beam="1">  1        2 0.24217279E+00 0.21882063E+04</pdfrwt>
<pdfrwt beam="2">  1       -1 0.11699425E+00 0.21882063E+04</pdfrwt>
<totfact> 0.79136466E+00</totfact>
</mgrwt>
</event>
<event>
12    6  0.1402540E-007  0.2344027E+04  0.7818608E-02  0.8460761E-01
          2   -1    0    0  501    0  0.00000000000E+00  0.00000000000E+00  0.20034810704E+04  0.20034810704E+04  0.00000000000E+00 0. -1.
         -1   -1    0    0    0  501 -0.00000000000E+00 -0.00000000000E+00 -0.68561463127E+03  0.68561463127E+03  0.00000000000E+00 0.  1.
         24    2    1    2    0    0 -0.93569767128E+03  0.18028686232E+02  0.16815970112E+03  0.95485382035E+03  0.87252321349E+02 0.  0.
        254    2    1    2    0    0  0.93569767128E+03 -0.18028686232E+02  0.11497067380E+04  0.17342418813E+04  0.89995230648E+03 0.  0.
         23    2    4    4    0    0  0.80499836991E+03 -0.36472288082E+03  0.62842465221E+03  0.10883863363E+04  0.92855361114E+02 0.  0.
         23    2    4    4    0    0  0.13069930137E+03  0.34669419459E+03  0.52128208580E+03  0.64585554506E+03  0.90084405853E+02 0.  0.
          4    1    3    3  502    0 -0.59166753791E+03 -0.49232496493E+01  0.14549983242E+03  0.60931511965E+03  0.00000000000E+00 0. -1.
         -3    1    3    3    0  502 -0.34403013338E+03  0.22951935881E+02  0.22659868709E+02  0.34553870070E+03  0.00000000000E+00 0.  1.
         11    1    5    5    0    0  0.49737321365E+02 -0.92242510172E+01  0.60021001657E+02  0.78494640475E+02  0.00000000000E+00 0.  1.
        -11    1    5    5    0    0  0.75526104855E+03 -0.35549862980E+03  0.56840365055E+03  0.10098916958E+04  0.00000000000E+00 0. -1.
          2    1    6    6  503    0  0.11531078798E+03  0.28402542707E+03  0.36419465000E+03  0.47603021347E+03  0.00000000000E+00 0. -1.
         -2    1    6    6    0  503  0.15388513393E+02  0.62668767521E+02  0.15708743579E+03  0.16982533160E+03  0.00000000000E+00 0.  1.
<mgrwt>
<rscale>  0 0.23440272E+04</rscale>
<asrwt>0</asrwt>
<pdfrwt beam="1">  1        2 0.30822786E+00 0.23440272E+04</pdfrwt>
<pdfrwt beam="2">  1       -1 0.10547917E+00 0.23440272E+04</pdfrwt>
<totfact> 0.57598011E+00</totfact>
</mgrwt>
</event>
<event>
12    6  0.1402540E-007  0.3883002E+04  0.7818608E-02  0.8028574E-01
         -1   -1    0    0    0  501 -0.00000000000E+00  0.00000000000E+00  0.94548753020E+03  0.94548753020E+03  0.00000000000E+00 0.  1.
          2   -1    0    0  501    0  0.00000000000E+00 -0.00000000000E+00 -0.39867548079E+04  0.39867548079E+04  0.00000000000E+00 0. -1.
         24    2    1    2    0    0  0.14467725417E+04  0.87394210495E+03 -0.23497951079E+04  0.28956012016E+04  0.77741105074E+02 0.  0.
        254    2    1    2    0    0 -0.14467725417E+04 -0.87394210495E+03 -0.69147216973E+03  0.20366411365E+04  0.90158070468E+03 0.  0.
         23    2    4    4    0    0 -0.52781507493E+02 -0.20858154634E+03 -0.39811521332E+03  0.46158375329E+03  0.90948827471E+02 0.  0.
         23    2    4    4    0    0 -0.13939910342E+04 -0.66536055862E+03 -0.29335695641E+03  0.15750573832E+04  0.93977550827E+02 0.  0.
          4    1    3    3  502    0  0.69693830407E+03  0.37598712036E+03 -0.10919843967E+04  0.13488955619E+04  0.00000000000E+00 0. -1.
         -3    1    3    3    0  502  0.74983423760E+03  0.49795498459E+03 -0.12578107113E+04  0.15467056397E+04  0.00000000000E+00 0.  1.
         11    1    5    5    0    0 -0.52527319059E+02 -0.21607329479E+03 -0.39534798768E+03  0.45359323113E+03  0.00000000000E+00 0. -1.
        -11    1    5    5    0    0 -0.25418843332E+00  0.74917484509E+01 -0.27672256447E+01  0.79905221594E+01  0.00000000000E+00 0.  1.
          4    1    6    6  503    0 -0.39881192038E+03 -0.18777342657E+03 -0.40800311525E+02  0.44269004166E+03  0.00000000000E+00 0. -1.
         -4    1    6    6    0  503 -0.99517911379E+03 -0.47758713205E+03 -0.25255664489E+03  0.11323673415E+04  0.00000000000E+00 0.  1.
<mgrwt>
<rscale>  0 0.38830024E+04</rscale>
<asrwt>0</asrwt>
<pdfrwt beam="1">  1        2 0.61334689E+00 0.38830024E+04</pdfrwt>
<pdfrwt beam="2">  1       -1 0.14545962E+00 0.38830024E+04</pdfrwt>
<totfact> 0.11961539E-01</totfact>
</mgrwt>
</event>
<event>
12    6  0.1402540E-007  0.1537262E+04  0.7818608E-02  0.8860045E-01
         -1   -1    0    0    0  501 -0.00000000000E+00  0.00000000000E+00  0.11042224093E+04  0.11042224093E+04  0.00000000000E+00 0.  1.
          2   -1    0    0  501    0  0.00000000000E+00 -0.00000000000E+00 -0.53503158732E+03  0.53503158732E+03  0.00000000000E+00 0. -1.
         24    2    1    2    0    0  0.46060171897E+03  0.94343132205E+02  0.18476375147E+02  0.47725894906E+03  0.79875890689E+02 0.  0.
        254    2    1    2    0    0 -0.46060171897E+03 -0.94343132205E+02  0.55071444683E+03  0.11619950476E+04  0.90878573850E+03 0.  0.
         23    2    4    4    0    0 -0.49597516834E+03 -0.87081676461E+02  0.76803203447E+03  0.92310555505E+03  0.93145444373E+02 0.  0.
         23    2    4    4    0    0  0.35373449373E+02 -0.72614557439E+01 -0.21731758764E+03  0.23888949251E+03  0.92397218968E+02 0.  0.
          4    1    3    3  502    0  0.22446443746E+03  0.28364363373E+02 -0.27135050267E+02  0.22787086639E+03  0.00000000000E+00 0. -1.
         -3    1    3    3    0  502  0.23613728150E+03  0.65978768832E+02  0.45611425414E+02  0.24938808268E+03  0.00000000000E+00 0.  1.
         11    1    5    5    0    0 -0.39860480199E+02  0.15105321859E+02  0.89826438844E+02  0.99427449658E+02  0.00000000000E+00 0.  1.
        -11    1    5    5    0    0 -0.45611468814E+03 -0.10218699832E+03  0.67820559563E+03  0.82367810539E+03  0.00000000000E+00 0. -1.
          1    1    6    6  503    0  0.27266004111E+02  0.30145939246E+02 -0.38379508627E+02  0.55903482142E+02  0.00000000000E+00 0. -1.
         -1    1    6    6    0  503  0.81074452622E+01 -0.37407394990E+02 -0.17893807902E+03  0.18298601037E+03  0.00000000000E+00 0.  1.
<mgrwt>
<rscale>  0 0.15372623E+04</rscale>
<asrwt>0</asrwt>
<pdfrwt beam="1">  1        2 0.82312552E-01 0.15372623E+04</pdfrwt>
<pdfrwt beam="2">  1       -1 0.16988037E+00 0.15372623E+04</pdfrwt>
<totfact> 0.15443388E+01</totfact>
</mgrwt>
</event>
<event>
12    6  0.1402540E-007  0.2742570E+04  0.7818608E-02  0.8321323E-01
          2   -1    0    0  501    0  0.00000000000E+00  0.00000000000E+00  0.12813257010E+04  0.12813257010E+04  0.00000000000E+00 0. -1.
         -1   -1    0    0    0  501 -0.00000000000E+00 -0.00000000000E+00 -0.14675600118E+04  0.14675600118E+04  0.00000000000E+00 0.  1.
         24    2    1    2    0    0  0.10154085442E+04 -0.61934540478E+03 -0.36477308472E+03  0.12464994754E+04  0.77835062271E+02 0.  0.
        254    2    1    2    0    0 -0.10154085442E+04  0.61934540478E+03  0.17853877398E+03  0.15023862374E+04  0.90035830119E+03 0.  0.
         23    2    4    4    0    0 -0.12991098342E+03 -0.15097796636E+03  0.23791254772E+03  0.32390284277E+03  0.92948702276E+02 0.  0.
         23    2    4    4    0    0 -0.88549756076E+03  0.77032337114E+03 -0.59373773747E+02  0.11784833946E+04  0.88282728633E+02 0.  0.
          2    1    3    3  502    0  0.39306256729E+03 -0.22271286972E+03 -0.10220667142E+03  0.46319046604E+03  0.00000000000E+00 0. -1.
         -1    1    3    3    0  502  0.62234597688E+03 -0.39663253506E+03 -0.26256641330E+03  0.78330900940E+03  0.00000000000E+00 0.  1.
         11    1    5    5    0    0  0.12023530184E+02 -0.33336084511E+02  0.39415067600E+02  0.53003842903E+02  0.00000000000E+00 0.  1.
        -11    1    5    5    0    0 -0.14193451360E+03 -0.11764188185E+03  0.19849748012E+03  0.27089899987E+03  0.00000000000E+00 0. -1.
          1    1    6    6  503    0 -0.26034835271E+03  0.20652254135E+03 -0.53739421094E+02  0.33663147539E+03  0.00000000000E+00 0. -1.
         -1    1    6    6    0  503 -0.62514920805E+03  0.56380082979E+03 -0.56343526530E+01  0.84185191924E+03  0.00000000000E+00 0.  1.
<mgrwt>
<rscale>  0 0.27425699E+04</rscale>
<asrwt>0</asrwt>
<pdfrwt beam="1">  1        2 0.19712703E+00 0.27425699E+04</pdfrwt>
<pdfrwt beam="2">  1       -1 0.22577846E+00 0.27425699E+04</pdfrwt>
<totfact> 0.17001795E+00</totfact>
</mgrwt>
</event>
<event>
12    6  0.1402540E-007  0.1153994E+04  0.7818608E-02  0.9154107E-01
          2   -1    0    0  501    0  0.00000000000E+00  0.00000000000E+00  0.11721011243E+04  0.11721011243E+04  0.00000000000E+00 0. -1.
         -1   -1    0    0    0  501 -0.00000000000E+00 -0.00000000000E+00 -0.28404156674E+03  0.28404156674E+03  0.00000000000E+00 0.  1.
         24    2    1    2    0    0 -0.80434397221E+02  0.14424099034E+03  0.33799021550E+03  0.38305155940E+03  0.72221574563E+02 0.  0.
        254    2    1    2    0    0  0.80434397221E+02 -0.14424099034E+03  0.55006934210E+03  0.10730911317E+04  0.90646188018E+03 0.  0.
         23    2    4    4    0    0  0.19393275913E+03  0.34257605379E+03  0.31441531873E+03  0.51194828038E+03  0.90916343076E+02 0.  0.
         23    2    4    4    0    0 -0.11349836191E+03 -0.48681704413E+03  0.23565402337E+03  0.56114285130E+03  0.97343557647E+02 0.  0.
          4    1    3    3  502    0 -0.91938498939E+01  0.17466161126E+02  0.11602618991E+03  0.11769311962E+03  0.00000000000E+00 0. -1.
         -3    1    3    3    0  502 -0.71240547327E+02  0.12677482922E+03  0.22196402559E+03  0.26535843978E+03  0.00000000000E+00 0.  1.
         11    1    5    5    0    0  0.18884288613E+03  0.34822317498E+03  0.30563242284E+03  0.50033208285E+03  0.00000000000E+00 0. -1.
        -11    1    5    5    0    0  0.50898730073E+01 -0.56471211911E+01  0.87828958867E+01  0.11616197533E+02  0.00000000000E+00 0.  1.
          3    1    6    6  503    0 -0.13043745561E+03 -0.40173624311E+03  0.19067963526E+03  0.46342708397E+03  0.00000000000E+00 0. -1.
         -3    1    6    6    0  503  0.16939093700E+02 -0.85080801026E+02  0.44974388110E+02  0.97715767328E+02  0.00000000000E+00 0.  1.
<mgrwt>
<rscale>  0 0.11539938E+04</rscale>
<asrwt>0</asrwt>
<pdfrwt beam="1">  1        2 0.18032325E+00 0.11539938E+04</pdfrwt>
<pdfrwt beam="2">  1       -1 0.43698703E-01 0.11539938E+04</pdfrwt>
<totfact> 0.11482651E+02</totfact>
</mgrwt>
</event>
<event>
12    6  0.1402540E-007  0.1603284E+04  0.7818608E-02  0.8818533E-01
          2   -1    0    0  501    0  0.00000000000E+00  0.00000000000E+00  0.35171412259E+03  0.35171412259E+03  0.00000000000E+00 0. -1.
         -1   -1    0    0    0  501 -0.00000000000E+00 -0.00000000000E+00 -0.18271375179E+04  0.18271375179E+04  0.00000000000E+00 0.  1.
         24    2    1    2    0    0 -0.33935159741E+03 -0.51691260893E+02  0.67991380348E+02  0.35925410999E+03  0.81296953377E+02 0.  0.
        254    2    1    2    0    0  0.33935159741E+03  0.51691260893E+02 -0.15434147757E+04  0.18195975305E+04  0.90054123178E+03 0.  0.
         23    2    4    4    0    0  0.43313978100E+03  0.19846286418E+03 -0.15485149988E+04  0.16228106872E+04  0.92834512832E+02 0.  0.
         23    2    4    4    0    0 -0.93788183590E+02 -0.14677160328E+03  0.51002231284E+01  0.19678684327E+03  0.91438080117E+02 0.  0.
          4    1    3    3  502    0 -0.32780216731E+03 -0.36251390938E+02  0.75886675377E+02  0.33841869295E+03  0.00000000000E+00 0. -1.
         -3    1    3    3    0  502 -0.11549430104E+02 -0.15439869955E+02 -0.78952950298E+01  0.20835417048E+02  0.00000000000E+00 0.  1.
         11    1    5    5    0    0 -0.31597949543E+01  0.29619371446E+01 -0.42705676851E+02  0.42924727269E+02  0.00000000000E+00 0. -1.
        -11    1    5    5    0    0  0.43629957595E+03  0.19550092703E+03 -0.15058093219E+04  0.15798859600E+04  0.00000000000E+00 0.  1.
          1    1    6    6  503    0  0.18468152596E+02 -0.16671709575E+02  0.17537178169E+00  0.24880701673E+02  0.00000000000E+00 0. -1.
         -1    1    6    6    0  503 -0.11225633619E+03 -0.13009989371E+03  0.49248513467E+01  0.17190614159E+03  0.00000000000E+00 0.  1.
<mgrwt>
<rscale>  0 0.16032842E+04</rscale>
<asrwt>0</asrwt>
<pdfrwt beam="1">  1        2 0.54109866E-01 0.16032842E+04</pdfrwt>
<pdfrwt beam="2">  1       -1 0.28109807E+00 0.16032842E+04</pdfrwt>
<totfact> 0.44198889E+00</totfact>
</mgrwt>
</event>
<event>
12    6  0.1402540E-007  0.1721804E+04  0.7818608E-02  0.8749025E-01
          2   -1    0    0  501    0  0.00000000000E+00  0.00000000000E+00  0.20901705571E+04  0.20901705571E+04  0.00000000000E+00 0. -1.
         -1   -1    0    0    0  501 -0.00000000000E+00 -0.00000000000E+00 -0.35458944310E+03  0.35458944310E+03  0.00000000000E+00 0.  1.
         24    2    1    2    0    0 -0.61629538999E+03  0.15082860680E+02  0.70953389190E+03  0.94478722419E+03  0.95587942985E+02 0.  0.
        254    2    1    2    0    0  0.61629538999E+03 -0.15082860680E+02  0.10260472221E+04  0.14999727760E+04  0.90393469146E+03 0.  0.
         23    2    4    4    0    0  0.79754253753E+03 -0.17798975280E+03  0.86964827364E+03  0.11968071773E+04  0.91130941426E+02 0.  0.
         23    2    4    4    0    0 -0.18124714754E+03  0.16290689212E+03  0.15639894850E+03  0.30316559877E+03  0.89775081117E+02 0.  0.
          4    1    3    3  502    0 -0.48653768361E+03 -0.12922733556E+02  0.60071647005E+03  0.77314047366E+03  0.00000000000E+00 0. -1.
         -3    1    3    3    0  502 -0.12975770638E+03  0.28005594236E+02  0.10881742184E+03  0.17164675053E+03  0.00000000000E+00 0.  1.
         11    1    5    5    0    0  0.60062279644E+03 -0.12822196464E+03  0.70772885500E+03  0.93705322582E+03  0.00000000000E+00 0. -1.
        -11    1    5    5    0    0  0.19691974109E+03 -0.49767788163E+02  0.16191941864E+03  0.25975395146E+03  0.00000000000E+00 0.  1.
          4    1    6    6  503    0 -0.92162837135E+02  0.28056570541E+02  0.75686283657E+02  0.12251356347E+03  0.00000000000E+00 0. -1.
         -4    1    6    6    0  503 -0.89084310404E+02  0.13485032158E+03  0.80712664845E+02  0.18065203530E+03  0.00000000000E+00 0.  1.
<mgrwt>
<rscale>  0 0.17218042E+04</rscale>
<asrwt>0</asrwt>
<pdfrwt beam="1">  1        2 0.32156469E+00 0.17218042E+04</pdfrwt>
<pdfrwt beam="2">  1       -1 0.54552223E-01 0.17218042E+04</pdfrwt>
<totfact> 0.21858107E+01</totfact>
</mgrwt>
</event>
<event>
12    6  0.1402540E-007  0.1275850E+04  0.7818608E-02  0.9048939E-01
          4   -1    0    0  501    0  0.00000000000E+00  0.00000000000E+00  0.34747876730E+03  0.34747876730E+03  0.00000000000E+00 0. -1.
         -3   -1    0    0    0  501 -0.00000000000E+00 -0.00000000000E+00 -0.11711450656E+04  0.11711450656E+04  0.00000000000E+00 0.  1.
         24    2    1    2    0    0  0.83567583415E+02  0.86540834118E+02  0.13409962658E+03  0.19924869467E+03  0.85114484728E+02 0.  0.
        254    2    1    2    0    0 -0.83567583415E+02 -0.86540834118E+02 -0.95776592489E+03  0.13193751383E+04  0.89942333280E+03 0.  0.
         23    2    4    4    0    0 -0.83419928698E+02 -0.15260912245E+03  0.12348054140E+03  0.23222072832E+03  0.91818265065E+02 0.  0.
         23    2    4    4    0    0 -0.14765471650E+00  0.66068288331E+02 -0.10812464663E+04  0.10871544099E+04  0.91900759792E+02 0.  0.
          4    1    3    3  502    0  0.54865722204E+02  0.23540414097E+02  0.11140372083E+03  0.12639298866E+03  0.00000000000E+00 0. -1.
         -3    1    3    3    0  502  0.28701861211E+02  0.63000420021E+02  0.22695905754E+02  0.72855706007E+02  0.00000000000E+00 0.  1.
         11    1    5    5    0    0  0.73937830902E+01 -0.16610568888E+02  0.49498856951E+02  0.52732493462E+02  0.00000000000E+00 0. -1.
        -11    1    5    5    0    0 -0.90813711789E+02 -0.13599855356E+03  0.73981684444E+02  0.17948823486E+03  0.00000000000E+00 0.  1.
          1    1    6    6  503    0 -0.17836941026E+02 -0.16608650895E+02 -0.13884141666E+03  0.14096433141E+03  0.00000000000E+00 0. -1.
         -1    1    6    6    0  503  0.17689286309E+02  0.82676939226E+02 -0.94240504962E+03  0.94619007852E+03  0.00000000000E+00 0.  1.
<mgrwt>
<rscale>  0 0.12758496E+04</rscale>
<asrwt>0</asrwt>
<pdfrwt beam="1">  1        4 0.53458272E-01 0.12758496E+04</pdfrwt>
<pdfrwt beam="2">  1       -3 0.18017616E+00 0.12758496E+04</pdfrwt>
<totfact> 0.14858909E+00</totfact>
</mgrwt>
</event>
<event>
12    6  0.1402540E-007  0.1690899E+04  0.7818608E-02  0.8766572E-01
         -1   -1    0    0    0  501 -0.00000000000E+00  0.00000000000E+00  0.26818775966E+03  0.26818775966E+03  0.00000000000E+00 0.  1.
          2   -1    0    0  501    0  0.00000000000E+00 -0.00000000000E+00 -0.26652398566E+04  0.26652398566E+04  0.00000000000E+00 0. -1.
         24    2    1    2    0    0 -0.48282789537E+03  0.32822914690E+03 -0.60126048603E+03  0.84162645382E+03  0.77225425121E+02 0.  0.
        254    2    1    2    0    0  0.48282789537E+03 -0.32822914690E+03 -0.17957916109E+04  0.20918011625E+04  0.89994857852E+03 0.  0.
         23    2    4    4    0    0  0.37724049958E+03 -0.17411102790E+03 -0.17893044068E+03  0.46165650487E+03  0.92117215145E+02 0.  0.
         23    2    4    4    0    0  0.10558739579E+03 -0.15411811900E+03 -0.16168611703E+04  0.16301446576E+04  0.90721927200E+02 0.  0.
          4    1    3    3  502    0 -0.29083758614E+03  0.19708304426E+03 -0.41480222325E+03  0.54358910242E+03  0.00000000000E+00 0. -1.
         -3    1    3    3    0  502 -0.19199030922E+03  0.13114610264E+03 -0.18645826278E+03  0.29803735140E+03  0.00000000000E+00 0.  1.
         11    1    5    5    0    0  0.21771892289E+03 -0.59159772813E+02 -0.12428050813E+03  0.25757921656E+03  0.00000000000E+00 0. -1.
        -11    1    5    5    0    0  0.15952157669E+03 -0.11495125508E+03 -0.54649932557E+02  0.20407728831E+03  0.00000000000E+00 0.  1.
          2    1    6    6  503    0 -0.62190203617E+01 -0.22524544346E+01 -0.27680392631E+03  0.27688294166E+03  0.00000000000E+00 0. -1.
         -2    1    6    6    0  503  0.11180641615E+03 -0.15186566456E+03 -0.13400572440E+04  0.13532617159E+04  0.00000000000E+00 0.  1.
<mgrwt>
<rscale>  0 0.16908988E+04</rscale>
<asrwt>0</asrwt>
<pdfrwt beam="1">  1        2 0.41003692E+00 0.16908988E+04</pdfrwt>
<pdfrwt beam="2">  1       -1 0.41259653E-01 0.16908988E+04</pdfrwt>
<totfact> 0.17418085E+01</totfact>
</mgrwt>
</event>
<event>
12    6  0.1402540E-007  0.2800755E+04  0.7818608E-02  0.8303034E-01
         -1   -1    0    0    0  501 -0.00000000000E+00  0.00000000000E+00  0.11167226316E+04  0.11167226316E+04  0.00000000000E+00 0.  1.
          2   -1    0    0  501    0  0.00000000000E+00 -0.00000000000E+00 -0.17560827537E+04  0.17560827537E+04  0.00000000000E+00 0. -1.
         24    2    1    2    0    0  0.19712641133E+03 -0.12169392257E+04 -0.52514777159E+03  0.13423447223E+04  0.79430916387E+02 0.  0.
        254    2    1    2    0    0 -0.19712641133E+03  0.12169392257E+04 -0.11421235051E+03  0.15304606630E+04  0.89970299491E+03 0.  0.
         23    2    4    4    0    0  0.21297949590E+03  0.79808300652E+03  0.20621250347E+03  0.85582843169E+03  0.87303819631E+02 0.  0.
         23    2    4    4    0    0 -0.41010590724E+03  0.41885621914E+03 -0.32042485399E+03  0.67463223133E+03  0.93963679369E+02 0.  0.
          2    1    3    3  502    0  0.56149266160E+02 -0.17448872060E+03 -0.84546207751E+02  0.20185914632E+03  0.00000000000E+00 0. -1.
         -1    1    3    3    0  502  0.14097714517E+03 -0.10424505051E+04 -0.44060156384E+03  0.11404855760E+04  0.00000000000E+00 0.  1.
         11    1    5    5    0    0  0.13054588081E+03  0.37922791119E+03  0.65740769556E+02  0.40642082181E+03  0.00000000000E+00 0. -1.
        -11    1    5    5    0    0  0.82433615093E+02  0.41885509533E+03  0.14047173392E+03  0.44940760988E+03  0.00000000000E+00 0.  1.
          1    1    6    6  503    0 -0.37003634085E+03  0.40425551538E+03 -0.27816493027E+03  0.61459347841E+03  0.00000000000E+00 0. -1.
         -1    1    6    6    0  503 -0.40069566391E+02  0.14600703754E+02 -0.42259923712E+02  0.60038752927E+02  0.00000000000E+00 0.  1.
<mgrwt>
<rscale>  0 0.28007552E+04</rscale>
<asrwt>0</asrwt>
<pdfrwt beam="1">  1        2 0.27016658E+00 0.28007552E+04</pdfrwt>
<pdfrwt beam="2">  1       -1 0.17180348E+00 0.28007552E+04</pdfrwt>
<totfact> 0.21574837E+00</totfact>
</mgrwt>
</event>
<event>
12    6  0.1402540E-007  0.1571325E+04  0.7818608E-02  0.8838361E-01
          2   -1    0    0  501    0  0.00000000000E+00  0.00000000000E+00  0.11446809925E+04  0.11446809925E+04  0.00000000000E+00 0. -1.
         -1   -1    0    0    0  501 -0.00000000000E+00 -0.00000000000E+00 -0.53924651588E+03  0.53924651588E+03  0.00000000000E+00 0.  1.
         24    2    1    2    0    0  0.12822084241E+02  0.22178883231E+03  0.71270217104E+03  0.75071390626E+03  0.79197805897E+02 0.  0.
        254    2    1    2    0    0 -0.12822084241E+02 -0.22178883231E+03 -0.10726769439E+03  0.93321360215E+03  0.90001476487E+03 0.  0.
         23    2    4    4    0    0  0.14993327339E+03 -0.20891261195E+03  0.34779028185E+03  0.44130825859E+03  0.87581008495E+02 0.  0.
         23    2    4    4    0    0 -0.16275535763E+03 -0.12876220361E+02 -0.45505797625E+03  0.49190534355E+03  0.90763438567E+02 0.  0.
          4    1    3    3  502    0 -0.17634922581E+02  0.13181948784E+03  0.50678967532E+03  0.52394956139E+03  0.00000000000E+00 0. -1.
         -3    1    3    3    0  502  0.30457006822E+02  0.89969344475E+02  0.20591249572E+03  0.22676434487E+03  0.00000000000E+00 0.  1.
         11    1    5    5    0    0  0.40138141043E+02 -0.84893206987E+02  0.19286001143E+03  0.21450620263E+03  0.00000000000E+00 0.  1.
        -11    1    5    5    0    0  0.10979513235E+03 -0.12401940496E+03  0.15493027043E+03  0.22680205596E+03  0.00000000000E+00 0. -1.
          3    1    6    6  503    0 -0.17137549049E+03 -0.19852488023E+01 -0.40096961218E+03  0.43606207109E+03  0.00000000000E+00 0. -1.
         -3    1    6    6    0  503  0.86201328513E+01 -0.10890971559E+02 -0.54088364069E+02  0.55843272465E+02  0.00000000000E+00 0.  1.
<mgrwt>
<rscale>  0 0.15713246E+04</rscale>
<asrwt>0</asrwt>
<pdfrwt beam="1">  1        2 0.17610477E+00 0.15713246E+04</pdfrwt>
<pdfrwt beam="2">  1       -1 0.82961003E-01 0.15713246E+04</pdfrwt>
<totfact> 0.32352237E+01</totfact>
</mgrwt>
</event>
<event>
12    6  0.1402540E-007  0.1473455E+04  0.7818608E-02  0.8902300E-01
         -1   -1    0    0    0  501 -0.00000000000E+00  0.00000000000E+00  0.43472716790E+03  0.43472716790E+03  0.00000000000E+00 0.  1.
          2   -1    0    0  501    0  0.00000000000E+00 -0.00000000000E+00 -0.12485237594E+04  0.12485237594E+04  0.00000000000E+00 0. -1.
         24    2    1    2    0    0 -0.42765043314E+03  0.45975576028E+02 -0.78092506785E+02  0.44418304738E+03  0.78749561328E+02 0.  0.
        254    2    1    2    0    0  0.42765043314E+03 -0.45975576028E+02 -0.73570408476E+03  0.12390678800E+04  0.89946098542E+03 0.  0.
         23    2    4    4    0    0  0.58008418104E+03  0.15455414796E+03 -0.19783506758E+03  0.63856985532E+03  0.90819075206E+02 0.  0.
         23    2    4    4    0    0 -0.15243374790E+03 -0.20052972399E+03 -0.53786901718E+03  0.60049802465E+03  0.88580924946E+02 0.  0.
          4    1    3    3  502    0 -0.21969734735E+03  0.59728795931E+02 -0.57086809645E+02  0.23471974210E+03  0.00000000000E+00 0. -1.
         -3    1    3    3    0  502 -0.20795308579E+03 -0.13753219903E+02 -0.21005697140E+02  0.20946330528E+03  0.00000000000E+00 0.  1.
         11    1    5    5    0    0  0.47980043828E+03  0.12324013471E+03 -0.12552611107E+03  0.51103169758E+03  0.00000000000E+00 0.  1.
        -11    1    5    5    0    0  0.10028374276E+03  0.31314013259E+02 -0.72308956513E+02  0.12753815774E+03  0.00000000000E+00 0. -1.
          3    1    6    6  503    0 -0.89790199349E+02 -0.94678228383E+02 -0.18177427256E+03  0.22375909589E+03  0.00000000000E+00 0. -1.
         -3    1    6    6    0  503 -0.62643548550E+02 -0.10585149561E+03 -0.35609474462E+03  0.37673892876E+03  0.00000000000E+00 0.  1.
<mgrwt>
<rscale>  0 0.14734547E+04</rscale>
<asrwt>0</asrwt>
<pdfrwt beam="1">  1        2 0.19208058E+00 0.14734547E+04</pdfrwt>
<pdfrwt beam="2">  1       -1 0.66881102E-01 0.14734547E+04</pdfrwt>
<totfact> 0.44305966E+01</totfact>
</mgrwt>
</event>
<event>
12    6  0.1402540E-007  0.2091199E+04  0.7818608E-02  0.8565130E-01
          2   -1    0    0  501    0  0.00000000000E+00  0.00000000000E+00  0.86510741405E+03  0.86510741405E+03  0.00000000000E+00 0. -1.
         -1   -1    0    0    0  501 -0.00000000000E+00 -0.00000000000E+00 -0.12637483898E+04  0.12637483898E+04  0.00000000000E+00 0.  1.
         24    2    1    2    0    0  0.20403344579E+03  0.78459431576E+03  0.96257397388E+02  0.81996314178E+03  0.76525681987E+02 0.  0.
        254    2    1    2    0    0 -0.20403344579E+03 -0.78459431576E+03 -0.49489837310E+03  0.13088926620E+04  0.90058742702E+03 0.  0.
         23    2    4    4    0    0 -0.11006289741E+03 -0.68033690311E+03 -0.73807205269E+03  0.10137722292E+04  0.89507735033E+02 0.  0.
         23    2    4    4    0    0 -0.93970548379E+02 -0.10425741265E+03  0.24317367959E+03  0.29512043283E+03  0.90898621383E+02 0.  0.
          4    1    3    3  502    0  0.18412539403E+03  0.73101705068E+03  0.10819465711E+03  0.76157348493E+03  0.00000000000E+00 0. -1.
         -3    1    3    3    0  502  0.19908051764E+02  0.53577265076E+02 -0.11937259718E+02  0.58389656855E+02  0.00000000000E+00 0.  1.
         11    1    5    5    0    0 -0.41220744276E+02 -0.75890327241E+02 -0.82916271484E+02  0.11972301201E+03  0.00000000000E+00 0.  1.
        -11    1    5    5    0    0 -0.68842153136E+02 -0.60444657587E+03 -0.65515578121E+03  0.89404921720E+03  0.00000000000E+00 0. -1.
          3    1    6    6  503    0 -0.66878183024E+02 -0.24885537275E+02  0.16786613191E+03  0.18240345274E+03  0.00000000000E+00 0. -1.
         -3    1    6    6    0  503 -0.27092365355E+02 -0.79371875375E+02  0.75307547685E+02  0.11271698008E+03  0.00000000000E+00 0.  1.
<mgrwt>
<rscale>  0 0.20911988E+04</rscale>
<asrwt>0</asrwt>
<pdfrwt beam="1">  1        2 0.13309345E+00 0.20911988E+04</pdfrwt>
<pdfrwt beam="2">  1       -1 0.19442283E+00 0.20911988E+04</pdfrwt>
<totfact> 0.53630185E+00</totfact>
</mgrwt>
</event>
<event>
12    6  0.1402540E-007  0.1920628E+04  0.7818608E-02  0.8644656E-01
         -3   -1    0    0    0  501 -0.00000000000E+00  0.00000000000E+00  0.29206614479E+03  0.29206614479E+03  0.00000000000E+00 0.  1.
          2   -1    0    0  501    0  0.00000000000E+00 -0.00000000000E+00 -0.31575135532E+04  0.31575135532E+04  0.00000000000E+00 0. -1.
         24    2    1    2    0    0 -0.49759401139E+03 -0.21211071444E+02 -0.21197341722E+04  0.21788685696E+04  0.78393706160E+02 0.  0.
        254    2    1    2    0    0  0.49759401139E+03  0.21211071444E+02 -0.74571323623E+03  0.12707111284E+04  0.90031596200E+03 0.  0.
         23    2    4    4    0    0 -0.96094858104E+02 -0.29167777021E+03 -0.10578517205E+03  0.33890619684E+03  0.96730368750E+02 0.  0.
         23    2    4    4    0    0  0.59368886949E+03  0.31288884166E+03 -0.63992806419E+03  0.93180493156E+03  0.91578393539E+02 0.  0.
          2    1    3    3  502    0 -0.34132483170E+03  0.21979936176E+02 -0.14294603440E+04  0.14698104073E+04  0.00000000000E+00 0. -1.
         -1    1    3    3    0  502 -0.15626917969E+03 -0.43191007620E+02 -0.69027382816E+03  0.70905816229E+03  0.00000000000E+00 0.  1.
         11    1    5    5    0    0 -0.54118415860E+02 -0.26857702798E+03 -0.87244953962E+02  0.28753105030E+03  0.00000000000E+00 0.  1.
        -11    1    5    5    0    0 -0.41976442245E+02 -0.23100742234E+02 -0.18540218084E+02  0.51375146539E+02  0.00000000000E+00 0. -1.
          2    1    6    6  503    0  0.13767022719E+02  0.93083414762E+01 -0.42299786255E+02  0.45447200715E+02  0.00000000000E+00 0. -1.
         -2    1    6    6    0  503  0.57992184677E+03  0.30358050018E+03 -0.59762827793E+03  0.88635773085E+03  0.00000000000E+00 0.  1.
<mgrwt>
<rscale>  0 0.19206278E+04</rscale>
<asrwt>0</asrwt>
<pdfrwt beam="1">  1        2 0.48577132E+00 0.19206278E+04</pdfrwt>
<pdfrwt beam="2">  1       -3 0.44933253E-01 0.19206278E+04</pdfrwt>
<totfact> 0.41336795E+00</totfact>
</mgrwt>
</event>
<event>
12    6  0.1402540E-007  0.2813061E+04  0.7818608E-02  0.8299225E-01
         -1   -1    0    0    0  501 -0.00000000000E+00  0.00000000000E+00  0.15012674563E+04  0.15012674563E+04  0.00000000000E+00 0.  1.
          2   -1    0    0  501    0  0.00000000000E+00 -0.00000000000E+00 -0.13177714234E+04  0.13177714234E+04  0.00000000000E+00 0. -1.
         24    2    1    2    0    0 -0.11718174593E+04 -0.30402540747E+03  0.43594142928E+03  0.12891751347E+04  0.79624065393E+02 0.  0.
        254    2    1    2    0    0  0.11718174593E+04  0.30402540747E+03 -0.25244539642E+03  0.15298637450E+04  0.90064798553E+03 0.  0.
         23    2    4    4    0    0 -0.53422961308E+02  0.15517078238E+03 -0.22065213791E+03  0.29192797745E+03  0.97992824006E+02 0.  0.
         23    2    4    4    0    0  0.12252404206E+04  0.14885462509E+03 -0.31793258508E+02  0.12379357676E+04  0.90013141430E+02 0.  0.
          4    1    3    3  502    0 -0.49306358364E+03 -0.87441697094E+02  0.18102008825E+03  0.53247161450E+03  0.00000000000E+00 0. -1.
         -3    1    3    3    0  502 -0.67875387566E+03 -0.21658371038E+03  0.25492134103E+03  0.75670352017E+03  0.00000000000E+00 0.  1.
         11    1    5    5    0    0 -0.63847216467E+02  0.42947978620E+02 -0.10769364337E+03  0.13235904480E+03  0.00000000000E+00 0. -1.
        -11    1    5    5    0    0  0.10424255158E+02  0.11222280376E+03 -0.11295849454E+03  0.15956893265E+03  0.00000000000E+00 0.  1.
          4    1    6    6  503    0  0.11444781760E+04  0.15009033143E+03 -0.49135873553E+02  0.11553232176E+04  0.00000000000E+00 0. -1.
         -4    1    6    6    0  503  0.80762244591E+02 -0.12357063401E+01  0.17342615045E+02  0.82612550004E+02  0.00000000000E+00 0.  1.
<mgrwt>
<rscale>  0 0.28130605E+04</rscale>
<asrwt>0</asrwt>
<pdfrwt beam="1">  1        2 0.20273407E+00 0.28130605E+04</pdfrwt>
<pdfrwt beam="2">  1       -1 0.23096422E+00 0.28130605E+04</pdfrwt>
<totfact> 0.14866456E+00</totfact>
</mgrwt>
</event>
<event>
12    6  0.1402540E-007  0.4387995E+04  0.7818608E-02  0.7930544E-01
         -1   -1    0    0    0  501 -0.00000000000E+00  0.00000000000E+00  0.15863188868E+04  0.15863188868E+04  0.00000000000E+00 0.  1.
          2   -1    0    0  501    0  0.00000000000E+00 -0.00000000000E+00 -0.30344617578E+04  0.30344617578E+04  0.00000000000E+00 0. -1.
         24    2    1    2    0    0 -0.20251326715E+04 -0.55395525827E+03 -0.78219577095E+03  0.22419771464E+04  0.81255987738E+02 0.  0.
        254    2    1    2    0    0  0.20251326715E+04  0.55395525827E+03 -0.66594710000E+03  0.23788034982E+04  0.89843852204E+03 0.  0.
         23    2    4    4    0    0  0.71230076338E+03  0.64214056181E+03 -0.24495313485E+03  0.99395528528E+03  0.90709383415E+02 0.  0.
         23    2    4    4    0    0  0.13128319081E+04 -0.88185303538E+02 -0.42099396515E+03  0.13848482129E+04  0.96251688328E+02 0.  0.
          2    1    3    3  502    0 -0.60831676712E+03 -0.16800496908E+03 -0.27507612287E+03  0.68843433396E+03  0.00000000000E+00 0. -1.
         -1    1    3    3    0  502 -0.14168159043E+04 -0.38595028919E+03 -0.50711964808E+03  0.15535428124E+04  0.00000000000E+00 0.  1.
         11    1    5    5    0    0  0.68705095903E+03  0.63638433021E+03 -0.23111441638E+03  0.96459209488E+03  0.00000000000E+00 0. -1.
        -11    1    5    5    0    0  0.25249804347E+02  0.57562315989E+01 -0.13838718476E+02  0.29363190406E+02  0.00000000000E+00 0.  1.
          4    1    6    6  503    0  0.12198194238E+04 -0.56840675423E+02 -0.39116335765E+03  0.12822632574E+04  0.00000000000E+00 0. -1.
         -4    1    6    6    0  503  0.93012484306E+02 -0.31344628114E+02 -0.29830607495E+02  0.10258495549E+03  0.00000000000E+00 0.  1.
<mgrwt>
<rscale>  0 0.43879945E+04</rscale>
<asrwt>0</asrwt>
<pdfrwt beam="1">  1        2 0.46684027E+00 0.43879945E+04</pdfrwt>
<pdfrwt beam="2">  1       -1 0.24404906E+00 0.43879945E+04</pdfrwt>
<totfact> 0.10963320E-01</totfact>
</mgrwt>
</event>
<event>
12    6  0.1402540E-007  0.2066631E+04  0.7818608E-02  0.8576087E-01
         -1   -1    0    0    0  501 -0.00000000000E+00  0.00000000000E+00  0.45784232002E+03  0.45784232002E+03  0.00000000000E+00 0.  1.
          2   -1    0    0  501    0  0.00000000000E+00 -0.00000000000E+00 -0.23321144672E+04  0.23321144672E+04  0.00000000000E+00 0. -1.
         24    2    1    2    0    0 -0.50848183983E+03 -0.52987972126E+03 -0.12515745553E+04  0.14534223419E+04  0.81678246727E+02 0.  0.
        254    2    1    2    0    0  0.50848183983E+03  0.52987972126E+03 -0.62269759194E+03  0.13365344454E+04  0.92695508643E+03 0.  0.
         23    2    4    4    0    0  0.59848034865E+03  0.71632084184E+03 -0.40145490876E+03  0.10202351043E+04  0.91757006308E+02 0.  0.
         23    2    4    4    0    0 -0.89998508826E+02 -0.18644112058E+03 -0.22124268318E+03  0.31629934103E+03  0.90757507912E+02 0.  0.
          4    1    3    3  502    0 -0.48928461844E+02 -0.34271482894E+02 -0.14415566979E+03  0.15604289811E+03  0.00000000000E+00 0. -1.
         -3    1    3    3    0  502 -0.45955337798E+03 -0.49560823836E+03 -0.11074188855E+04  0.12973794438E+04  0.00000000000E+00 0.  1.
         11    1    5    5    0    0  0.27944766108E+03  0.28332904913E+03 -0.13676307232E+03  0.42079743739E+03  0.00000000000E+00 0. -1.
        -11    1    5    5    0    0  0.31903268757E+03  0.43299179271E+03 -0.26469183644E+03  0.59943766696E+03  0.00000000000E+00 0.  1.
          1    1    6    6  503    0 -0.53219265936E+02 -0.42537214404E+02 -0.30758075110E+02  0.74751348218E+02  0.00000000000E+00 0. -1.
         -1    1    6    6    0  503 -0.36779242890E+02 -0.14390390618E+03 -0.19048460807E+03  0.24154799281E+03  0.00000000000E+00 0.  1.
<mgrwt>
<rscale>  0 0.20666308E+04</rscale>
<asrwt>0</asrwt>
<pdfrwt beam="1">  1        2 0.35878684E+00 0.20666308E+04</pdfrwt>
<pdfrwt beam="2">  1       -1 0.70437281E-01 0.20666308E+04</pdfrwt>
<totfact> 0.93144110E+00</totfact>
</mgrwt>
</event>
<event>
12    6  0.1402540E-007  0.2029181E+04  0.7818608E-02  0.8593098E-01
         -1   -1    0    0    0  501 -0.00000000000E+00  0.00000000000E+00  0.42476678557E+03  0.42476678557E+03  0.00000000000E+00 0.  1.
          2   -1    0    0  501    0  0.00000000000E+00 -0.00000000000E+00 -0.24234339196E+04  0.24234339196E+04  0.00000000000E+00 0. -1.
         24    2    1    2    0    0 -0.64427876076E+03  0.49225613280E+03 -0.72363366381E+03  0.10899309460E+04  0.83021477639E+02 0.  0.
        254    2    1    2    0    0  0.64427876076E+03 -0.49225613280E+03 -0.12750334702E+04  0.17582697592E+04  0.89910565234E+03 0.  0.
         23    2    4    4    0    0  0.56793344101E+03 -0.43241039974E+03 -0.30872368997E+03  0.78311201931E+03  0.91798533805E+02 0.  0.
         23    2    4    4    0    0  0.76345319748E+02 -0.59845733054E+02 -0.96630978027E+03  0.97515773990E+03  0.88135728480E+02 0.  0.
          2    1    3    3  502    0 -0.15953069655E+03  0.15828657527E+03 -0.23169325514E+03  0.32277925511E+03  0.00000000000E+00 0. -1.
         -1    1    3    3    0  502 -0.48474806421E+03  0.33396955753E+03 -0.49194040866E+03  0.76715169086E+03  0.00000000000E+00 0.  1.
         11    1    5    5    0    0  0.35469756374E+03 -0.26354152726E+03 -0.14230209894E+03  0.46423526975E+03  0.00000000000E+00 0. -1.
        -11    1    5    5    0    0  0.21323587727E+03 -0.16886887248E+03 -0.16642159103E+03  0.31887674956E+03  0.00000000000E+00 0.  1.
          1    1    6    6  503    0  0.76403295367E+02 -0.52104872908E+02 -0.48230879219E+03  0.49109485066E+03  0.00000000000E+00 0. -1.
         -1    1    6    6    0  503 -0.57975619114E-01 -0.77408601463E+01 -0.48400098809E+03  0.48406288925E+03  0.00000000000E+00 0.  1.
<mgrwt>
<rscale>  0 0.20291813E+04</rscale>
<asrwt>0</asrwt>
<pdfrwt beam="1">  1        2 0.37283599E+00 0.20291813E+04</pdfrwt>
<pdfrwt beam="2">  1       -1 0.65348737E-01 0.20291813E+04</pdfrwt>
<totfact> 0.96562178E+00</totfact>
</mgrwt>
</event>
<event>
12    6  0.1402540E-007  0.2090609E+04  0.7818608E-02  0.8565392E-01
         -1   -1    0    0    0  501 -0.00000000000E+00  0.00000000000E+00  0.80758138113E+03  0.80758138113E+03  0.00000000000E+00 0.  1.
          2   -1    0    0  501    0  0.00000000000E+00 -0.00000000000E+00 -0.13530042308E+04  0.13530042308E+04  0.00000000000E+00 0. -1.
         24    2    1    2    0    0  0.38042236693E+03 -0.68014401190E+03  0.12588897750E+03  0.79338003597E+03  0.79289297112E+02 0.  0.
        254    2    1    2    0    0 -0.38042236693E+03  0.68014401190E+03 -0.67131182717E+03  0.13672055760E+04  0.90070775696E+03 0.  0.
         23    2    4    4    0    0 -0.17673456626E+03  0.64774629704E+03 -0.19679705196E+02  0.67768038029E+03  0.89738702869E+02 0.  0.
         23    2    4    4    0    0 -0.20368780067E+03  0.32397714854E+02 -0.65163212197E+03  0.68952519566E+03  0.91006818425E+02 0.  0.
          2    1    3    3  502    0  0.24401814464E+03 -0.41743503565E+03  0.11579578953E+03  0.49719767575E+03  0.00000000000E+00 0. -1.
         -1    1    3    3    0  502  0.13640422229E+03 -0.26270897625E+03  0.10093187974E+02  0.29618236021E+03  0.00000000000E+00 0.  1.
         11    1    5    5    0    0 -0.86744018923E+02  0.28140474457E+03  0.34853673295E+02  0.29652644676E+03  0.00000000000E+00 0.  1.
        -11    1    5    5    0    0 -0.89990547340E+02  0.36634155247E+03 -0.54533378491E+02  0.38115393354E+03  0.00000000000E+00 0. -1.
          4    1    6    6  503    0 -0.38801360155E+02  0.10888913809E+02 -0.44512029345E+02  0.60045272505E+02  0.00000000000E+00 0. -1.
         -4    1    6    6    0  503 -0.16488644051E+03  0.21508801045E+02 -0.60712009263E+03  0.62947992316E+03  0.00000000000E+00 0.  1.
<mgrwt>
<rscale>  0 0.20906085E+04</rscale>
<asrwt>0</asrwt>
<pdfrwt beam="1">  1        2 0.20815449E+00 0.20906085E+04</pdfrwt>
<pdfrwt beam="2">  1       -1 0.12424329E+00 0.20906085E+04</pdfrwt>
<totfact> 0.91971593E+00</totfact>
</mgrwt>
</event>
<event>
12    6  0.1402540E-007  0.1339911E+04  0.7818608E-02  0.8998500E-01
          2   -1    0    0  501    0  0.00000000000E+00  0.00000000000E+00  0.80254287855E+03  0.80254287855E+03  0.00000000000E+00 0. -1.
         -1   -1    0    0    0  501 -0.00000000000E+00 -0.00000000000E+00 -0.55927295123E+03  0.55927295123E+03  0.00000000000E+00 0.  1.
         24    2    1    2    0    0  0.25055941609E+03  0.34062088846E+02 -0.19514109923E+03  0.32908927619E+03  0.79243019930E+02 0.  0.
        254    2    1    2    0    0 -0.25055941609E+03 -0.34062088846E+02  0.43841102656E+03  0.10327265536E+04  0.90021089718E+03 0.  0.
         23    2    4    4    0    0 -0.17691561049E+03 -0.54788058994E+02  0.70807110091E+03  0.73762220311E+03  0.91765821137E+02 0.  0.
         23    2    4    4    0    0 -0.73643805594E+02  0.20725970148E+02 -0.26966007435E+03  0.29510435048E+03  0.92287843366E+02 0.  0.
          2    1    3    3  502    0  0.13011773253E+03 -0.62929887924E+00 -0.55538127454E+02  0.14147616031E+03  0.00000000000E+00 0. -1.
         -1    1    3    3    0  502  0.12044168356E+03  0.34691387725E+02 -0.13960297178E+03  0.18761311588E+03  0.00000000000E+00 0.  1.
         11    1    5    5    0    0 -0.11765665297E+03 -0.33419662526E+02  0.60163316187E+03  0.61394008119E+03  0.00000000000E+00 0.  1.
        -11    1    5    5    0    0 -0.59258957528E+02 -0.21368396468E+02  0.10643793904E+03  0.12368212192E+03  0.00000000000E+00 0. -1.
          1    1    6    6  503    0 -0.14874734290E+01  0.24842997074E+02 -0.12247048565E+02  0.27737650935E+02  0.00000000000E+00 0. -1.
         -1    1    6    6    0  503 -0.72156332165E+02 -0.41170269257E+01 -0.25741302579E+03  0.26736669955E+03  0.00000000000E+00 0.  1.
<mgrwt>
<rscale>  0 0.13399112E+04</rscale>
<asrwt>0</asrwt>
<pdfrwt beam="1">  1        2 0.12346814E+00 0.13399112E+04</pdfrwt>
<pdfrwt beam="2">  1       -1 0.86041992E-01 0.13399112E+04</pdfrwt>
<totfact> 0.51057461E+01</totfact>
</mgrwt>
</event>
<event>
12    6  0.1402540E-007  0.1770063E+04  0.7818608E-02  0.8722383E-01
          2   -1    0    0  501    0  0.00000000000E+00  0.00000000000E+00  0.16227584590E+04  0.16227584590E+04  0.00000000000E+00 0. -1.
         -1   -1    0    0    0  501 -0.00000000000E+00 -0.00000000000E+00 -0.48268490837E+03  0.48268490837E+03  0.00000000000E+00 0.  1.
         24    2    1    2    0    0 -0.30580669152E+03 -0.45250599398E+03  0.10196426538E+01  0.55383988802E+03  0.91968335468E+02 0.  0.
        254    2    1    2    0    0  0.30580669152E+03  0.45250599398E+03  0.11390539080E+04  0.15516034794E+04  0.90097177798E+03 0.  0.
         23    2    4    4    0    0  0.14438854920E+03  0.10556403407E+03  0.11406689719E+04  0.11581062669E+04  0.89958898884E+02 0.  0.
         23    2    4    4    0    0  0.16141814232E+03  0.34694195991E+03 -0.16150639463E+01  0.39349721246E+03  0.91721903424E+02 0.  0.
          4    1    3    3  502    0 -0.58892995640E+02 -0.80130792460E+02  0.35790543375E+02  0.10568960134E+03  0.00000000000E+00 0. -1.
         -3    1    3    3    0  502 -0.24691369588E+03 -0.37237520152E+03 -0.34770900722E+02  0.44815028669E+03  0.00000000000E+00 0.  1.
         11    1    5    5    0    0  0.11671673337E+03  0.10380747331E+03  0.10819811596E+04  0.10931980685E+04  0.00000000000E+00 0. -1.
        -11    1    5    5    0    0  0.27671815835E+02  0.17565607615E+01  0.58687812375E+02  0.64908198393E+02  0.00000000000E+00 0.  1.
          4    1    6    6  503    0  0.14035687881E+03  0.19644114449E+03  0.32197302273E+01  0.24145298371E+03  0.00000000000E+00 0. -1.
         -4    1    6    6    0  503  0.21061263503E+02  0.15050081542E+03 -0.48347941736E+01  0.15204422875E+03  0.00000000000E+00 0.  1.
<mgrwt>
<rscale>  0 0.17700633E+04</rscale>
<asrwt>0</asrwt>
<pdfrwt beam="1">  1        2 0.24965514E+00 0.17700633E+04</pdfrwt>
<pdfrwt beam="2">  1       -1 0.74259217E-01 0.17700633E+04</pdfrwt>
<totfact> 0.21311658E+01</totfact>
</mgrwt>
</event>
<event>
12    6  0.1402540E-007  0.1038336E+04  0.7818608E-02  0.9267470E-01
         -1   -1    0    0    0  501 -0.00000000000E+00  0.00000000000E+00  0.42273895942E+03  0.42273895942E+03  0.00000000000E+00 0.  1.
          2   -1    0    0  501    0  0.00000000000E+00 -0.00000000000E+00 -0.63759343864E+03  0.63759343864E+03  0.00000000000E+00 0. -1.
         24    2    1    2    0    0 -0.76619560047E+02 -0.59209039423E+02 -0.54169980267E+02  0.13613895985E+03  0.78887022352E+02 0.  0.
        254    2    1    2    0    0  0.76619560047E+02  0.59209039423E+02 -0.16068449895E+03  0.92419343820E+03  0.90495178639E+03 0.  0.
         23    2    4    4    0    0  0.22370827010E+03 -0.33892412760E+03  0.83679087083E+02  0.42571570162E+03  0.96523129926E+02 0.  0.
         23    2    4    4    0    0 -0.14708871005E+03  0.39813316703E+03 -0.24436358603E+03  0.49847773658E+03  0.92851410183E+02 0.  0.
          2    1    3    3  502    0 -0.55122414026E+02 -0.14102155053E+02 -0.63549343342E+02  0.85298712443E+02  0.00000000000E+00 0. -1.
         -1    1    3    3    0  502 -0.21497146021E+02 -0.45106884371E+02  0.93793630748E+01  0.50840247407E+02  0.00000000000E+00 0.  1.
         11    1    5    5    0    0  0.11070863938E+02 -0.53286634592E+02 -0.14521713321E+02  0.56328586102E+02  0.00000000000E+00 0.  1.
        -11    1    5    5    0    0  0.21263740616E+03 -0.28563749301E+03  0.98200800404E+02  0.36938711552E+03  0.00000000000E+00 0. -1.
          2    1    6    6  503    0 -0.57578565376E+02  0.15608396613E+03 -0.14905362466E+03  0.22337072033E+03  0.00000000000E+00 0. -1.
         -2    1    6    6    0  503 -0.89510144678E+02  0.24204920090E+03 -0.95309961370E+02  0.27510701625E+03  0.00000000000E+00 0.  1.
<mgrwt>
<rscale>  0 0.10383363E+04</rscale>
<asrwt>0</asrwt>
<pdfrwt beam="1">  1        2 0.98091298E-01 0.10383363E+04</pdfrwt>
<pdfrwt beam="2">  1       -1 0.65036763E-01 0.10383363E+04</pdfrwt>
<totfact> 0.12566782E+02</totfact>
</mgrwt>
</event>
<event>
12    6  0.1402540E-007  0.1228491E+04  0.7818608E-02  0.9088278E-01
          2   -1    0    0  501    0  0.00000000000E+00  0.00000000000E+00  0.74631412939E+03  0.74631412939E+03  0.00000000000E+00 0. -1.
         -1   -1    0    0    0  501 -0.00000000000E+00 -0.00000000000E+00 -0.50554792380E+03  0.50554792380E+03  0.00000000000E+00 0.  1.
         24    2    1    2    0    0  0.92648765690E+02  0.25222080124E+03  0.11760575572E+03  0.30424348764E+03  0.80832293226E+02 0.  0.
        254    2    1    2    0    0 -0.92648765690E+02 -0.25222080124E+03  0.12316044988E+03  0.94761856555E+03  0.90034067052E+03 0.  0.
         23    2    4    4    0    0  0.31151241141E+02  0.24652358608E+03  0.29665824814E+03  0.39767064500E+03  0.91605389496E+02 0.  0.
         23    2    4    4    0    0 -0.12380000683E+03 -0.49874438732E+03 -0.17349779827E+03  0.54994792055E+03  0.90933072833E+02 0.  0.
          4    1    3    3  502    0  0.10926899792E+02  0.12903714856E+03  0.78108576030E+02  0.15123138728E+03  0.00000000000E+00 0. -1.
         -3    1    3    3    0  502  0.81721865898E+02  0.12318365268E+03  0.39497179692E+02  0.15301210036E+03  0.00000000000E+00 0.  1.
         11    1    5    5    0    0  0.82628506013E+01 -0.52238966201E+01  0.30620817449E+01  0.10244029508E+02  0.00000000000E+00 0. -1.
        -11    1    5    5    0    0  0.22888390540E+02  0.25174748270E+03  0.29359616640E+03  0.38742661549E+03  0.00000000000E+00 0.  1.
          4    1    6    6  503    0 -0.46592490399E+02 -0.36030397521E+03 -0.11746617288E+03  0.38182210057E+03  0.00000000000E+00 0.  1.
         -4    1    6    6    0  503 -0.77207516432E+02 -0.13844041212E+03 -0.56031625389E+02  0.16812581998E+03  0.00000000000E+00 0. -1.
<mgrwt>
<rscale>  0 0.12284910E+04</rscale>
<asrwt>0</asrwt>
<pdfrwt beam="1">  1        2 0.11481756E+00 0.12284910E+04</pdfrwt>
<pdfrwt beam="2">  1       -1 0.77776603E-01 0.12284910E+04</pdfrwt>
<totfact> 0.70329876E+01</totfact>
</mgrwt>
</event>
<event>
12    6  0.1402540E-007  0.3347127E+04  0.7818608E-02  0.8151006E-01
          2   -1    0    0  501    0  0.00000000000E+00  0.00000000000E+00  0.15218415368E+04  0.15218415368E+04  0.00000000000E+00 0. -1.
         -1   -1    0    0    0  501 -0.00000000000E+00 -0.00000000000E+00 -0.18404120465E+04  0.18404120465E+04  0.00000000000E+00 0.  1.
         24    2    1    2    0    0  0.13474522477E+04 -0.18265987231E+03 -0.89896237774E+03  0.16316471585E+04  0.71741929658E+02 0.  0.
        254    2    1    2    0    0 -0.13474522477E+04  0.18265987231E+03  0.58039186811E+03  0.17306064248E+04  0.89952859222E+03 0.  0.
         23    2    4    4    0    0 -0.10460109784E+03 -0.60915301581E+02 -0.19144695869E+03  0.24468913146E+03  0.92567647843E+02 0.  0.
         23    2    4    4    0    0 -0.12428511499E+04  0.24357517389E+03  0.77183882680E+03  0.14859172934E+04  0.90593498858E+02 0.  0.
          2    1    3    3  502    0  0.11062025468E+04 -0.13819807801E+03 -0.76615070408E+03  0.13526897962E+04  0.00000000000E+00 0. -1.
         -1    1    3    3    0  502  0.24124970089E+03 -0.44461794292E+02 -0.13281167366E+03  0.27895736231E+03  0.00000000000E+00 0.  1.
         11    1    5    5    0    0 -0.37976339049E+02 -0.84533907012E+01 -0.14044236231E+03  0.14573166874E+03  0.00000000000E+00 0. -1.
        -11    1    5    5    0    0 -0.66624758790E+02 -0.52461910880E+02 -0.51004596386E+02  0.98957462727E+02  0.00000000000E+00 0.  1.
          2    1    6    6  503    0 -0.12026733636E+03  0.30080191255E+02  0.46296055259E+02  0.13233432976E+03  0.00000000000E+00 0. -1.
         -2    1    6    6    0  503 -0.11225838135E+04  0.21349498263E+03  0.72554277154E+03  0.13535829636E+04  0.00000000000E+00 0.  1.
<mgrwt>
<rscale>  0 0.33471274E+04</rscale>
<asrwt>0</asrwt>
<pdfrwt beam="1">  1        2 0.23412947E+00 0.33471274E+04</pdfrwt>
<pdfrwt beam="2">  1       -1 0.28314032E+00 0.33471274E+04</pdfrwt>
<totfact> 0.49634477E-01</totfact>
</mgrwt>
</event>
<event>
12    6  0.1402540E-007  0.1659047E+04  0.7818608E-02  0.8785073E-01
         -1   -1    0    0    0  501 -0.00000000000E+00  0.00000000000E+00  0.11549484522E+04  0.11549484522E+04  0.00000000000E+00 0.  1.
          2   -1    0    0  501    0  0.00000000000E+00 -0.00000000000E+00 -0.59579182182E+03  0.59579182182E+03  0.00000000000E+00 0. -1.
         24    2    1    2    0    0 -0.20658983448E+03 -0.33462262551E+03 -0.25456719413E+03  0.47559437552E+03  0.82060297909E+02 0.  0.
        254    2    1    2    0    0  0.20658983448E+03  0.33462262551E+03  0.81372382452E+03  0.12751458985E+04  0.89955485584E+03 0.  0.
         23    2    4    4    0    0  0.45862055727E+03  0.43797972050E+03  0.74021882504E+03  0.97880251570E+03  0.89282723278E+02 0.  0.
         23    2    4    4    0    0 -0.25203072279E+03 -0.10335709500E+03  0.73504999473E+02  0.29634338279E+03  0.90632451465E+02 0.  0.
          4    1    3    3  502    0 -0.56135038409E+02 -0.74652970621E+02 -0.10337099922E+03  0.13931895793E+03  0.00000000000E+00 0. -1.
         -3    1    3    3    0  502 -0.15045479607E+03 -0.25996965488E+03 -0.15119619491E+03  0.33627541759E+03  0.00000000000E+00 0.  1.
         11    1    5    5    0    0  0.43825472004E+02  0.84273282493E+02  0.99434990181E+02  0.13751354628E+03  0.00000000000E+00 0.  1.
        -11    1    5    5    0    0  0.41479508527E+03  0.35370643801E+03  0.64078383486E+03  0.84128896942E+03  0.00000000000E+00 0. -1.
          2    1    6    6  503    0 -0.17584435173E+03 -0.26100845940E+02  0.56381044544E+02  0.18649748625E+03  0.00000000000E+00 0. -1.
         -2    1    6    6    0  503 -0.76186371067E+02 -0.77256249060E+02  0.17123954929E+02  0.10984589654E+03  0.00000000000E+00 0.  1.
<mgrwt>
<rscale>  0 0.16590465E+04</rscale>
<asrwt>0</asrwt>
<pdfrwt beam="1">  1        2 0.91660281E-01 0.16590465E+04</pdfrwt>
<pdfrwt beam="2">  1       -1 0.17768438E+00 0.16590465E+04</pdfrwt>
<totfact> 0.11796778E+01</totfact>
</mgrwt>
</event>
<event>
12    6  0.1402540E-007  0.1929263E+04  0.7818608E-02  0.8640426E-01
          2   -1    0    0  501    0  0.00000000000E+00  0.00000000000E+00  0.16129568383E+04  0.16129568383E+04  0.00000000000E+00 0. -1.
         -1   -1    0    0    0  501 -0.00000000000E+00 -0.00000000000E+00 -0.57689939104E+03  0.57689939104E+03  0.00000000000E+00 0.  1.
         24    2    1    2    0    0  0.11662953447E+03  0.40575544728E+03  0.11129666787E+04  0.11932616804E+04  0.83298731896E+02 0.  0.
        254    2    1    2    0    0 -0.11662953447E+03 -0.40575544728E+03 -0.76909231422E+02  0.99659454895E+03  0.89946969589E+03 0.  0.
         23    2    4    4    0    0  0.28309674224E+03 -0.70685078852E+02  0.23191994510E+03  0.38383276244E+03  0.91654692973E+02 0.  0.
         23    2    4    4    0    0 -0.39972627671E+03 -0.33507036843E+03 -0.30882917652E+03  0.61276178652E+03  0.89712310507E+02 0.  0.
          4    1    3    3  502    0  0.96312762951E+02  0.32766473261E+03  0.97911236168E+03  0.10369673775E+04  0.00000000000E+00 0. -1.
         -3    1    3    3    0  502  0.20316771518E+02  0.78090714664E+02  0.13385431699E+03  0.15629430284E+03  0.00000000000E+00 0.  1.
         11    1    5    5    0    0  0.18830459031E+03 -0.52697691972E+01  0.16628439421E+03  0.25127054932E+03  0.00000000000E+00 0. -1.
        -11    1    5    5    0    0  0.94792151932E+02 -0.65415309655E+02  0.65635550894E+02  0.13256221312E+03  0.00000000000E+00 0.  1.
          1    1    6    6  503    0 -0.98614828167E+02 -0.86676487262E+02 -0.12506647743E+03  0.18132656053E+03  0.00000000000E+00 0. -1.
         -1    1    6    6    0  503 -0.30111144854E+03 -0.24839388116E+03 -0.18376269910E+03  0.43143522599E+03  0.00000000000E+00 0.  1.
<mgrwt>
<rscale>  0 0.19292629E+04</rscale>
<asrwt>0</asrwt>
<pdfrwt beam="1">  1        2 0.24814720E+00 0.19292629E+04</pdfrwt>
<pdfrwt beam="2">  1       -1 0.88753754E-01 0.19292629E+04</pdfrwt>
<totfact> 0.14541125E+01</totfact>
</mgrwt>
</event>
<event>
12    6  0.1402540E-007  0.2952451E+04  0.7818608E-02  0.8257441E-01
         -1   -1    0    0    0  501 -0.00000000000E+00  0.00000000000E+00  0.95077011869E+03  0.95077011869E+03  0.00000000000E+00 0.  1.
          2   -1    0    0  501    0  0.00000000000E+00 -0.00000000000E+00 -0.22920801356E+04  0.22920801356E+04  0.00000000000E+00 0. -1.
         24    2    1    2    0    0  0.39074573839E+03 -0.11323744920E+04 -0.12616034994E+04  0.17414518376E+04  0.77826029986E+02 0.  0.
        254    2    1    2    0    0 -0.39074573839E+03  0.11323744920E+04 -0.79706517529E+02  0.15013984166E+04  0.90160404521E+03 0.  0.
         23    2    4    4    0    0  0.21408269703E+03  0.50957860267E+03 -0.24826063961E+03  0.61234620721E+03  0.88502987714E+02 0.  0.
         23    2    4    4    0    0 -0.60482843541E+03  0.62279588933E+03  0.16855412208E+03  0.88905220944E+03  0.91165689686E+02 0.  0.
          4    1    3    3  502    0  0.16708516073E+03 -0.60216803217E+03 -0.64869909518E+03  0.90074097608E+03  0.00000000000E+00 0. -1.
         -3    1    3    3    0  502  0.22366057765E+03 -0.53020645984E+03 -0.61290440418E+03  0.84071086155E+03  0.00000000000E+00 0.  1.
         11    1    5    5    0    0  0.11973446513E+03  0.23972677726E+03 -0.16461978293E+03  0.31449156238E+03  0.00000000000E+00 0.  1.
        -11    1    5    5    0    0  0.94348231897E+02  0.26985182541E+03 -0.83640856682E+02  0.29785464483E+03  0.00000000000E+00 0. -1.
          2    1    6    6  503    0 -0.51927975322E+03  0.49077096566E+03  0.12074073110E+03  0.72462813014E+03  0.00000000000E+00 0. -1.
         -2    1    6    6    0  503 -0.85548682195E+02  0.13202492367E+03  0.47813390982E+02  0.16442407930E+03  0.00000000000E+00 0.  1.
<mgrwt>
<rscale>  0 0.29524507E+04</rscale>
<asrwt>0</asrwt>
<pdfrwt beam="1">  1        2 0.35262771E+00 0.29524507E+04</pdfrwt>
<pdfrwt beam="2">  1       -1 0.14627233E+00 0.29524507E+04</pdfrwt>
<totfact> 0.16705466E+00</totfact>
</mgrwt>
</event>
<event>
12    6  0.1402540E-007  0.1636558E+04  0.7818608E-02  0.8798399E-01
          2   -1    0    0  501    0  0.00000000000E+00  0.00000000000E+00  0.27167739710E+04  0.27167739710E+04  0.00000000000E+00 0. -1.
         -3   -1    0    0    0  501 -0.00000000000E+00 -0.00000000000E+00 -0.24646158577E+03  0.24646158577E+03  0.00000000000E+00 0.  1.
         24    2    1    2    0    0  0.41198283978E+03 -0.38082951623E+03  0.71830582844E+03  0.91586274619E+03  0.89890633459E+02 0.  0.
        254    2    1    2    0    0 -0.41198283978E+03  0.38082951623E+03  0.17520065568E+04  0.20473728106E+04  0.89858080871E+03 0.  0.
         23    2    4    4    0    0  0.29599177506E+02  0.24513247064E+03  0.14787120076E+04  0.15019436985E+04  0.90992487066E+02 0.  0.
         23    2    4    4    0    0 -0.44158201729E+03  0.13569704560E+03  0.27329454924E+03  0.54542911209E+03  0.96925948510E+02 0.  0.
          2    1    3    3  502    0  0.16153551352E+03 -0.17434526376E+03  0.36996206986E+03  0.43972937844E+03  0.00000000000E+00 0. -1.
         -1    1    3    3    0  502  0.25044732626E+03 -0.20648425247E+03  0.34834375858E+03  0.47613336775E+03  0.00000000000E+00 0.  1.
         11    1    5    5    0    0 -0.21911004490E+00  0.16036199403E+03  0.11516504613E+04  0.11627617134E+04  0.00000000000E+00 0. -1.
        -11    1    5    5    0    0  0.29818287551E+02  0.84770476609E+02  0.32706154630E+03  0.33918198514E+03  0.00000000000E+00 0.  1.
          1    1    6    6  503    0 -0.37469232430E+03  0.14586669484E+03  0.21410950388E+03  0.45553738617E+03  0.00000000000E+00 0. -1.
         -1    1    6    6    0  503 -0.66889692994E+02 -0.10169649239E+02  0.59185045359E+02  0.89891725918E+02  0.00000000000E+00 0.  1.
<mgrwt>
<rscale>  0 0.16365579E+04</rscale>
<asrwt>0</asrwt>
<pdfrwt beam="1">  1        2 0.41796520E+00 0.16365579E+04</pdfrwt>
<pdfrwt beam="2">  1       -3 0.37917169E-01 0.16365579E+04</pdfrwt>
<totfact> 0.11122157E+01</totfact>
</mgrwt>
</event>
<event>
12    6  0.1402540E-007  0.1977115E+04  0.7818608E-02  0.8617396E-01
         -1   -1    0    0    0  501 -0.00000000000E+00  0.00000000000E+00  0.25701285737E+03  0.25701285737E+03  0.00000000000E+00 0.  1.
          2   -1    0    0  501    0  0.00000000000E+00 -0.00000000000E+00 -0.38023226683E+04  0.38023226683E+04  0.00000000000E+00 0. -1.
         24    2    1    2    0    0 -0.37827646640E+03  0.67979566532E+03 -0.15334904911E+04  0.17213549226E+04  0.79085092393E+02 0.  0.
        254    2    1    2    0    0  0.37827646640E+03 -0.67979566532E+03 -0.20118193198E+04  0.23379806030E+04  0.90195404140E+03 0.  0.
         23    2    4    4    0    0 -0.25036436037E+03 -0.41396078659E+03 -0.99188959448E+03  0.11073399965E+04  0.91164985148E+02 0.  0.
         23    2    4    4    0    0  0.62864082677E+03 -0.26583487873E+03 -0.10199297254E+04  0.12306406065E+04  0.91444987896E+02 0.  0.
          2    1    3    3  502    0 -0.15863411408E+03  0.36370847329E+03 -0.75622407445E+03  0.85400438317E+03  0.00000000000E+00 0. -1.
         -1    1    3    3    0  502 -0.21964235232E+03  0.31608719203E+03 -0.77726641660E+03  0.86735053945E+03  0.00000000000E+00 0.  1.
         11    1    5    5    0    0 -0.23249348553E+03 -0.33621303359E+03 -0.77408883486E+03  0.87538902724E+03  0.00000000000E+00 0. -1.
        -11    1    5    5    0    0 -0.17870874843E+02 -0.77747753001E+02 -0.21780075962E+03  0.23195096929E+03  0.00000000000E+00 0.  1.
          1    1    6    6  503    0  0.37002044367E+03 -0.11509938354E+03 -0.61900089277E+03  0.73029110777E+03  0.00000000000E+00 0. -1.
         -1    1    6    6    0  503  0.25862038310E+03 -0.15073549519E+03 -0.40092883258E+03  0.50034949871E+03  0.00000000000E+00 0.  1.
<mgrwt>
<rscale>  0 0.19771149E+04</rscale>
<asrwt>0</asrwt>
<pdfrwt beam="1">  1        2 0.58497268E+00 0.19771149E+04</pdfrwt>
<pdfrwt beam="2">  1       -1 0.39540442E-01 0.19771149E+04</pdfrwt>
<totfact> 0.32521681E+00</totfact>
</mgrwt>
</event>
<event>
12    6  0.1402540E-007  0.1534736E+04  0.7818608E-02  0.8861677E-01
         -1   -1    0    0    0  501 -0.00000000000E+00  0.00000000000E+00  0.43265665579E+03  0.43265665579E+03  0.00000000000E+00 0.  1.
          2   -1    0    0  501    0  0.00000000000E+00 -0.00000000000E+00 -0.13610189862E+04  0.13610189862E+04  0.00000000000E+00 0. -1.
         24    2    1    2    0    0  0.71312418357E+02 -0.48278877883E+03 -0.21381946336E+03  0.54160633051E+03  0.97201791972E+02 0.  0.
        254    2    1    2    0    0 -0.71312418357E+02  0.48278877883E+03 -0.71454286706E+03  0.12520693115E+04  0.90495059862E+03 0.  0.
         23    2    4    4    0    0 -0.22189475366E+03 -0.20597606917E+03 -0.25125425714E+03  0.40350955843E+03  0.89598210016E+02 0.  0.
         23    2    4    4    0    0  0.15058233531E+03  0.68876484800E+03 -0.46328860992E+03  0.84855975306E+03  0.91352410370E+02 0.  0.
          4    1    3    3  502    0  0.57542753053E+02 -0.11419703691E+03 -0.69383761806E+02  0.14548621265E+03  0.00000000000E+00 0. -1.
         -3    1    3    3    0  502  0.13769665304E+02 -0.36859174191E+03 -0.14443570155E+03  0.39612011786E+03  0.00000000000E+00 0.  1.
         11    1    5    5    0    0  0.39287446047E+01  0.37505200776E+01 -0.12591181512E+02  0.13712741772E+02  0.00000000000E+00 0. -1.
        -11    1    5    5    0    0 -0.22582349827E+03 -0.20972658925E+03 -0.23866307563E+03  0.38979681666E+03  0.00000000000E+00 0.  1.
          2    1    6    6  503    0  0.33316963555E+02  0.90562859738E+02 -0.99821074743E+02  0.13883766991E+03  0.00000000000E+00 0. -1.
         -2    1    6    6    0  503  0.11726537175E+03  0.59820198826E+03 -0.36346753517E+03  0.70972208314E+03  0.00000000000E+00 0.  1.
<mgrwt>
<rscale>  0 0.15347364E+04</rscale>
<asrwt>0</asrwt>
<pdfrwt beam="1">  1        2 0.20938753E+00 0.15347364E+04</pdfrwt>
<pdfrwt beam="2">  1       -1 0.66562565E-01 0.15347364E+04</pdfrwt>
<totfact> 0.38275378E+01</totfact>
</mgrwt>
</event>
<event>
12    6  0.1402540E-007  0.3788770E+04  0.7818608E-02  0.8048569E-01
          2   -1    0    0  501    0  0.00000000000E+00  0.00000000000E+00  0.16912587130E+04  0.16912587130E+04  0.00000000000E+00 0. -1.
         -1   -1    0    0    0  501 -0.00000000000E+00 -0.00000000000E+00 -0.21219078748E+04  0.21219078748E+04  0.00000000000E+00 0.  1.
         24    2    1    2    0    0 -0.15654016797E+04 -0.28933901639E+03  0.61319896888E+03  0.17078315574E+04  0.80474640923E+02 0.  0.
        254    2    1    2    0    0  0.15654016797E+04  0.28933901639E+03 -0.10438481307E+04  0.21053350305E+04  0.89923144147E+03 0.  0.
         23    2    4    4    0    0  0.16456192748E+03 -0.35636619043E+02 -0.54964511661E+03  0.58204083318E+03  0.91165677115E+02 0.  0.
         23    2    4    4    0    0  0.14008397522E+04  0.32497563543E+03 -0.49420301406E+03  0.15232941973E+04  0.90705111773E+02 0.  0.
          2    1    3    3  502    0 -0.16516525035E+03 -0.41883393540E+02  0.89962807177E+02  0.19268389983E+03  0.00000000000E+00 0. -1.
         -1    1    3    3    0  502 -0.14002364294E+04 -0.24745562285E+03  0.52323616170E+03  0.15151476576E+04  0.00000000000E+00 0.  1.
         11    1    5    5    0    0  0.12317799997E+03  0.10040322456E+02 -0.43061964741E+03  0.44800324607E+03  0.00000000000E+00 0. -1.
        -11    1    5    5    0    0  0.41383927511E+02 -0.45676941498E+02 -0.11902546920E+03  0.13403758711E+03  0.00000000000E+00 0.  1.
          1    1    6    6  503    0  0.10239405063E+04  0.24712376723E+03 -0.32021559710E+03  0.11009370306E+04  0.00000000000E+00 0. -1.
         -1    1    6    6    0  503  0.37689924596E+03  0.77851868204E+02 -0.17398741696E+03  0.42235716668E+03  0.00000000000E+00 0.  1.
<mgrwt>
<rscale>  0 0.37887703E+04</rscale>
<asrwt>0</asrwt>
<pdfrwt beam="1">  1        2 0.26019365E+00 0.37887703E+04</pdfrwt>
<pdfrwt beam="2">  1       -1 0.32644736E+00 0.37887703E+04</pdfrwt>
<totfact> 0.20118222E-01</totfact>
</mgrwt>
</event>
<event>
12    6  0.1402540E-007  0.3375634E+04  0.7818608E-02  0.8143912E-01
          2   -1    0    0  501    0  0.00000000000E+00  0.00000000000E+00  0.19301653482E+04  0.19301653482E+04  0.00000000000E+00 0. -1.
         -1   -1    0    0    0  501 -0.00000000000E+00 -0.00000000000E+00 -0.14758979392E+04  0.14758979392E+04  0.00000000000E+00 0.  1.
         24    2    1    2    0    0 -0.64195466725E+03 -0.11937652907E+04 -0.58216650790E+03  0.14773067263E+04  0.79598722140E+02 0.  0.
        254    2    1    2    0    0  0.64195466725E+03  0.11937652907E+04  0.10364339168E+04  0.19287565611E+04  0.89929152330E+03 0.  0.
         23    2    4    4    0    0  0.54811130865E+03  0.73609509486E+03  0.16733460278E+03  0.93740647568E+03  0.92021932197E+02 0.  0.
         23    2    4    4    0    0  0.93843358599E+02  0.45767019587E+03  0.86909931405E+03  0.99135008542E+03  0.95774683709E+02 0.  0.
          4    1    3    3  502    0 -0.24718709626E+02 -0.80004948363E+02 -0.25015891764E+02  0.87393370509E+02  0.00000000000E+00 0. -1.
         -3    1    3    3    0  502 -0.61723595762E+03 -0.11137603424E+04 -0.55715061613E+03  0.13899133558E+04  0.00000000000E+00 0.  1.
         11    1    5    5    0    0  0.20515275338E+03  0.30619494742E+03  0.10917810816E+03  0.38439934618E+03  0.00000000000E+00 0. -1.
        -11    1    5    5    0    0  0.34295855527E+03  0.42990014744E+03  0.58156494611E+02  0.55300712950E+03  0.00000000000E+00 0.  1.
          1    1    6    6  503    0 -0.16432319975E+01  0.78942041679E+02  0.22070080382E+03  0.23440006605E+03  0.00000000000E+00 0. -1.
         -1    1    6    6    0  503  0.95486590596E+02  0.37872815419E+03  0.64839851023E+03  0.75695001937E+03  0.00000000000E+00 0.  1.
<mgrwt>
<rscale>  0 0.33756345E+04</rscale>
<asrwt>0</asrwt>
<pdfrwt beam="1">  1        2 0.29694852E+00 0.33756345E+04</pdfrwt>
<pdfrwt beam="2">  1       -1 0.22706122E+00 0.33756345E+04</pdfrwt>
<totfact> 0.68118963E-01</totfact>
</mgrwt>
</event>
<event>
12    6  0.1402540E-007  0.2984281E+04  0.7818608E-02  0.8248234E-01
          2   -1    0    0  501    0  0.00000000000E+00  0.00000000000E+00  0.11383878571E+04  0.11383878571E+04  0.00000000000E+00 0. -1.
         -1   -1    0    0    0  501 -0.00000000000E+00 -0.00000000000E+00 -0.19558213878E+04  0.19558213878E+04  0.00000000000E+00 0.  1.
         24    2    1    2    0    0 -0.17022432571E+03 -0.93689524696E+03  0.62711929378E+03  0.11429779897E+04  0.79818866305E+02 0.  0.
        254    2    1    2    0    0  0.17022432571E+03  0.93689524696E+03 -0.14445528245E+04  0.19512312552E+04  0.90212057041E+03 0.  0.
         23    2    4    4    0    0 -0.10829406158E+03  0.37321483162E+03 -0.26658922311E+02  0.39771146263E+03  0.80291936418E+02 0.  0.
         23    2    4    4    0    0  0.27851838729E+03  0.56368041534E+03 -0.14178939022E+04  0.15535197926E+04  0.87707042267E+02 0.  0.
          4    1    3    3  502    0 -0.42507354137E+02 -0.27439284607E+03  0.14116474467E+03  0.31148963750E+03  0.00000000000E+00 0. -1.
         -3    1    3    3    0  502 -0.12771697157E+03 -0.66250240089E+03  0.48595454911E+03  0.83148835219E+03  0.00000000000E+00 0.  1.
         11    1    5    5    0    0  0.55245330050E+01  0.28980415027E+02  0.14403360408E+02  0.32830499708E+02  0.00000000000E+00 0. -1.
        -11    1    5    5    0    0 -0.11381859458E+03  0.34423441659E+03 -0.41062282719E+02  0.36488096292E+03  0.00000000000E+00 0.  1.
          1    1    6    6  503    0  0.89058729354E+02  0.19439367231E+03 -0.38571122323E+03  0.44101417759E+03  0.00000000000E+00 0. -1.
         -1    1    6    6    0  503  0.18945965794E+03  0.36928674303E+03 -0.10321826790E+04  0.11125056150E+04  0.00000000000E+00 0.  1.
<mgrwt>
<rscale>  0 0.29842810E+04</rscale>
<asrwt>0</asrwt>
<pdfrwt beam="1">  1        2 0.17513659E+00 0.29842810E+04</pdfrwt>
<pdfrwt beam="2">  1       -1 0.30089560E+00 0.29842810E+04</pdfrwt>
<totfact> 0.65663081E-01</totfact>
</mgrwt>
</event>
<event>
12    6  0.1402540E-007  0.1926027E+04  0.7818608E-02  0.8642008E-01
          2   -1    0    0  501    0  0.00000000000E+00  0.00000000000E+00  0.15999358300E+04  0.15999358300E+04  0.00000000000E+00 0. -1.
         -1   -1    0    0    0  501 -0.00000000000E+00 -0.00000000000E+00 -0.57964535250E+03  0.57964535250E+03  0.00000000000E+00 0.  1.
         24    2    1    2    0    0 -0.22355550124E+03 -0.55671037319E+03  0.90932976734E+03  0.10923247448E+04  0.79932600071E+02 0.  0.
        254    2    1    2    0    0  0.22355550124E+03  0.55671037319E+03  0.11096071017E+03  0.10872564377E+04  0.89995043220E+03 0.  0.
         23    2    4    4    0    0 -0.99164997558E+02  0.68414271368E+03 -0.38903272763E+02  0.69864491295E+03  0.93307557730E+02 0.  0.
         23    2    4    4    0    0  0.32272049879E+03 -0.12743234049E+03  0.14986398293E+03  0.38861152477E+03  0.90400122026E+02 0.  0.
          2    1    3    3  502    0 -0.15580541995E+03 -0.46695643958E+03  0.75709976645E+03  0.90306350923E+03  0.00000000000E+00 0. -1.
         -1    1    3    3    0  502 -0.67750081280E+02 -0.89753933613E+02  0.15223000089E+03  0.18926123555E+03  0.00000000000E+00 0.  1.
         11    1    5    5    0    0  0.20135787336E+01  0.15906383323E+03  0.21431194988E+02  0.16051371798E+03  0.00000000000E+00 0. -1.
        -11    1    5    5    0    0 -0.10117857629E+03  0.52507888045E+03 -0.60334467752E+02  0.53813119496E+03  0.00000000000E+00 0.  1.
          1    1    6    6  503    0  0.15911976160E+03 -0.69364705717E+02  0.26383523924E+02  0.17557520117E+03  0.00000000000E+00 0. -1.
         -1    1    6    6    0  503  0.16360073720E+03 -0.58067634776E+02  0.12348045901E+03  0.21303632361E+03  0.00000000000E+00 0.  1.
<mgrwt>
<rscale>  0 0.19260274E+04</rscale>
<asrwt>0</asrwt>
<pdfrwt beam="1">  1        2 0.24614397E+00 0.19260274E+04</pdfrwt>
<pdfrwt beam="2">  1       -1 0.89176209E-01 0.19260274E+04</pdfrwt>
<totfact> 0.14637554E+01</totfact>
</mgrwt>
</event>
<event>
12    6  0.1402540E-007  0.1956613E+04  0.7818608E-02  0.8627179E-01
          2   -1    0    0  501    0  0.00000000000E+00  0.00000000000E+00  0.31770650789E+04  0.31770650789E+04  0.00000000000E+00 0. -1.
         -1   -1    0    0    0  501 -0.00000000000E+00 -0.00000000000E+00 -0.30124761187E+03  0.30124761187E+03  0.00000000000E+00 0.  1.
         24    2    1    2    0    0  0.38594459713E+03  0.53176369944E+03  0.42695556127E+03  0.78770852105E+03  0.80422625788E+02 0.  0.
        254    2    1    2    0    0 -0.38594459713E+03 -0.53176369944E+03  0.24488619058E+04  0.26906041697E+04  0.90038897180E+03 0.  0.
         23    2    4    4    0    0 -0.47284424140E+03  0.51748921782E+02  0.78123145519E+03  0.91933717839E+03  0.92728816765E+02 0.  0.
         23    2    4    4    0    0  0.86899644264E+02 -0.58351262122E+03  0.16676304506E+04  0.17712669913E+04  0.91416123414E+02 0.  0.
          2    1    3    3  502    0  0.16573522372E+03  0.20272384886E+03  0.21380757550E+03  0.33805147924E+03  0.00000000000E+00 0. -1.
         -1    1    3    3    0  502  0.22020937341E+03  0.32903985059E+03  0.21314798577E+03  0.44965704181E+03  0.00000000000E+00 0.  1.
         11    1    5    5    0    0 -0.13391738314E+02 -0.11235209285E+02  0.54597377889E+02  0.57327499990E+02  0.00000000000E+00 0.  1.
        -11    1    5    5    0    0 -0.45945250308E+03  0.62984131067E+02  0.72663407730E+03  0.86200967840E+03  0.00000000000E+00 0. -1.
          4    1    6    6  503    0  0.11243458975E+02 -0.35968146675E+03  0.10526679637E+04  0.11124778715E+04  0.00000000000E+00 0. -1.
         -4    1    6    6    0  503  0.75656185289E+02 -0.22383115448E+03  0.61496248689E+03  0.65878911980E+03  0.00000000000E+00 0.  1.
<mgrwt>
<rscale>  0 0.19566127E+04</rscale>
<asrwt>0</asrwt>
<pdfrwt beam="1">  1        2 0.48877922E+00 0.19566127E+04</pdfrwt>
<pdfrwt beam="2">  1       -1 0.46345788E-01 0.19566127E+04</pdfrwt>
<totfact> 0.66252169E+00</totfact>
</mgrwt>
</event>
<event>
12    6  0.1402540E-007  0.3540194E+04  0.7818608E-02  0.8104330E-01
          2   -1    0    0  501    0  0.00000000000E+00  0.00000000000E+00  0.13323434434E+04  0.13323434434E+04  0.00000000000E+00 0. -1.
         -1   -1    0    0    0  501 -0.00000000000E+00 -0.00000000000E+00 -0.23516790608E+04  0.23516790608E+04  0.00000000000E+00 0.  1.
         24    2    1    2    0    0  0.12069196985E+04 -0.48425709325E+03  0.58767416145E+03  0.14293438822E+04  0.80640700518E+02 0.  0.
        254    2    1    2    0    0 -0.12069196985E+04  0.48425709325E+03 -0.16070097789E+04  0.22546786220E+04  0.89996398155E+03 0.  0.
         23    2    4    4    0    0 -0.30919050664E+03 -0.25005544697E+03 -0.53702994341E+03  0.67455106526E+03  0.92149246123E+02 0.  0.
         23    2    4    4    0    0 -0.89772919190E+03  0.73431254021E+03 -0.10699798354E+04  0.15801275567E+04  0.82544767420E+02 0.  0.
          2    1    3    3  502    0  0.21936889622E+03 -0.84776722083E+02  0.14092072235E+03  0.27416866200E+03  0.00000000000E+00 0. -1.
         -1    1    3    3    0  502  0.98755080233E+03 -0.39948037116E+03  0.44675343910E+03  0.11551752202E+04  0.00000000000E+00 0.  1.
         11    1    5    5    0    0 -0.29098478768E+02 -0.68162573120E+02 -0.10348851046E+03  0.12728994319E+03  0.00000000000E+00 0.  1.
        -11    1    5    5    0    0 -0.28009202787E+03 -0.18189287385E+03 -0.43354143296E+03  0.54726112207E+03  0.00000000000E+00 0. -1.
          2    1    6    6  503    0 -0.75714677204E+03  0.65173505652E+03 -0.93813901114E+03  0.13704505181E+04  0.00000000000E+00 0. -1.
         -2    1    6    6    0  503 -0.14058241986E+03  0.82577483696E+02 -0.13184082430E+03  0.20967703866E+03  0.00000000000E+00 0.  1.
<mgrwt>
<rscale>  0 0.35401944E+04</rscale>
<asrwt>0</asrwt>
<pdfrwt beam="1">  1        2 0.20497592E+00 0.35401944E+04</pdfrwt>
<pdfrwt beam="2">  1       -1 0.36179677E+00 0.35401944E+04</pdfrwt>
<totfact> 0.19138362E-01</totfact>
</mgrwt>
</event>
<event>
12    6  0.1402540E-007  0.4110349E+04  0.7818608E-02  0.7982648E-01
         -1   -1    0    0    0  501 -0.00000000000E+00  0.00000000000E+00  0.26018322177E+04  0.26018322177E+04  0.00000000000E+00 0.  1.
          2   -1    0    0  501    0  0.00000000000E+00 -0.00000000000E+00 -0.16233723649E+04  0.16233723649E+04  0.00000000000E+00 0. -1.
         24    2    1    2    0    0 -0.74905375367E+03 -0.13272134115E+04  0.17266616689E+04  0.23043404991E+04  0.77766646355E+02 0.  0.
        254    2    1    2    0    0  0.74905375367E+03  0.13272134115E+04 -0.74820181617E+03  0.19208640835E+04  0.89851872763E+03 0.  0.
         23    2    4    4    0    0  0.83692278672E+03  0.96699078292E+03 -0.27213056243E+03  0.13105806952E+04  0.89754054697E+02 0.  0.
         23    2    4    4    0    0 -0.87869033048E+02  0.36022262863E+03 -0.47607125374E+03  0.61028338834E+03  0.91217686380E+02 0.  0.
          4    1    3    3  502    0 -0.89446181985E+02 -0.11365674588E+03  0.15534620465E+03  0.21225201685E+03  0.00000000000E+00 0. -1.
         -3    1    3    3    0  502 -0.65960757169E+03 -0.12135566657E+04  0.15713154643E+04  0.20920884823E+04  0.00000000000E+00 0.  1.
         11    1    5    5    0    0  0.65373052764E+03  0.80880953443E+03 -0.22303350027E+03  0.10636166640E+04  0.00000000000E+00 0. -1.
        -11    1    5    5    0    0  0.18319225908E+03  0.15818124849E+03 -0.49097062167E+02  0.24696403114E+03  0.00000000000E+00 0.  1.
          2    1    6    6  503    0 -0.78737191643E+02  0.14588637652E+03 -0.23484393823E+03  0.28746139832E+03  0.00000000000E+00 0. -1.
         -2    1    6    6    0  503 -0.91318414053E+01  0.21433625210E+03 -0.24122731551E+03  0.32282199002E+03  0.00000000000E+00 0.  1.
<mgrwt>
<rscale>  0 0.41103491E+04</rscale>
<asrwt>0</asrwt>
<pdfrwt beam="1">  1        2 0.24974959E+00 0.41103491E+04</pdfrwt>
<pdfrwt beam="2">  1       -1 0.40028188E+00 0.41103491E+04</pdfrwt>
<totfact> 0.68583618E-02</totfact>
</mgrwt>
</event>
<event>
12    6  0.1402540E-007  0.2126688E+04  0.7818608E-02  0.8549577E-01
         -1   -1    0    0    0  501 -0.00000000000E+00  0.00000000000E+00  0.35509310091E+03  0.35509310091E+03  0.00000000000E+00 0.  1.
          2   -1    0    0  501    0  0.00000000000E+00 -0.00000000000E+00 -0.31842378779E+04  0.31842378779E+04  0.00000000000E+00 0. -1.
         24    2    1    2    0    0  0.63276249097E+02  0.87107886672E+03 -0.11410166177E+04  0.14390071972E+04  0.77720757352E+02 0.  0.
        254    2    1    2    0    0 -0.63276249097E+02 -0.87107886672E+03 -0.16881281593E+04  0.21003237816E+04  0.89375669477E+03 0.  0.
         23    2    4    4    0    0 -0.35632246506E+03 -0.45694182996E+03 -0.13824737200E+04  0.15016073594E+04  0.88484688632E+02 0.  0.
         23    2    4    4    0    0  0.29304621596E+03 -0.41413703676E+03 -0.30565443928E+03  0.59871642218E+03  0.87470841044E+02 0.  0.
          2    1    3    3  502    0  0.47371864453E+02  0.35143137490E+03 -0.51467385286E+03  0.62500982362E+03  0.00000000000E+00 0. -1.
         -3    1    3    3    0  502  0.15904384643E+02  0.51964749181E+03 -0.62634276481E+03  0.81399737360E+03  0.00000000000E+00 0.  1.
         11    1    5    5    0    0 -0.22560463074E+02 -0.15868853440E+02 -0.31976699016E+02  0.42229187579E+02  0.00000000000E+00 0.  1.
        -11    1    5    5    0    0 -0.33376200199E+03 -0.44107297652E+03 -0.13504970210E+04  0.14593781718E+04  0.00000000000E+00 0. -1.
          3    1    6    6  503    0  0.26173723855E+03 -0.33854630024E+03 -0.22352242850E+03  0.48278593133E+03  0.00000000000E+00 0. -1.
         -3    1    6    6    0  503  0.31308977414E+02 -0.75590736522E+02 -0.82132010777E+02  0.11593049085E+03  0.00000000000E+00 0.  1.
<mgrwt>
<rscale>  0 0.21266884E+04</rscale>
<asrwt>0</asrwt>
<pdfrwt beam="1">  1        2 0.48988276E+00 0.21266884E+04</pdfrwt>
<pdfrwt beam="2">  1       -1 0.54629707E-01 0.21266884E+04</pdfrwt>
<totfact> 0.47151650E+00</totfact>
</mgrwt>
</event>
<event>
12    6  0.1402540E-007  0.2333301E+04  0.7818608E-02  0.8464906E-01
          2   -1    0    0  501    0  0.00000000000E+00  0.00000000000E+00  0.22667339487E+04  0.22667339487E+04  0.00000000000E+00 0. -1.
         -1   -1    0    0    0  501 -0.00000000000E+00 -0.00000000000E+00 -0.60045553323E+03  0.60045553323E+03  0.00000000000E+00 0.  1.
         24    2    1    2    0    0  0.77645133139E+02 -0.96519986787E+03  0.96851379843E+03  0.13717392443E+04  0.77524350910E+02 0.  0.
        254    2    1    2    0    0 -0.77645133139E+02  0.96519986787E+03  0.69776461702E+03  0.14954502376E+04  0.90103074350E+03 0.  0.
         23    2    4    4    0    0 -0.32132081477E+03  0.88958009680E+03  0.76097040103E+03  0.12173407256E+04  0.90789186727E+02 0.  0.
         23    2    4    4    0    0  0.24367568163E+03  0.75619771069E+02 -0.63205784011E+02  0.27810951196E+03  0.90850106862E+02 0.  0.
          2    1    3    3  502    0  0.73906947688E+02 -0.56746441503E+03  0.60741354904E+03  0.83452340818E+03  0.00000000000E+00 0. -1.
         -1    1    3    3    0  502  0.37381854509E+01 -0.39773545284E+03  0.36110024940E+03  0.53721583613E+03  0.00000000000E+00 0.  1.
         11    1    5    5    0    0 -0.10888747517E+02  0.61271371510E+01  0.18390060590E+02  0.22232880170E+02  0.00000000000E+00 0. -1.
        -11    1    5    5    0    0 -0.31043206725E+03  0.88345295965E+03  0.74258034044E+03  0.11951078455E+04  0.00000000000E+00 0.  1.
          3    1    6    6  503    0  0.18872234561E+03  0.93153682817E+02 -0.33115813108E+02  0.21305020402E+03  0.00000000000E+00 0. -1.
         -3    1    6    6    0  503  0.54953336014E+02 -0.17533911749E+02 -0.30089970903E+02  0.65059307937E+02  0.00000000000E+00 0.  1.
<mgrwt>
<rscale>  0 0.23333006E+04</rscale>
<asrwt>0</asrwt>
<pdfrwt beam="1">  1        2 0.34872830E+00 0.23333006E+04</pdfrwt>
<pdfrwt beam="2">  1       -1 0.92377775E-01 0.23333006E+04</pdfrwt>
<totfact> 0.55522398E+00</totfact>
</mgrwt>
</event>
<event>
12    6  0.1402540E-007  0.1161631E+04  0.7818608E-02  0.9147120E-01
         -1   -1    0    0    0  501 -0.00000000000E+00  0.00000000000E+00  0.13856676526E+03  0.13856676526E+03  0.00000000000E+00 0.  1.
          2   -1    0    0  501    0  0.00000000000E+00 -0.00000000000E+00 -0.24345411732E+04  0.24345411732E+04  0.00000000000E+00 0. -1.
         24    2    1    2    0    0 -0.18143712216E+03 -0.13412508229E+02 -0.16744404909E+03  0.25520254125E+03  0.63178341320E+02 0.  0.
        254    2    1    2    0    0  0.18143712216E+03  0.13412508229E+02 -0.21285303589E+04  0.23179053972E+04  0.89941348512E+03 0.  0.
         23    2    4    4    0    0  0.56854121112E+02  0.25009613944E+03 -0.19761577131E+04  0.19946009481E+04  0.86331714450E+02 0.  0.
         23    2    4    4    0    0  0.12458300105E+03 -0.23668363121E+03 -0.15237264572E+03  0.32330444912E+03  0.98834600334E+02 0.  0.
          2    1    3    3  502    0 -0.14421208947E+03  0.16022394444E+02 -0.12822492781E+03  0.19363748600E+03  0.00000000000E+00 0. -1.
         -1    1    3    3    0  502 -0.37225032685E+02 -0.29434902674E+02 -0.39219121286E+02  0.61565055252E+02  0.00000000000E+00 0.  1.
         11    1    5    5    0    0  0.80186431803E+01  0.51997357986E+01 -0.27962843841E+03  0.27979170727E+03  0.00000000000E+00 0. -1.
        -11    1    5    5    0    0  0.48835477931E+02  0.24489640364E+03 -0.16965292747E+04  0.17148092408E+04  0.00000000000E+00 0.  1.
          1    1    6    6  503    0  0.11377672191E+02 -0.73147294961E+02 -0.21593570140E+01  0.74058362170E+02  0.00000000000E+00 0. -1.
         -1    1    6    6    0  503  0.11320532886E+03 -0.16353633625E+03 -0.15021328870E+03  0.24924608695E+03  0.00000000000E+00 0.  1.
<mgrwt>
<rscale>  0 0.11616307E+04</rscale>
<asrwt>0</asrwt>
<pdfrwt beam="1">  1        2 0.37454480E+00 0.11616307E+04</pdfrwt>
<pdfrwt beam="2">  1       -1 0.21317963E-01 0.11616307E+04</pdfrwt>
<totfact> 0.79114779E+01</totfact>
</mgrwt>
</event>
<event>
12    6  0.1402540E-007  0.3591988E+04  0.7818608E-02  0.8092329E-01
         -1   -1    0    0    0  501 -0.00000000000E+00  0.00000000000E+00  0.20978760145E+04  0.20978760145E+04  0.00000000000E+00 0.  1.
          2   -1    0    0  501    0  0.00000000000E+00 -0.00000000000E+00 -0.15375522492E+04  0.15375522492E+04  0.00000000000E+00 0. -1.
         24    2    1    2    0    0 -0.64517807796E+03 -0.97093046913E+03 -0.96491722221E+03  0.15153178895E+04  0.78500524632E+02 0.  0.
        254    2    1    2    0    0  0.64517807796E+03  0.97093046913E+03  0.15252409876E+04  0.21201103742E+04  0.89974840949E+03 0.  0.
         23    2    4    4    0    0  0.18534899042E+03 -0.66683734358E+02  0.64601135813E+03  0.68147412138E+03  0.90968866104E+02 0.  0.
         23    2    4    4    0    0  0.45982908754E+03  0.10376142035E+04  0.87922962946E+03  0.14386362528E+04  0.92431063876E+02 0.  0.
          4    1    3    3  502    0 -0.45697040654E+03 -0.74887689230E+03 -0.72176446352E+03  0.11360380685E+04  0.00000000000E+00 0. -1.
         -3    1    3    3    0  502 -0.18820767142E+03 -0.22205357683E+03 -0.24315275869E+03  0.37927982101E+03  0.00000000000E+00 0.  1.
         11    1    5    5    0    0  0.57841580240E+02  0.16338154947E+02  0.25290442090E+03  0.25994851379E+03  0.00000000000E+00 0.  1.
        -11    1    5    5    0    0  0.12750741018E+03 -0.83021889305E+02  0.39310693723E+03  0.42152560759E+03  0.00000000000E+00 0. -1.
          4    1    6    6  503    0  0.39964936341E+03  0.90595350156E+03  0.80399001484E+03  0.12754886533E+04  0.00000000000E+00 0. -1.
         -4    1    6    6    0  503  0.60179724131E+02  0.13166070193E+03  0.75239614616E+02  0.16314759955E+03  0.00000000000E+00 0.  1.
<mgrwt>
<rscale>  0 0.35919877E+04</rscale>
<asrwt>0</asrwt>
<pdfrwt beam="1">  1        2 0.23654650E+00 0.35919877E+04</pdfrwt>
<pdfrwt beam="2">  1       -1 0.32275016E+00 0.35919877E+04</pdfrwt>
<totfact> 0.26354875E-01</totfact>
</mgrwt>
</event>
<event>
12    6  0.1402540E-007  0.2660875E+04  0.7818608E-02  0.8347813E-01
         -1   -1    0    0    0  501 -0.00000000000E+00  0.00000000000E+00  0.85520656428E+03  0.85520656428E+03  0.00000000000E+00 0.  1.
          2   -1    0    0  501    0  0.00000000000E+00 -0.00000000000E+00 -0.20697495600E+04  0.20697495600E+04  0.00000000000E+00 0. -1.
         24    2    1    2    0    0 -0.94300126853E+03 -0.33982721625E+03  0.13841416523E+03  0.10150616306E+04  0.80359836726E+02 0.  0.
        254    2    1    2    0    0  0.94300126853E+03  0.33982721625E+03 -0.13529571609E+04  0.19098944937E+04  0.90137116017E+03 0.  0.
         23    2    4    4    0    0  0.62718418044E+03  0.11526069415E+03 -0.13678437901E+04  0.15117338996E+04  0.87736681937E+02 0.  0.
         23    2    4    4    0    0  0.31581708809E+03  0.22456652210E+03  0.14886629171E+02  0.39816059406E+03  0.90220235868E+02 0.  0.
          4    1    3    3  502    0 -0.56791458549E+03 -0.20506150350E+03  0.12299030362E+03  0.61620111280E+03  0.00000000000E+00 0. -1.
         -3    1    3    3    0  502 -0.37508668304E+03 -0.13476571276E+03  0.15423861611E+02  0.39886051777E+03  0.00000000000E+00 0.  1.
         11    1    5    5    0    0  0.56974592957E+03  0.11823422767E+03 -0.12879016436E+04  0.14132517116E+04  0.00000000000E+00 0.  1.
        -11    1    5    5    0    0  0.57438250869E+02 -0.29735335163E+01 -0.79942146497E+02  0.98482187989E+02  0.00000000000E+00 0. -1.
          4    1    6    6  503    0  0.21021666071E+02  0.11937847669E+02  0.24686171983E+02  0.34551841319E+02  0.00000000000E+00 0. -1.
         -4    1    6    6    0  503  0.29479542202E+03  0.21262867443E+03 -0.97995428124E+01  0.36360875274E+03  0.00000000000E+00 0.  1.
<mgrwt>
<rscale>  0 0.26608746E+04</rscale>
<asrwt>0</asrwt>
<pdfrwt beam="1">  1        2 0.31842301E+00 0.26608746E+04</pdfrwt>
<pdfrwt beam="2">  1       -1 0.13157024E+00 0.26608746E+04</pdfrwt>
<totfact> 0.30087835E+00</totfact>
</mgrwt>
</event>
<event>
12    6  0.1402540E-007  0.1610388E+04  0.7818608E-02  0.8814191E-01
         -1   -1    0    0    0  501 -0.00000000000E+00  0.00000000000E+00  0.43711966415E+03  0.43711966415E+03  0.00000000000E+00 0.  1.
          2   -1    0    0  501    0  0.00000000000E+00 -0.00000000000E+00 -0.14832039842E+04  0.14832039842E+04  0.00000000000E+00 0. -1.
         24    2    1    2    0    0  0.24472178935E+03  0.19285064815E+03 -0.90075145023E+03  0.95642049282E+03  0.79415724594E+02 0.  0.
        254    2    1    2    0    0 -0.24472178935E+03 -0.19285064815E+03 -0.14533286981E+03  0.96390315552E+03  0.90050403857E+03 0.  0.
         23    2    4    4    0    0  0.15955572765E+03  0.26834247411E+03 -0.11294934737E+03  0.34355981829E+03  0.88374657223E+02 0.  0.
         23    2    4    4    0    0 -0.40427751701E+03 -0.46119312226E+03 -0.32383522444E+02  0.62034333722E+03  0.87394260307E+02 0.  0.
          4    1    3    3  502    0  0.19773695918E+03  0.11482987571E+03 -0.68770122680E+03  0.72471979600E+03  0.00000000000E+00 0. -1.
         -3    1    3    3    0  502  0.46984830175E+02  0.78020772446E+02 -0.21305022343E+03  0.23170069681E+03  0.00000000000E+00 0.  1.
         11    1    5    5    0    0  0.96154694359E+02  0.86246228425E+02 -0.24705192241E+02  0.13150849284E+03  0.00000000000E+00 0. -1.
        -11    1    5    5    0    0  0.63401033295E+02  0.18209624568E+03 -0.88244155126E+02  0.21205132546E+03  0.00000000000E+00 0.  1.
          1    1    6    6  503    0 -0.25174105045E+02 -0.46589019067E+01 -0.62419492324E+01  0.26351524852E+02  0.00000000000E+00 0. -1.
         -1    1    6    6    0  503 -0.37910341196E+03 -0.45653422035E+03 -0.26141573211E+02  0.59399181237E+03  0.00000000000E+00 0.  1.
<mgrwt>
<rscale>  0 0.16103883E+04</rscale>
<asrwt>0</asrwt>
<pdfrwt beam="1">  1        2 0.22818523E+00 0.16103883E+04</pdfrwt>
<pdfrwt beam="2">  1       -1 0.67249180E-01 0.16103883E+04</pdfrwt>
<totfact> 0.31728570E+01</totfact>
</mgrwt>
</event>
<event>
12    6  0.1402540E-007  0.2549327E+04  0.7818608E-02  0.8385620E-01
         -1   -1    0    0    0  501 -0.00000000000E+00  0.00000000000E+00  0.67590416319E+03  0.67590416319E+03  0.00000000000E+00 0.  1.
          2   -1    0    0  501    0  0.00000000000E+00 -0.00000000000E+00 -0.24038424341E+04  0.24038424341E+04  0.00000000000E+00 0. -1.
         24    2    1    2    0    0 -0.54292469266E+03 -0.41251741319E+03  0.30712202404E+03  0.75212673100E+03  0.80205010855E+02 0.  0.
        254    2    1    2    0    0  0.54292469266E+03  0.41251741319E+03 -0.20350602949E+04  0.23276198663E+04  0.90078077231E+03 0.  0.
         23    2    4    4    0    0  0.38123776282E+03  0.42069844691E+03 -0.20636090672E+04  0.21422332452E+04  0.91386430667E+02 0.  0.
         23    2    4    4    0    0  0.16168692984E+03 -0.81810337270E+01  0.28548772284E+02  0.18538662102E+03  0.85694657138E+02 0.  0.
          2    1    3    3  502    0 -0.17650394983E+03 -0.15643791665E+03  0.69599649229E+02  0.24590765999E+03  0.00000000000E+00 0. -1.
         -1    1    3    3    0  502 -0.36642074283E+03 -0.25607949653E+03  0.23752237481E+03  0.50621907101E+03  0.00000000000E+00 0.  1.
         11    1    5    5    0    0  0.33631191165E+03  0.39546357230E+03 -0.17875323120E+04  0.18613889720E+04  0.00000000000E+00 0.  1.
        -11    1    5    5    0    0  0.44925851172E+02  0.25234874613E+02 -0.27607675525E+03  0.28084427320E+03  0.00000000000E+00 0. -1.
          3    1    6    6  503    0  0.16751313724E+03 -0.55841124763E+01  0.12447395289E+02  0.16806775750E+03  0.00000000000E+00 0. -1.
         -3    1    6    6    0  503 -0.58262074032E+01 -0.25969212507E+01  0.16101376995E+02  0.17318863526E+02  0.00000000000E+00 0.  1.
<mgrwt>
<rscale>  0 0.25493271E+04</rscale>
<asrwt>0</asrwt>
<pdfrwt beam="1">  1        2 0.36982192E+00 0.25493271E+04</pdfrwt>
<pdfrwt beam="2">  1       -1 0.10398525E+00 0.25493271E+04</pdfrwt>
<totfact> 0.34791367E+00</totfact>
</mgrwt>
</event>
<event>
12    6  0.1402540E-007  0.3886320E+04  0.7818608E-02  0.8027880E-01
         -1   -1    0    0    0  501 -0.00000000000E+00  0.00000000000E+00  0.25963191155E+04  0.25963191155E+04  0.00000000000E+00 0.  1.
          2   -1    0    0  501    0  0.00000000000E+00 -0.00000000000E+00 -0.14543167724E+04  0.14543167724E+04  0.00000000000E+00 0. -1.
         24    2    1    2    0    0 -0.52011319610E+03  0.17504755597E+04  0.75919326478E+03  0.19793156102E+04  0.81445992602E+02 0.  0.
        254    2    1    2    0    0  0.52011319610E+03 -0.17504755597E+04  0.38280907824E+03  0.20713202777E+04  0.89952347401E+03 0.  0.
         23    2    4    4    0    0  0.53789769284E+03 -0.18317369862E+04  0.37965016177E+03  0.19486487560E+04  0.92213958880E+02 0.  0.
         23    2    4    4    0    0 -0.17784496738E+02  0.81261426494E+02  0.31589164668E+01  0.12267152168E+03  0.90103361298E+02 0.  0.
          4    1    3    3  502    0 -0.99322423427E+02  0.23525665606E+03  0.10566694480E+03  0.27636233687E+03  0.00000000000E+00 0. -1.
         -3    1    3    3    0  502 -0.42079077268E+03  0.15152189037E+04  0.65352631998E+03  0.17029532734E+04  0.00000000000E+00 0.  1.
         11    1    5    5    0    0  0.59871057112E+02 -0.17630727388E+03  0.10556275642E+02  0.18649459310E+03  0.00000000000E+00 0.  1.
        -11    1    5    5    0    0  0.47802663573E+03 -0.16554297123E+04  0.36909388613E+03  0.17621541629E+04  0.00000000000E+00 0. -1.
          3    1    6    6  503    0 -0.15685801615E+02 -0.80957456420E+01 -0.23507084599E+02  0.29396742952E+02  0.00000000000E+00 0. -1.
         -3    1    6    6    0  503 -0.20986951226E+01  0.89357172135E+02  0.26666001066E+02  0.93274778725E+02  0.00000000000E+00 0.  1.
<mgrwt>
<rscale>  0 0.38863198E+04</rscale>
<asrwt>0</asrwt>
<pdfrwt beam="1">  1        2 0.22374104E+00 0.38863198E+04</pdfrwt>
<pdfrwt beam="2">  1       -1 0.39943371E+00 0.38863198E+04</pdfrwt>
<totfact> 0.88119587E-02</totfact>
</mgrwt>
</event>
<event>
12    6  0.1402540E-007  0.1986695E+04  0.7818608E-02  0.8612866E-01
          2   -1    0    0  501    0  0.00000000000E+00  0.00000000000E+00  0.13427766630E+04  0.13427766630E+04  0.00000000000E+00 0. -1.
         -1   -1    0    0    0  501 -0.00000000000E+00 -0.00000000000E+00 -0.73485006038E+03  0.73485006038E+03  0.00000000000E+00 0.  1.
         24    2    1    2    0    0  0.63345741293E+03  0.24032556321E+03  0.66112660308E+03  0.94994367204E+03  0.79245974146E+02 0.  0.
        254    2    1    2    0    0 -0.63345741293E+03 -0.24032556321E+03 -0.53200000444E+02  0.11276830513E+04  0.89989674625E+03 0.  0.
         23    2    4    4    0    0  0.51797064412E+02 -0.21324119457E+03  0.27349784548E+03  0.36238370668E+03  0.91466586471E+02 0.  0.
         23    2    4    4    0    0 -0.68525447735E+03 -0.27084368643E+02 -0.32669784593E+03  0.76529934466E+03  0.92974957192E+02 0.  0.
          2    1    3    3  502    0  0.32152696731E+03  0.13958101392E+03  0.39167587462E+03  0.52561624871E+03  0.00000000000E+00 0. -1.
         -1    1    3    3    0  502  0.31193044562E+03  0.10074454929E+03  0.26945072846E+03  0.42432742333E+03  0.00000000000E+00 0.  1.
         11    1    5    5    0    0  0.54170905768E+02 -0.22058757721E+03  0.27225365495E+03  0.35456370216E+03  0.00000000000E+00 0.  1.
        -11    1    5    5    0    0 -0.23738413554E+01  0.73463826405E+01  0.12441905283E+01  0.78200045237E+01  0.00000000000E+00 0. -1.
          3    1    6    6  503    0 -0.27243574321E+03 -0.45549120432E+02 -0.16370396147E+03  0.32108401323E+03  0.00000000000E+00 0. -1.
         -3    1    6    6    0  503 -0.41281873414E+03  0.18464751789E+02 -0.16299388445E+03  0.44421533143E+03  0.00000000000E+00 0.  1.
<mgrwt>
<rscale>  0 0.19866953E+04</rscale>
<asrwt>0</asrwt>
<pdfrwt beam="1">  1        2 0.20658103E+00 0.19866953E+04</pdfrwt>
<pdfrwt beam="2">  1       -1 0.11305386E+00 0.19866953E+04</pdfrwt>
<totfact> 0.11834224E+01</totfact>
</mgrwt>
</event>
<event>
12    6  0.1402540E-007  0.3963464E+04  0.7818608E-02  0.8011958E-01
         -1   -1    0    0    0  501 -0.00000000000E+00  0.00000000000E+00  0.13405298990E+04  0.13405298990E+04  0.00000000000E+00 0.  1.
          2   -1    0    0  501    0  0.00000000000E+00 -0.00000000000E+00 -0.29296338333E+04  0.29296338333E+04  0.00000000000E+00 0. -1.
         24    2    1    2    0    0 -0.77642841894E+02  0.18768256102E+04 -0.73772131390E+03  0.20198438815E+04  0.83867673917E+02 0.  0.
        254    2    1    2    0    0  0.77642841894E+02 -0.18768256102E+04 -0.85138262045E+03  0.22503198508E+04  0.90032454298E+03 0.  0.
         23    2    4    4    0    0 -0.83948667533E+02 -0.33387811846E+03 -0.56816385219E+03  0.67059342392E+03  0.91451629299E+02 0.  0.
         23    2    4    4    0    0  0.16159150943E+03 -0.15429474917E+04 -0.28321876827E+03  0.15797264269E+04  0.92325159425E+02 0.  0.
          2    1    3    3  502    0 -0.69897713423E+02  0.12878979135E+04 -0.54403050197E+03  0.13998342448E+04  0.00000000000E+00 0. -1.
         -3    1    3    3    0  502 -0.77451284712E+01  0.58892769670E+03 -0.19369081194E+03  0.62000963669E+03  0.00000000000E+00 0.  1.
         11    1    5    5    0    0 -0.18884152520E+02 -0.23746045566E+03 -0.41141548298E+03  0.47540170262E+03  0.00000000000E+00 0. -1.
        -11    1    5    5    0    0 -0.65064515013E+02 -0.96417662804E+02 -0.15674836921E+03  0.19519172130E+03  0.00000000000E+00 0.  1.
          4    1    6    6  503    0  0.25166925982E+02 -0.67061195451E+03 -0.11308166270E+03  0.68054480391E+03  0.00000000000E+00 0. -1.
         -4    1    6    6    0  503  0.13642458344E+03 -0.87233553720E+03 -0.17013710557E+03  0.89918162299E+03  0.00000000000E+00 0.  1.
<mgrwt>
<rscale>  0 0.39634640E+04</rscale>
<asrwt>0</asrwt>
<pdfrwt beam="1">  1        2 0.45071289E+00 0.39634640E+04</pdfrwt>
<pdfrwt beam="2">  1       -1 0.20623537E+00 0.39634640E+04</pdfrwt>
<totfact> 0.23593493E-01</totfact>
</mgrwt>
</event>
<event>
12    6  0.1402540E-007  0.1659649E+04  0.7818608E-02  0.8784719E-01
          2   -1    0    0  501    0  0.00000000000E+00  0.00000000000E+00  0.11058855206E+04  0.11058855206E+04  0.00000000000E+00 0. -1.
         -1   -1    0    0    0  501 -0.00000000000E+00 -0.00000000000E+00 -0.62267609285E+03  0.62267609285E+03  0.00000000000E+00 0.  1.
         24    2    1    2    0    0 -0.33965452777E+03 -0.44455845853E+03  0.74218717262E+01  0.56812824980E+03  0.98575873084E+02 0.  0.
        254    2    1    2    0    0  0.33965452777E+03  0.44455845853E+03  0.47578755598E+03  0.11604333636E+04  0.89846222606E+03 0.  0.
         23    2    4    4    0    0 -0.17601726021E+03 -0.15980919324E+03  0.15889820097E+03  0.30016656469E+03  0.91270335526E+02 0.  0.
         23    2    4    4    0    0  0.51567178799E+03  0.60436765178E+03  0.31688935501E+03  0.86026679892E+03  0.91991578756E+02 0.  0.
          4    1    3    3  502    0 -0.18393057209E+03 -0.31762480044E+03  0.10822233756E+02  0.36719625535E+03  0.00000000000E+00 0. -1.
         -3    1    3    3    0  502 -0.15572395569E+03 -0.12693365810E+03 -0.34003620299E+01  0.20093199445E+03  0.00000000000E+00 0.  1.
         11    1    5    5    0    0 -0.10220763043E+03 -0.75487439176E+02  0.32315868061E+02  0.13110708799E+03  0.00000000000E+00 0. -1.
        -11    1    5    5    0    0 -0.73809629780E+02 -0.84321754066E+02  0.12658233291E+03  0.16905947670E+03  0.00000000000E+00 0.  1.
          3    1    6    6  503    0  0.37641043943E+03  0.40965862163E+03  0.26064865333E+03  0.61436367541E+03  0.00000000000E+00 0. -1.
         -3    1    6    6    0  503  0.13926134856E+03  0.19470903015E+03  0.56240701682E+02  0.24590312351E+03  0.00000000000E+00 0.  1.
<mgrwt>
<rscale>  0 0.16596487E+04</rscale>
<asrwt>0</asrwt>
<pdfrwt beam="1">  1        2 0.17013623E+00 0.16596487E+04</pdfrwt>
<pdfrwt beam="2">  1       -1 0.95796322E-01 0.16596487E+04</pdfrwt>
<totfact> 0.24720803E+01</totfact>
</mgrwt>
</event>
<event>
12    6  0.1402540E-007  0.1786019E+04  0.7818608E-02  0.8713770E-01
         -1   -1    0    0    0  501 -0.00000000000E+00  0.00000000000E+00  0.39131093074E+03  0.39131093074E+03  0.00000000000E+00 0.  1.
          2   -1    0    0  501    0  0.00000000000E+00 -0.00000000000E+00 -0.20379338903E+04  0.20379338903E+04  0.00000000000E+00 0. -1.
         24    2    1    2    0    0  0.15439066624E+03 -0.58797279463E+03 -0.97646175093E+03  0.11525068656E+04  0.72429546109E+02 0.  0.
        254    2    1    2    0    0 -0.15439066624E+03  0.58797279463E+03 -0.67016120860E+03  0.12767379554E+04  0.90077481994E+03 0.  0.
         23    2    4    4    0    0  0.48216531098E+02 -0.21839365720E+03 -0.21397862222E+03  0.32384257383E+03  0.95218372596E+02 0.  0.
         23    2    4    4    0    0 -0.20260719734E+03  0.80636645183E+03 -0.45618258639E+03  0.95289538159E+03  0.92900619387E+02 0.  0.
          4    1    3    3  502    0  0.25398428711E+02 -0.15119003650E+03 -0.19540917308E+03  0.24837119849E+03  0.00000000000E+00 0. -1.
         -3    1    3    3    0  502  0.12899223753E+03 -0.43678275813E+03 -0.78105257786E+03  0.90413566710E+03  0.00000000000E+00 0.  1.
         11    1    5    5    0    0  0.38296115037E+02 -0.22632100945E+03 -0.19601536515E+03  0.30184402448E+03  0.00000000000E+00 0.  1.
        -11    1    5    5    0    0  0.99204160609E+01  0.79273522472E+01 -0.17963257072E+02  0.21998549341E+02  0.00000000000E+00 0. -1.
          1    1    6    6  503    0  0.55404367915E+01  0.57768702303E+02 -0.17505608326E+02  0.60616546656E+02  0.00000000000E+00 0. -1.
         -1    1    6    6    0  503 -0.20814763413E+03  0.74859774953E+03 -0.43867697806E+03  0.89227883494E+03  0.00000000000E+00 0.  1.
<mgrwt>
<rscale>  0 0.17860188E+04</rscale>
<asrwt>0</asrwt>
<pdfrwt beam="1">  1        2 0.31352829E+00 0.17860188E+04</pdfrwt>
<pdfrwt beam="2">  1       -1 0.60201683E-01 0.17860188E+04</pdfrwt>
<totfact> 0.19165655E+01</totfact>
</mgrwt>
</event>
<event>
12    6  0.1402540E-007  0.1857505E+04  0.7818608E-02  0.8676303E-01
         -3   -1    0    0    0  501 -0.00000000000E+00  0.00000000000E+00  0.53544641621E+03  0.53544641621E+03  0.00000000000E+00 0.  1.
          2   -1    0    0  501    0  0.00000000000E+00 -0.00000000000E+00 -0.16109578977E+04  0.16109578977E+04  0.00000000000E+00 0. -1.
         24    2    1    2    0    0 -0.39360660609E+03 -0.17948417215E+03  0.23559895827E+03  0.49894790892E+03  0.79381473078E+02 0.  0.
        254    2    1    2    0    0  0.39360660609E+03  0.17948417215E+03 -0.13111104397E+04  0.16474564049E+04  0.89886667123E+03 0.  0.
         23    2    4    4    0    0  0.55714536297E+03 -0.17390726073E+03 -0.69003785349E+03  0.90860591615E+03  0.93583015472E+02 0.  0.
         23    2    4    4    0    0 -0.16353875688E+03  0.35339143288E+03 -0.62107258623E+03  0.73885048880E+03  0.92403774837E+02 0.  0.
          4    1    3    3  502    0 -0.13299194226E+03 -0.59727190407E+02  0.38009385695E+02  0.15066156570E+03  0.00000000000E+00 0. -1.
         -3    1    3    3    0  502 -0.26061466383E+03 -0.11975698174E+03  0.19758957258E+03  0.34828634322E+03  0.00000000000E+00 0.  1.
         11    1    5    5    0    0  0.95184465772E+02 -0.15912764789E+01 -0.80905651032E+02  0.12493333844E+03  0.00000000000E+00 0. -1.
        -11    1    5    5    0    0  0.46196089720E+03 -0.17231598425E+03 -0.60913220246E+03  0.78367257771E+03  0.00000000000E+00 0.  1.
          1    1    6    6  503    0 -0.14162299236E+03  0.24424058963E+03 -0.50123620920E+03  0.57528104002E+03  0.00000000000E+00 0. -1.
         -1    1    6    6    0  503 -0.21915764525E+02  0.10915084326E+03 -0.11983637702E+03  0.16356944878E+03  0.00000000000E+00 0.  1.
<mgrwt>
<rscale>  0 0.18575055E+04</rscale>
<asrwt>0</asrwt>
<pdfrwt beam="1">  1        2 0.24783968E+00 0.18575055E+04</pdfrwt>
<pdfrwt beam="2">  1       -3 0.82376372E-01 0.18575055E+04</pdfrwt>
<totfact> 0.89764611E+00</totfact>
</mgrwt>
</event>
<event>
12    6  0.1402540E-007  0.1919904E+04  0.7818608E-02  0.8645012E-01
         -1   -1    0    0    0  501 -0.00000000000E+00  0.00000000000E+00  0.13635577196E+04  0.13635577196E+04  0.00000000000E+00 0.  1.
          2   -1    0    0  501    0  0.00000000000E+00 -0.00000000000E+00 -0.67581138413E+03  0.67581138413E+03  0.00000000000E+00 0. -1.
         24    2    1    2    0    0  0.56529013801E+03 -0.38803359486E+03 -0.44546654311E+02  0.69171508810E+03  0.79764326778E+02 0.  0.
        254    2    1    2    0    0 -0.56529013801E+03  0.38803359486E+03  0.73229298979E+03  0.13476540156E+04  0.89988627729E+03 0.  0.
         23    2    4    4    0    0 -0.53501128129E+03  0.62785753824E+03  0.70411056254E+03  0.10884761058E+04  0.92554789790E+02 0.  0.
         23    2    4    4    0    0 -0.30278856717E+02 -0.23982394337E+03  0.28182427243E+02  0.25917790985E+03  0.89143742183E+02 0.  0.
          4    1    3    3  502    0  0.47417307003E+03 -0.28829092437E+03 -0.43191716277E+02  0.55661232628E+03  0.00000000000E+00 0. -1.
         -3    1    3    3    0  502  0.91117067981E+02 -0.99742670494E+02 -0.13549380340E+01  0.13510276182E+03  0.00000000000E+00 0.  1.
         11    1    5    5    0    0 -0.30643841448E+03  0.37155018398E+03  0.35134220815E+03  0.59615047456E+03  0.00000000000E+00 0. -1.
        -11    1    5    5    0    0 -0.22857286681E+03  0.25630735426E+03  0.35276835439E+03  0.49232563121E+03  0.00000000000E+00 0.  1.
          4    1    6    6  503    0 -0.34562675480E+02 -0.77929213706E+02  0.44925967873E+02  0.96363289039E+02  0.00000000000E+00 0. -1.
         -4    1    6    6    0  503  0.42838187631E+01 -0.16189472967E+03 -0.16743540631E+02  0.16281462081E+03  0.00000000000E+00 0.  1.
<mgrwt>
<rscale>  0 0.19199040E+04</rscale>
<asrwt>0</asrwt>
<pdfrwt beam="1">  1        2 0.10397098E+00 0.19199040E+04</pdfrwt>
<pdfrwt beam="2">  1       -1 0.20977811E+00 0.19199040E+04</pdfrwt>
<totfact> 0.58984168E+00</totfact>
</mgrwt>
</event>
<event>
12    6  0.1402540E-007  0.1481911E+04  0.7818608E-02  0.8896571E-01
          2   -1    0    0  501    0  0.00000000000E+00  0.00000000000E+00  0.33209508080E+04  0.33209508080E+04  0.00000000000E+00 0. -1.
         -1   -1    0    0    0  501 -0.00000000000E+00 -0.00000000000E+00 -0.16531873808E+03  0.16531873808E+03  0.00000000000E+00 0.  1.
         24    2    1    2    0    0 -0.28098334837E+03  0.27265040808E+03  0.15857439045E+04  0.16353124542E+04  0.79832356649E+02 0.  0.
        254    2    1    2    0    0  0.28098334837E+03 -0.27265040808E+03  0.15698881655E+04  0.18509570919E+04  0.89900134422E+03 0.  0.
         23    2    4    4    0    0  0.23921535116E+02  0.17169237691E+03  0.11888239842E+04  0.12050338908E+04  0.93561212476E+02 0.  0.
         23    2    4    4    0    0  0.25706181326E+03 -0.44434278499E+03  0.38106418133E+03  0.64592320115E+03  0.92117235512E+02 0.  0.
          4    1    3    3  502    0 -0.28285000518E+03  0.26042934093E+03  0.15609855254E+04  0.16076390694E+04  0.00000000000E+00 0. -1.
         -3    1    3    3    0  502  0.18666568071E+01  0.12221067148E+02  0.24758379093E+02  0.27673384780E+02  0.00000000000E+00 0.  1.
         11    1    5    5    0    0 -0.35904381028E+02  0.53760720794E+02  0.37239165351E+03  0.37796148386E+03  0.00000000000E+00 0. -1.
        -11    1    5    5    0    0  0.59825916144E+02  0.11793165611E+03  0.81643233065E+03  0.82707240692E+03  0.00000000000E+00 0.  1.
          3    1    6    6  503    0  0.24666971953E+03 -0.44632470469E+03  0.36681440741E+03  0.62817553441E+03  0.00000000000E+00 0. -1.
         -3    1    6    6    0  503  0.10392093726E+02  0.19819196996E+01  0.14249773925E+02  0.17747666737E+02  0.00000000000E+00 0.  1.
<mgrwt>
<rscale>  0 0.14819115E+04</rscale>
<asrwt>0</asrwt>
<pdfrwt beam="1">  1        2 0.51091546E+00 0.14819115E+04</pdfrwt>
<pdfrwt beam="2">  1       -1 0.25433654E-01 0.14819115E+04</pdfrwt>
<totfact> 0.16351357E+01</totfact>
</mgrwt>
</event>
<event>
12    6  0.1402540E-007  0.1664596E+04  0.7818608E-02  0.8781818E-01
          2   -1    0    0  501    0  0.00000000000E+00  0.00000000000E+00  0.16451385725E+04  0.16451385725E+04  0.00000000000E+00 0. -1.
         -1   -1    0    0    0  501 -0.00000000000E+00 -0.00000000000E+00 -0.42107071366E+03  0.42107071366E+03  0.00000000000E+00 0.  1.
         24    2    1    2    0    0  0.37782639426E+03 -0.55774214927E+02  0.98410466014E+03  0.10589990479E+04  0.84578094024E+02 0.  0.
        254    2    1    2    0    0 -0.37782639426E+03  0.55774214927E+02  0.23996319868E+03  0.10072102383E+04  0.90057014171E+03 0.  0.
         23    2    4    4    0    0 -0.56560408990E+03 -0.20963589240E+03  0.32934536705E+02  0.61086490235E+03  0.90642436653E+02 0.  0.
         23    2    4    4    0    0  0.18777769563E+03  0.26541010733E+03  0.20702866197E+03  0.39634533594E+03  0.92335098380E+02 0.  0.
          4    1    3    3  502    0  0.32519253799E+03 -0.33072251401E+02  0.89724172356E+03  0.95492757373E+03  0.00000000000E+00 0. -1.
         -3    1    3    3    0  502  0.52633856272E+02 -0.22701963527E+02  0.86862936580E+02  0.10407147412E+03  0.00000000000E+00 0.  1.
         11    1    5    5    0    0 -0.17709668995E+03 -0.22131726754E+02  0.15013147784E+02  0.17910456590E+03  0.00000000000E+00 0. -1.
        -11    1    5    5    0    0 -0.38850739995E+03 -0.18750416565E+03  0.17921388921E+02  0.43176033645E+03  0.00000000000E+00 0.  1.
          3    1    6    6  503    0  0.28813832407E+02  0.17041294998E+02 -0.40230488218E+01  0.33716874040E+02  0.00000000000E+00 0. -1.
         -3    1    6    6    0  503  0.15896386323E+03  0.24836881233E+03  0.21105171079E+03  0.36262846190E+03  0.00000000000E+00 0.  1.
<mgrwt>
<rscale>  0 0.16645957E+04</rscale>
<asrwt>0</asrwt>
<pdfrwt beam="1">  1        2 0.25309824E+00 0.16645957E+04</pdfrwt>
<pdfrwt beam="2">  1       -1 0.64780111E-01 0.16645957E+04</pdfrwt>
<totfact> 0.27635889E+01</totfact>
</mgrwt>
</event>
<event>
12    6  0.1402540E-007  0.2347962E+04  0.7818608E-02  0.8459247E-01
         -1   -1    0    0    0  501 -0.00000000000E+00  0.00000000000E+00  0.92121949680E+03  0.92121949680E+03  0.00000000000E+00 0.  1.
          2   -1    0    0  501    0  0.00000000000E+00 -0.00000000000E+00 -0.14960944538E+04  0.14960944538E+04  0.00000000000E+00 0. -1.
         24    2    1    2    0    0  0.98175695442E+03 -0.78019775902E+02 -0.69136350338E+02  0.99059370315E+03  0.81007695986E+02 0.  0.
        254    2    1    2    0    0 -0.98175695442E+03  0.78019775902E+02 -0.50573860667E+03  0.14267202475E+04  0.89990295213E+03 0.  0.
         23    2    4    4    0    0 -0.76964388563E+03 -0.77056810047E+01  0.91545620416E+02  0.78069802993E+03  0.93261595022E+02 0.  0.
         23    2    4    4    0    0 -0.21211306879E+03  0.85725456906E+02 -0.59728422708E+03  0.64602221753E+03  0.90859505333E+02 0.  0.
          4    1    3    3  502    0  0.24467490010E+03  0.11996158994E+02 -0.32704004598E+02  0.24714219892E+03  0.00000000000E+00 0. -1.
         -3    1    3    3    0  502  0.73708205432E+03 -0.90015934895E+02 -0.36432345740E+02  0.74345150424E+03  0.00000000000E+00 0.  1.
         11    1    5    5    0    0 -0.38594396444E+03  0.36155824599E+02  0.69960912372E+02  0.39389658110E+03  0.00000000000E+00 0. -1.
        -11    1    5    5    0    0 -0.38369992119E+03 -0.43861505603E+02  0.21584708044E+02  0.38680144883E+03  0.00000000000E+00 0.  1.
          2    1    6    6  503    0 -0.49321466716E+02  0.26665779224E+00 -0.57348151057E+02  0.75640522308E+02  0.00000000000E+00 0. -1.
         -2    1    6    6    0  503 -0.16279160207E+03  0.85458799114E+02 -0.53993607603E+03  0.57038169522E+03  0.00000000000E+00 0.  1.
<mgrwt>
<rscale>  0 0.23479620E+04</rscale>
<asrwt>0</asrwt>
<pdfrwt beam="1">  1        2 0.23016838E+00 0.23479620E+04</pdfrwt>
<pdfrwt beam="2">  1       -1 0.14172608E+00 0.23479620E+04</pdfrwt>
<totfact> 0.53273694E+00</totfact>
</mgrwt>
</event>
<event>
12    6  0.1402540E-007  0.1748739E+04  0.7818608E-02  0.8734045E-01
          2   -1    0    0  501    0  0.00000000000E+00  0.00000000000E+00  0.95591784071E+03  0.95591784071E+03  0.00000000000E+00 0. -1.
         -1   -1    0    0    0  501 -0.00000000000E+00 -0.00000000000E+00 -0.79977814900E+03  0.79977814900E+03  0.00000000000E+00 0.  1.
         24    2    1    2    0    0  0.30423659563E+03 -0.52747105586E+03 -0.13907786621E+03  0.62943048582E+03  0.77810428095E+02 0.  0.
        254    2    1    2    0    0 -0.30423659563E+03  0.52747105586E+03  0.29521755792E+03  0.11262655039E+04  0.90029714976E+03 0.  0.
         23    2    4    4    0    0 -0.23409917831E+03  0.35833000329E+03  0.61022729171E+03  0.75075260492E+03  0.89717945327E+02 0.  0.
         23    2    4    4    0    0 -0.70137417316E+02  0.16914105257E+03 -0.31500973379E+03  0.37551289897E+03  0.90834200278E+02 0.  0.
          4    1    3    3  502    0  0.13253110178E+03 -0.26559463915E+03 -0.32297153377E+02  0.29857680989E+03  0.00000000000E+00 0. -1.
         -3    1    3    3    0  502  0.17170549385E+03 -0.26187641670E+03 -0.10678071284E+03  0.33085367593E+03  0.00000000000E+00 0.  1.
         11    1    5    5    0    0 -0.37544100718E+02  0.99681044094E+02  0.10139192501E+03  0.14705846629E+03  0.00000000000E+00 0.  1.
        -11    1    5    5    0    0 -0.19655507759E+03  0.25864895920E+03  0.50883536669E+03  0.60369413863E+03  0.00000000000E+00 0. -1.
          3    1    6    6  503    0 -0.71096463519E+02  0.17374581029E+03 -0.26210427878E+03  0.32239876966E+03  0.00000000000E+00 0. -1.
         -3    1    6    6    0  503  0.95904620346E+00 -0.46047577286E+01 -0.52905455003E+02  0.53114129311E+02  0.00000000000E+00 0.  1.
<mgrwt>
<rscale>  0 0.17487392E+04</rscale>
<asrwt>0</asrwt>
<pdfrwt beam="1">  1        2 0.14706428E+00 0.17487392E+04</pdfrwt>
<pdfrwt beam="2">  1       -1 0.12304279E+00 0.17487392E+04</pdfrwt>
<totfact> 0.16940926E+01</totfact>
</mgrwt>
</event>
<event>
12    6  0.1402540E-007  0.2172375E+04  0.7818608E-02  0.8530015E-01
          2   -1    0    0  501    0  0.00000000000E+00  0.00000000000E+00  0.15689771529E+04  0.15689771529E+04  0.00000000000E+00 0. -1.
         -1   -1    0    0    0  501 -0.00000000000E+00 -0.00000000000E+00 -0.75195725100E+03  0.75195725100E+03  0.00000000000E+00 0.  1.
         24    2    1    2    0    0 -0.82093273988E+03  0.33171845140E+03  0.55976921374E+03  0.10506977147E+04  0.81586890197E+02 0.  0.
        254    2    1    2    0    0  0.82093273988E+03 -0.33171845140E+03  0.25725068821E+03  0.12702366892E+04  0.87370225803E+03 0.  0.
         23    2    4    4    0    0 -0.77135740270E+02  0.15458852007E+03  0.13525582995E+03  0.23765939005E+03  0.91325315104E+02 0.  0.
         23    2    4    4    0    0  0.89806848015E+03 -0.48630697147E+03  0.12199485826E+03  0.10325772992E+04  0.91168348747E+02 0.  0.
          4    1    3    3  502    0 -0.75613262890E+02  0.24859702806E+02  0.79220659830E+02  0.11229997014E+03  0.00000000000E+00 0. -1.
         -3    1    3    3    0  502 -0.74531947699E+03  0.30685874859E+03  0.48054855391E+03  0.93839774458E+03  0.00000000000E+00 0.  1.
         11    1    5    5    0    0 -0.28844780973E+02  0.12239870780E+03  0.12754664669E+03  0.17911340581E+03  0.00000000000E+00 0. -1.
        -11    1    5    5    0    0 -0.48290959297E+02  0.32189812276E+02  0.77091832619E+01  0.58545984241E+02  0.00000000000E+00 0.  1.
          3    1    6    6  503    0  0.54870982317E+02 -0.55044767644E+02  0.43544979982E+00  0.77723489126E+02  0.00000000000E+00 0. -1.
         -3    1    6    6    0  503  0.84319749783E+03 -0.43126220383E+03  0.12155940846E+03  0.95485381006E+03  0.00000000000E+00 0.  1.
<mgrwt>
<rscale>  0 0.21723754E+04</rscale>
<asrwt>0</asrwt>
<pdfrwt beam="1">  1        2 0.24138110E+00 0.21723754E+04</pdfrwt>
<pdfrwt beam="2">  1       -1 0.11568573E+00 0.21723754E+04</pdfrwt>
<totfact> 0.81963711E+00</totfact>
</mgrwt>
</event>
<event>
12    6  0.1402540E-007  0.1465353E+04  0.7818608E-02  0.8907826E-01
          2   -1    0    0  501    0  0.00000000000E+00  0.00000000000E+00  0.61081160737E+03  0.61081160737E+03  0.00000000000E+00 0. -1.
         -1   -1    0    0    0  501 -0.00000000000E+00 -0.00000000000E+00 -0.87885453587E+03  0.87885453587E+03  0.00000000000E+00 0.  1.
         24    2    1    2    0    0 -0.11188385095E+03 -0.25721196095E+03  0.27574107685E+03  0.40124182648E+03  0.79283497033E+02 0.  0.
        254    2    1    2    0    0  0.11188385095E+03  0.25721196095E+03 -0.54378400535E+03  0.10884243168E+04  0.90016135214E+03 0.  0.
         23    2    4    4    0    0 -0.12017815849E+03 -0.21609007853E+03 -0.48260752245E+03  0.54998192612E+03  0.91828026844E+02 0.  0.
         23    2    4    4    0    0  0.23206200944E+03  0.47330203948E+03 -0.61176482896E+02  0.53844239064E+03  0.91159471121E+02 0.  0.
          2    1    3    3  502    0 -0.69076145053E+02 -0.20884922540E+03  0.24638830802E+03  0.33029791264E+03  0.00000000000E+00 0. -1.
         -1    1    3    3    0  502 -0.42807705893E+02 -0.48362735546E+02  0.29352768825E+02  0.70943913840E+02  0.00000000000E+00 0.  1.
         11    1    5    5    0    0 -0.91503855335E+02 -0.12258321346E+03 -0.37262871214E+03  0.40280486203E+03  0.00000000000E+00 0.  1.
        -11    1    5    5    0    0 -0.28674303159E+02 -0.93506865072E+02 -0.10997881032E+03  0.14717706410E+03  0.00000000000E+00 0. -1.
          4    1    6    6  503    0  0.94705081259E+02  0.14338955651E+03 -0.57016903299E+02  0.18105398254E+03  0.00000000000E+00 0. -1.
         -4    1    6    6    0  503  0.13735692818E+03  0.32991248297E+03 -0.41595795969E+01  0.35738840810E+03  0.00000000000E+00 0.  1.
<mgrwt>
<rscale>  0 0.14653526E+04</rscale>
<asrwt>0</asrwt>
<pdfrwt beam="1">  1        2 0.93971017E-01 0.14653526E+04</pdfrwt>
<pdfrwt beam="2">  1       -1 0.13520839E+00 0.14653526E+04</pdfrwt>
<totfact> 0.24652039E+01</totfact>
</mgrwt>
</event>
<event>
12    6  0.1402540E-007  0.1463758E+04  0.7818608E-02  0.8908917E-01
          2   -1    0    0  501    0  0.00000000000E+00  0.00000000000E+00  0.99382083277E+03  0.99382083277E+03  0.00000000000E+00 0. -1.
         -1   -1    0    0    0  501 -0.00000000000E+00 -0.00000000000E+00 -0.53897749919E+03  0.53897749919E+03  0.00000000000E+00 0.  1.
         24    2    1    2    0    0  0.28712293009E+03 -0.45183926957E+02 -0.21801344888E+03  0.37244907856E+03  0.81898034116E+02 0.  0.
        254    2    1    2    0    0 -0.28712293009E+03  0.45183926957E+02  0.67285678245E+03  0.11603492534E+04  0.89955154157E+03 0.  0.
         23    2    4    4    0    0 -0.12656135707E+03 -0.31237346337E+03 -0.29220852551E+02  0.35112068937E+03  0.94004907100E+02 0.  0.
         23    2    4    4    0    0 -0.16056157302E+03  0.35755739033E+03  0.70207763500E+03  0.80922856403E+03  0.91162257371E+02 0.  0.
          2    1    3    3  502    0  0.24139269227E+03 -0.67902651428E+02 -0.17665051647E+03  0.30673540213E+03  0.00000000000E+00 0. -1.
         -1    1    3    3    0  502  0.45730237820E+02  0.22718724471E+02 -0.41362932404E+02  0.65713676428E+02  0.00000000000E+00 0.  1.
         11    1    5    5    0    0 -0.13874231783E+03 -0.27488701686E+03 -0.12118552757E+02  0.30815444523E+03  0.00000000000E+00 0.  1.
        -11    1    5    5    0    0  0.12180960763E+02 -0.37486446509E+02 -0.17102299794E+02  0.42966244137E+02  0.00000000000E+00 0. -1.
          3    1    6    6  503    0 -0.18725644484E+02  0.15548493992E+01  0.25734839800E+02  0.31864546090E+02  0.00000000000E+00 0. -1.
         -3    1    6    6    0  503 -0.14183592854E+03  0.35600254093E+03  0.67634279520E+03  0.77736401794E+03  0.00000000000E+00 0.  1.
<mgrwt>
<rscale>  0 0.14637583E+04</rscale>
<asrwt>0</asrwt>
<pdfrwt beam="1">  1        2 0.15289551E+00 0.14637583E+04</pdfrwt>
<pdfrwt beam="2">  1       -1 0.82919616E-01 0.14637583E+04</pdfrwt>
<totfact> 0.40597921E+01</totfact>
</mgrwt>
</event>
<event>
12    6  0.1402540E-007  0.2800846E+04  0.7818608E-02  0.8303006E-01
         -3   -1    0    0    0  501 -0.00000000000E+00  0.00000000000E+00  0.15298937989E+04  0.15298937989E+04  0.00000000000E+00 0.  1.
          2   -1    0    0  501    0  0.00000000000E+00 -0.00000000000E+00 -0.12819090310E+04  0.12819090310E+04  0.00000000000E+00 0. -1.
         24    2    1    2    0    0 -0.96746937368E+03  0.72506831279E+03 -0.23470318936E+03  0.12341697774E+04  0.79802288114E+02 0.  0.
        254    2    1    2    0    0  0.96746937368E+03 -0.72506831279E+03  0.48268795728E+03  0.15776330524E+04  0.89118872122E+03 0.  0.
         23    2    4    4    0    0  0.10571800397E+04 -0.39752022627E+03  0.46617538340E+03  0.12255405018E+04  0.94752661369E+02 0.  0.
         23    2    4    4    0    0 -0.89710666042E+02 -0.32754808652E+03  0.16512573876E+02  0.35209255062E+03  0.91437117859E+02 0.  0.
          2    1    3    3  502    0 -0.38916089996E+03  0.24332049364E+03 -0.87427096861E+02  0.46722004018E+03  0.00000000000E+00 0. -1.
         -1    1    3    3    0  502 -0.57830847373E+03  0.48174781915E+03 -0.14727609250E+03  0.76694973725E+03  0.00000000000E+00 0.  1.
         11    1    5    5    0    0  0.39654997035E+03 -0.19555316924E+03  0.16500792853E+03  0.47193276794E+03  0.00000000000E+00 0. -1.
        -11    1    5    5    0    0  0.66063006938E+03 -0.20196705704E+03  0.30116745487E+03  0.75360773388E+03  0.00000000000E+00 0.  1.
          4    1    6    6  503    0 -0.65326802321E+02 -0.16550816982E+03  0.50033508789E+02  0.18483478401E+03  0.00000000000E+00 0. -1.
         -4    1    6    6    0  503 -0.24383863720E+02 -0.16203991669E+03 -0.33520934913E+02  0.16725776660E+03  0.00000000000E+00 0.  1.
<mgrwt>
<rscale>  0 0.28008461E+04</rscale>
<asrwt>0</asrwt>
<pdfrwt beam="1">  1        2 0.19721677E+00 0.28008461E+04</pdfrwt>
<pdfrwt beam="2">  1       -3 0.23536828E+00 0.28008461E+04</pdfrwt>
<totfact> 0.82601676E-01</totfact>
</mgrwt>
</event>
<event>
12    6  0.1402540E-007  0.1087231E+04  0.7818608E-02  0.9217727E-01
          2   -1    0    0  501    0  0.00000000000E+00  0.00000000000E+00  0.71881537928E+03  0.71881537928E+03  0.00000000000E+00 0. -1.
         -1   -1    0    0    0  501 -0.00000000000E+00 -0.00000000000E+00 -0.41111803518E+03  0.41111803518E+03  0.00000000000E+00 0.  1.
         24    2    1    2    0    0  0.49253025085E+02 -0.14979402022E+03  0.40534448200E+02  0.18349915395E+03  0.84645076849E+02 0.  0.
        254    2    1    2    0    0 -0.49253025085E+02  0.14979402022E+03  0.26716289590E+03  0.94643426051E+03  0.89414634571E+03 0.  0.
         23    2    4    4    0    0  0.84838581742E+02  0.26618347640E+03  0.53651227878E+03  0.61143771194E+03  0.89215594179E+02 0.  0.
         23    2    4    4    0    0 -0.13409160683E+03 -0.11638945617E+03 -0.26934938288E+03  0.33499654857E+03  0.90258146273E+02 0.  0.
          2    1    3    3  502    0 -0.23001829643E+02 -0.54274021646E+02  0.88365631745E+01  0.59605691349E+02  0.00000000000E+00 0. -1.
         -1    1    3    3    0  502  0.72254854728E+02 -0.95519998578E+02  0.31697885025E+02  0.12389346260E+03  0.00000000000E+00 0.  1.
         11    1    5    5    0    0  0.75290061779E+02  0.23773574512E+03  0.39768290604E+03  0.46940235584E+03  0.00000000000E+00 0. -1.
        -11    1    5    5    0    0  0.95485199631E+01  0.28447731279E+02  0.13882937274E+03  0.14203535610E+03  0.00000000000E+00 0.  1.
          3    1    6    6  503    0 -0.38143030416E+02 -0.91600745558E+02 -0.15029323679E+03  0.18009343237E+03  0.00000000000E+00 0. -1.
         -3    1    6    6    0  503 -0.95948576410E+02 -0.24788710613E+02 -0.11905614608E+03  0.15490311620E+03  0.00000000000E+00 0.  1.
<mgrwt>
<rscale>  0 0.10872313E+04</rscale>
<asrwt>0</asrwt>
<pdfrwt beam="1">  1        2 0.11058698E+00 0.10872313E+04</pdfrwt>
<pdfrwt beam="2">  1       -1 0.63248928E-01 0.10872313E+04</pdfrwt>
<totfact> 0.11397436E+02</totfact>
</mgrwt>
</event>
<event>
12    6  0.1402540E-007  0.1752149E+04  0.7818608E-02  0.8732168E-01
          2   -1    0    0  501    0  0.00000000000E+00  0.00000000000E+00  0.11256492897E+04  0.11256492897E+04  0.00000000000E+00 0. -1.
         -1   -1    0    0    0  501 -0.00000000000E+00 -0.00000000000E+00 -0.68183459313E+03  0.68183459313E+03  0.00000000000E+00 0.  1.
         24    2    1    2    0    0  0.46248333767E+03 -0.36613252933E+03 -0.98246195085E+02  0.60343561732E+03  0.80860143124E+02 0.  0.
        254    2    1    2    0    0 -0.46248333767E+03  0.36613252933E+03  0.54206089166E+03  0.12040482655E+04  0.89886503367E+03 0.  0.
         23    2    4    4    0    0 -0.63419644433E+03  0.46003618294E+02  0.52283921615E+03  0.82891878460E+03  0.97077508307E+02 0.  0.
         23    2    4    4    0    0  0.17171310666E+03  0.32012891103E+03  0.19221675508E+02  0.37512948091E+03  0.91568247552E+02 0.  0.
          2    1    3    3  502    0  0.31018690734E+03 -0.24818997204E+03 -0.27426896616E+02  0.39820398587E+03  0.00000000000E+00 0. -1.
         -1    1    3    3    0  502  0.15229643034E+03 -0.11794255729E+03 -0.70819298469E+02  0.20523163145E+03  0.00000000000E+00 0.  1.
         11    1    5    5    0    0 -0.29509937722E+03 -0.50857593571E+01  0.18989296974E+03  0.35095419550E+03  0.00000000000E+00 0. -1.
        -11    1    5    5    0    0 -0.33909706711E+03  0.51089377651E+02  0.33294624641E+03  0.47796458910E+03  0.00000000000E+00 0.  1.
          1    1    6    6  503    0  0.76051362811E+02  0.22915593298E+03 -0.18061718222E+01  0.24145292225E+03  0.00000000000E+00 0. -1.
         -1    1    6    6    0  503  0.95661743847E+02  0.90972978049E+02  0.21027847330E+02  0.13367655866E+03  0.00000000000E+00 0.  1.
<mgrwt>
<rscale>  0 0.17521491E+04</rscale>
<asrwt>0</asrwt>
<pdfrwt beam="1">  1        2 0.17317681E+00 0.17521491E+04</pdfrwt>
<pdfrwt beam="2">  1       -1 0.10489763E+00 0.17521491E+04</pdfrwt>
<totfact> 0.19377930E+01</totfact>
</mgrwt>
</event>
<event>
12    6  0.1402540E-007  0.1819095E+04  0.7818608E-02  0.8696210E-01
          2   -1    0    0  501    0  0.00000000000E+00  0.00000000000E+00  0.16732812028E+04  0.16732812028E+04  0.00000000000E+00 0. -1.
         -1   -1    0    0    0  501 -0.00000000000E+00 -0.00000000000E+00 -0.49440392477E+03  0.49440392477E+03  0.00000000000E+00 0.  1.
         24    2    1    2    0    0  0.39806467134E+03 -0.46964939037E+03  0.80174639453E+03  0.10142130691E+04  0.82491429266E+02 0.  0.
        254    2    1    2    0    0 -0.39806467134E+03  0.46964939037E+03  0.37713088354E+03  0.11534720585E+04  0.89957993198E+03 0.  0.
         23    2    4    4    0    0 -0.63333205911E+03  0.47258898547E+03  0.41824971123E+03  0.89864585318E+03  0.90452762292E+02 0.  0.
         23    2    4    4    0    0  0.23526738777E+03 -0.29395950916E+01 -0.41118827694E+02  0.25482620534E+03  0.88804571790E+02 0.  0.
          2    1    3    3  502    0  0.32253575283E+03 -0.39578979221E+03  0.70854814999E+03  0.87333805157E+03  0.00000000000E+00 0. -1.
         -1    1    3    3    0  502  0.75528918512E+02 -0.73859598167E+02  0.93198244547E+02  0.14087501751E+03  0.00000000000E+00 0.  1.
         11    1    5    5    0    0 -0.31348685804E+03  0.25685822509E+03  0.26088878970E+03  0.48198871206E+03  0.00000000000E+00 0.  1.
        -11    1    5    5    0    0 -0.31984520107E+03  0.21573076037E+03  0.15736092153E+03  0.41665714112E+03  0.00000000000E+00 0. -1.
          4    1    6    6  503    0  0.16831199521E+03  0.30277239811E+02 -0.32644366584E+01  0.17104471792E+03  0.00000000000E+00 0. -1.
         -4    1    6    6    0  503  0.66955392561E+02 -0.33216834902E+02 -0.37854391036E+02  0.83781487422E+02  0.00000000000E+00 0.  1.
<mgrwt>
<rscale>  0 0.18190952E+04</rscale>
<asrwt>0</asrwt>
<pdfrwt beam="1">  1        2 0.25742788E+00 0.18190952E+04</pdfrwt>
<pdfrwt beam="2">  1       -1 0.76062143E-01 0.18190952E+04</pdfrwt>
<totfact> 0.18916257E+01</totfact>
</mgrwt>
</event>
<event>
12    6  0.1402540E-007  0.2597236E+04  0.7818608E-02  0.8369141E-01
         -1   -1    0    0    0  501 -0.00000000000E+00  0.00000000000E+00  0.92199626643E+03  0.92199626643E+03  0.00000000000E+00 0.  1.
          2   -1    0    0  501    0  0.00000000000E+00 -0.00000000000E+00 -0.18290837269E+04  0.18290837269E+04  0.00000000000E+00 0. -1.
         24    2    1    2    0    0  0.10341358895E+04  0.47969411579E+03 -0.33966500848E+03  0.11921757847E+04  0.79795369015E+02 0.  0.
        254    2    1    2    0    0 -0.10341358895E+04 -0.47969411579E+03 -0.56742245195E+03  0.15589042086E+04  0.89926114678E+03 0.  0.
         23    2    4    4    0    0 -0.11533912218E+04 -0.27661337832E+03 -0.39519965354E+03  0.12535725326E+04  0.91842563814E+02 0.  0.
         23    2    4    4    0    0  0.11925533237E+03 -0.20308073747E+03 -0.17222279841E+03  0.30533167608E+03  0.90017331091E+02 0.  0.
          4    1    3    3  502    0  0.74801151794E+03  0.38527455510E+03 -0.25554292368E+03  0.87935197709E+03  0.00000000000E+00 0. -1.
         -3    1    3    3    0  502  0.28612437154E+03  0.94419560690E+02 -0.84122084808E+02  0.31282380757E+03  0.00000000000E+00 0.  1.
         11    1    5    5    0    0 -0.10459889824E+04 -0.26764239393E+03 -0.33684722920E+03  0.11310134650E+04  0.00000000000E+00 0.  1.
        -11    1    5    5    0    0 -0.10740223947E+03 -0.89709843827E+01 -0.58352424345E+02  0.12255906751E+03  0.00000000000E+00 0. -1.
          4    1    6    6  503    0  0.21485697023E+02 -0.55118581364E+00  0.91407569680E+00  0.21512194606E+02  0.00000000000E+00 0. -1.
         -4    1    6    6    0  503  0.97769635346E+02 -0.20252955166E+03 -0.17313687410E+03  0.28381948147E+03  0.00000000000E+00 0.  1.
<mgrwt>
<rscale>  0 0.25972357E+04</rscale>
<asrwt>0</asrwt>
<pdfrwt beam="1">  1        2 0.28139750E+00 0.25972357E+04</pdfrwt>
<pdfrwt beam="2">  1       -1 0.14184558E+00 0.25972357E+04</pdfrwt>
<totfact> 0.33905506E+00</totfact>
</mgrwt>
</event>
<event>
12    6  0.1402540E-007  0.1929208E+04  0.7818608E-02  0.8640453E-01
         -1   -1    0    0    0  501 -0.00000000000E+00  0.00000000000E+00  0.34504476476E+03  0.34504476476E+03  0.00000000000E+00 0.  1.
          2   -1    0    0  501    0  0.00000000000E+00 -0.00000000000E+00 -0.26966389268E+04  0.26966389268E+04  0.00000000000E+00 0. -1.
         24    2    1    2    0    0  0.60517548576E+03  0.41489026158E+03 -0.11877444071E+04  0.13984405672E+04  0.80795703484E+02 0.  0.
        254    2    1    2    0    0 -0.60517548576E+03 -0.41489026158E+03 -0.11638497550E+04  0.16432431244E+04  0.89851567374E+03 0.  0.
         23    2    4    4    0    0 -0.75369443109E+03 -0.83178829608E+02 -0.92174827410E+03  0.11973167362E+04  0.94728416642E+02 0.  0.
         23    2    4    4    0    0  0.14851894533E+03 -0.33171143198E+03 -0.24210148091E+03  0.44592638817E+03  0.90259987713E+02 0.  0.
          4    1    3    3  502    0  0.47880895240E+03  0.31832139460E+03 -0.98788309339E+03  0.11430221036E+04  0.00000000000E+00 0. -1.
         -3    1    3    3    0  502  0.12636653335E+03  0.96568866981E+02 -0.19986131367E+03  0.25541846355E+03  0.00000000000E+00 0.  1.
         11    1    5    5    0    0 -0.28241098718E+03 -0.15109243147E+02 -0.41234297881E+03  0.50001098696E+03  0.00000000000E+00 0. -1.
        -11    1    5    5    0    0 -0.47128344391E+03 -0.68069586461E+02 -0.50940529529E+03  0.69730574928E+03  0.00000000000E+00 0.  1.
          2    1    6    6  503    0  0.12205769208E+02 -0.86374134011E+02 -0.23972719071E+02  0.90466364401E+02  0.00000000000E+00 0. -1.
         -2    1    6    6    0  503  0.13631317612E+03 -0.24533729797E+03 -0.21812876183E+03  0.35546002377E+03  0.00000000000E+00 0.  1.
<mgrwt>
<rscale>  0 0.19292083E+04</rscale>
<asrwt>0</asrwt>
<pdfrwt beam="1">  1        2 0.41486753E+00 0.19292083E+04</pdfrwt>
<pdfrwt beam="2">  1       -1 0.53083810E-01 0.19292083E+04</pdfrwt>
<totfact> 0.10169103E+01</totfact>
</mgrwt>
</event>
<event>
12    6  0.1402540E-007  0.3137417E+04  0.7818608E-02  0.8205543E-01
         -1   -1    0    0    0  501 -0.00000000000E+00  0.00000000000E+00  0.11545224901E+04  0.11545224901E+04  0.00000000000E+00 0.  1.
          2   -1    0    0  501    0  0.00000000000E+00 -0.00000000000E+00 -0.21314845726E+04  0.21314845726E+04  0.00000000000E+00 0. -1.
         24    2    1    2    0    0  0.16805590133E+03 -0.76028258733E+03  0.81785032683E+03  0.11319016403E+04  0.77780252641E+02 0.  0.
        254    2    1    2    0    0 -0.16805590133E+03  0.76028258733E+03 -0.17948124093E+04  0.21541054223E+04  0.90141343862E+03 0.  0.
         23    2    4    4    0    0 -0.40470489212E+03  0.73521188158E+02 -0.41061987695E+03  0.58831725942E+03  0.91198133616E+02 0.  0.
         23    2    4    4    0    0  0.23664899078E+03  0.68676139917E+03 -0.13841925324E+04  0.15657881629E+04  0.89775499000E+02 0.  0.
          2    1    3    3  502    0  0.65312932489E+02 -0.22348321981E+03  0.19927598677E+03  0.30646606271E+03  0.00000000000E+00 0. -1.
         -3    1    3    3    0  502  0.10274296884E+03 -0.53679936752E+03  0.61857434006E+03  0.82543557761E+03  0.00000000000E+00 0.  1.
         11    1    5    5    0    0 -0.38615148496E+03  0.49982435436E+02 -0.36478890403E+03  0.53355614296E+03  0.00000000000E+00 0. -1.
        -11    1    5    5    0    0 -0.18553407154E+02  0.23538752721E+02 -0.45830972928E+02  0.54761116462E+02  0.00000000000E+00 0.  1.
          4    1    6    6  503    0  0.78846071838E+01  0.84719746363E+02 -0.20967513070E+03  0.22628137990E+03  0.00000000000E+00 0. -1.
         -4    1    6    6    0  503  0.22876438360E+03  0.60204165281E+03 -0.11745174017E+04  0.13395067830E+04  0.00000000000E+00 0.  1.
<mgrwt>
<rscale>  0 0.31374173E+04</rscale>
<asrwt>0</asrwt>
<pdfrwt beam="1">  1        2 0.32792070E+00 0.31374173E+04</pdfrwt>
<pdfrwt beam="2">  1       -1 0.17761885E+00 0.31374173E+04</pdfrwt>
<totfact> 0.11757564E+00</totfact>
</mgrwt>
</event>
<event>
12    6  0.1402540E-007  0.1067162E+04  0.7818608E-02  0.9237802E-01
          2   -1    0    0  501    0  0.00000000000E+00  0.00000000000E+00  0.51562853238E+03  0.51562853238E+03  0.00000000000E+00 0. -1.
         -1   -1    0    0    0  501 -0.00000000000E+00 -0.00000000000E+00 -0.55215889752E+03  0.55215889752E+03  0.00000000000E+00 0.  1.
         24    2    1    2    0    0  0.81841547679E+02  0.10365723328E+03  0.64325560907E+01  0.15713167559E+03  0.84888896554E+02 0.  0.
        254    2    1    2    0    0 -0.81841547679E+02 -0.10365723328E+03 -0.42962921229E+02  0.91065575431E+03  0.90000290518E+03 0.  0.
         23    2    4    4    0    0  0.14567362056E+03  0.33914291467E+03 -0.12045474941E+03  0.39859011471E+03  0.90144398549E+02 0.  0.
         23    2    4    4    0    0 -0.22751516824E+03 -0.44280014795E+03  0.77491828185E+02  0.51206563960E+03  0.91493786771E+02 0.  0.
          4    1    3    3  502    0  0.52262892214E+02  0.62779374573E+02  0.45331094252E+02  0.93421452999E+02  0.00000000000E+00 0. -1.
         -3    1    3    3    0  502  0.29578655465E+02  0.40877858709E+02 -0.38898538161E+02  0.63710222593E+02  0.00000000000E+00 0.  1.
         11    1    5    5    0    0  0.13219820081E+03  0.21085110909E+03 -0.98929847025E+02  0.26780901616E+03  0.00000000000E+00 0. -1.
        -11    1    5    5    0    0  0.13475419754E+02  0.12829180558E+03 -0.21524902389E+02  0.13078109856E+03  0.00000000000E+00 0.  1.
          1    1    6    6  503    0 -0.14517160773E+03 -0.30887559131E+03  0.93969698810E+02  0.35399043898E+03  0.00000000000E+00 0. -1.
         -1    1    6    6    0  503 -0.82343560512E+02 -0.13392455664E+03 -0.16477870625E+02  0.15807520062E+03  0.00000000000E+00 0.  1.
<mgrwt>
<rscale>  0 0.10671624E+04</rscale>
<asrwt>0</asrwt>
<pdfrwt beam="1">  1        2 0.79327467E-01 0.10671624E+04</pdfrwt>
<pdfrwt beam="2">  1       -1 0.84947522E-01 0.10671624E+04</pdfrwt>
<totfact> 0.92690277E+01</totfact>
</mgrwt>
</event>
<event>
12    6  0.1402540E-007  0.2631092E+04  0.7818608E-02  0.8357716E-01
         -1   -1    0    0    0  501 -0.00000000000E+00  0.00000000000E+00  0.15615017042E+04  0.15615017042E+04  0.00000000000E+00 0.  1.
          2   -1    0    0  501    0  0.00000000000E+00 -0.00000000000E+00 -0.11083314582E+04  0.11083314582E+04  0.00000000000E+00 0. -1.
         24    2    1    2    0    0  0.10072118383E+04  0.44318057969E+03  0.56747536992E+03  0.12406108551E+04  0.78754586473E+02 0.  0.
        254    2    1    2    0    0 -0.10072118383E+04 -0.44318057969E+03 -0.11430512398E+03  0.14292223073E+04  0.90483480755E+03 0.  0.
         23    2    4    4    0    0 -0.75479597346E+03 -0.23330128940E+03  0.33717123075E+03  0.86374531861E+03  0.90692245474E+02 0.  0.
         23    2    4    4    0    0 -0.25241586482E+03 -0.20987929028E+03 -0.45147635473E+03  0.56547698869E+03  0.90389382990E+02 0.  0.
          2    1    3    3  502    0  0.52729767120E+03  0.22815564604E+03  0.25216090420E+03  0.62744159448E+03  0.00000000000E+00 0. -1.
         -1    1    3    3    0  502  0.47991416708E+03  0.21502493365E+03  0.31531446572E+03  0.61316926060E+03  0.00000000000E+00 0.  1.
         11    1    5    5    0    0 -0.59777147655E+02 -0.31379147294E+02  0.58763199140E+01  0.67767908352E+02  0.00000000000E+00 0.  1.
        -11    1    5    5    0    0 -0.69501882580E+03 -0.20192214211E+03  0.33129491084E+03  0.79597741026E+03  0.00000000000E+00 0. -1.
          4    1    6    6  503    0 -0.20019704384E+03 -0.20020448397E+03 -0.34347380629E+03  0.44512351923E+03  0.00000000000E+00 0. -1.
         -4    1    6    6    0  503 -0.52218820983E+02 -0.96748063098E+01 -0.10800254844E+03  0.12035346946E+03  0.00000000000E+00 0.  1.
<mgrwt>
<rscale>  0 0.26310921E+04</rscale>
<asrwt>0</asrwt>
<pdfrwt beam="1">  1        2 0.17051253E+00 0.26310921E+04</pdfrwt>
<pdfrwt beam="2">  1       -1 0.24023103E+00 0.26310921E+04</pdfrwt>
<totfact> 0.17490671E+00</totfact>
</mgrwt>
</event>
<event>
12    6  0.1402540E-007  0.1936522E+04  0.7818608E-02  0.8636888E-01
          2   -1    0    0  501    0  0.00000000000E+00  0.00000000000E+00  0.12063464171E+04  0.12063464171E+04  0.00000000000E+00 0. -1.
         -1   -1    0    0    0  501 -0.00000000000E+00 -0.00000000000E+00 -0.77716402075E+03  0.77716402075E+03  0.00000000000E+00 0.  1.
         24    2    1    2    0    0  0.74229258704E+03 -0.74520321826E+02  0.30688005834E+03  0.81076948268E+03  0.81364738624E+02 0.  0.
        254    2    1    2    0    0 -0.74229258704E+03  0.74520321826E+02  0.12230233797E+03  0.11727409551E+04  0.89655558827E+03 0.  0.
         23    2    4    4    0    0 -0.47909219779E+03 -0.71616839512E+02  0.48586263862E+03  0.69207125725E+03  0.90784447050E+02 0.  0.
         23    2    4    4    0    0 -0.26320038925E+03  0.14613716134E+03 -0.36356030064E+03  0.48066969789E+03  0.90756550398E+02 0.  0.
          2    1    3    3  502    0  0.53497162320E+03 -0.32946644089E+02  0.25225783971E+03  0.59238006101E+03  0.00000000000E+00 0. -1.
         -1    1    3    3    0  502  0.20732096384E+03 -0.41573677737E+02  0.54622218636E+02  0.21838942167E+03  0.00000000000E+00 0.  1.
         11    1    5    5    0    0 -0.19814594347E+03 -0.44074894746E+02  0.26405952728E+03  0.33306432592E+03  0.00000000000E+00 0.  1.
        -11    1    5    5    0    0 -0.28094625433E+03 -0.27541944766E+02  0.22180311134E+03  0.35900693133E+03  0.00000000000E+00 0. -1.
          1    1    6    6  503    0 -0.30169640263E+02  0.43737296574E+02 -0.10591577568E+03  0.11849603303E+03  0.00000000000E+00 0. -1.
         -1    1    6    6    0  503 -0.23303074898E+03  0.10239986476E+03 -0.25764452496E+03  0.36217366486E+03  0.00000000000E+00 0.  1.
<mgrwt>
<rscale>  0 0.19365217E+04</rscale>
<asrwt>0</asrwt>
<pdfrwt beam="1">  1        2 0.18559176E+00 0.19365217E+04</pdfrwt>
<pdfrwt beam="2">  1       -1 0.11956370E+00 0.19365217E+04</pdfrwt>
<totfact> 0.12488537E+01</totfact>
</mgrwt>
</event>
<event>
12    6  0.1402540E-007  0.1676910E+04  0.7818608E-02  0.8774644E-01
          2   -1    0    0  501    0  0.00000000000E+00  0.00000000000E+00  0.21614045290E+04  0.21614045290E+04  0.00000000000E+00 0. -1.
         -1   -1    0    0    0  501 -0.00000000000E+00 -0.00000000000E+00 -0.32525452133E+03  0.32525452133E+03  0.00000000000E+00 0.  1.
         24    2    1    2    0    0  0.32853366281E+03 -0.20268984239E+03 -0.13065089440E+02  0.39354800566E+03  0.75443995064E+02 0.  0.
        254    2    1    2    0    0 -0.32853366281E+03  0.20268984239E+03  0.18492150971E+04  0.20931110447E+04  0.90138772463E+03 0.  0.
         23    2    4    4    0    0 -0.17840997337E+03 -0.29359424560E+03  0.33069672162E+03  0.48602066007E+03  0.93957760102E+02 0.  0.
         23    2    4    4    0    0 -0.15012368944E+03  0.49628408799E+03  0.15185183755E+04  0.16070903846E+04  0.89478653356E+02 0.  0.
          4    1    3    3  502    0  0.56726072816E+02 -0.10151395127E+02 -0.18147157664E+02  0.60417029813E+02  0.00000000000E+00 0. -1.
         -3    1    3    3    0  502  0.27180758999E+03 -0.19253844726E+03  0.50820682239E+01  0.33313097585E+03  0.00000000000E+00 0.  1.
         11    1    5    5    0    0 -0.10508334681E+03 -0.98727762793E+02  0.17065927571E+03  0.22341501585E+03  0.00000000000E+00 0.  1.
        -11    1    5    5    0    0 -0.73326626565E+02 -0.19486648281E+03  0.16003744590E+03  0.26260564422E+03  0.00000000000E+00 0. -1.
          1    1    6    6  503    0 -0.11910250392E+03  0.36754664445E+03  0.12379669283E+04  0.12968569920E+04  0.00000000000E+00 0. -1.
         -1    1    6    6    0  503 -0.31021185519E+02  0.12873744354E+03  0.28055144723E+03  0.31023339257E+03  0.00000000000E+00 0.  1.
<mgrwt>
<rscale>  0 0.16769098E+04</rscale>
<asrwt>0</asrwt>
<pdfrwt beam="1">  1        2 0.33252377E+00 0.16769098E+04</pdfrwt>
<pdfrwt beam="2">  1       -1 0.50039158E-01 0.16769098E+04</pdfrwt>
<totfact> 0.23630748E+01</totfact>
</mgrwt>
</event>
<event>
12    6  0.1402540E-007  0.2226304E+04  0.7818608E-02  0.8507559E-01
         -1   -1    0    0    0  501 -0.00000000000E+00  0.00000000000E+00  0.85858391035E+03  0.85858391035E+03  0.00000000000E+00 0.  1.
          2   -1    0    0  501    0  0.00000000000E+00 -0.00000000000E+00 -0.14431986824E+04  0.14431986824E+04  0.00000000000E+00 0. -1.
         24    2    1    2    0    0  0.19730563679E+03  0.82236024436E+03 -0.64268303427E+03  0.10652153028E+04  0.80226386376E+02 0.  0.
        254    2    1    2    0    0 -0.19730563679E+03 -0.82236024436E+03  0.58068262244E+02  0.12365672899E+04  0.90028931655E+03 0.  0.
         23    2    4    4    0    0 -0.41324243226E+03 -0.63098903955E+03 -0.25414504677E+03  0.80115074043E+03  0.91303495230E+02 0.  0.
         23    2    4    4    0    0  0.21593679547E+03 -0.19137120481E+03  0.31221330901E+03  0.43541654944E+03  0.94121111016E+02 0.  0.
          4    1    3    3  502    0  0.15495643097E+03  0.53338838290E+03 -0.38604907178E+03  0.67642334993E+03  0.00000000000E+00 0. -1.
         -3    1    3    3    0  502  0.42349205822E+02  0.28897186146E+03 -0.25663396249E+03  0.38879195292E+03  0.00000000000E+00 0.  1.
         11    1    5    5    0    0 -0.20833130647E+02 -0.52404347880E+02 -0.42813026105E+02  0.70803885582E+02  0.00000000000E+00 0. -1.
        -11    1    5    5    0    0 -0.39240930161E+03 -0.57858469167E+03 -0.21133202066E+03  0.73034685485E+03  0.00000000000E+00 0.  1.
          1    1    6    6  503    0 -0.43323386033E+01  0.61530756723E+01  0.60245811695E+01  0.96397653639E+01  0.00000000000E+00 0. -1.
         -1    1    6    6    0  503  0.22026913407E+03 -0.19752428048E+03  0.30618872784E+03  0.42577678408E+03  0.00000000000E+00 0.  1.
<mgrwt>
<rscale>  0 0.22263038E+04</rscale>
<asrwt>0</asrwt>
<pdfrwt beam="1">  1        2 0.22203056E+00 0.22263038E+04</pdfrwt>
<pdfrwt beam="2">  1       -1 0.13208983E+00 0.22263038E+04</pdfrwt>
<totfact> 0.69194808E+00</totfact>
</mgrwt>
</event>
<event>
12    6  0.1402540E-007  0.1590855E+04  0.7818608E-02  0.8826186E-01
         -1   -1    0    0    0  501 -0.00000000000E+00  0.00000000000E+00  0.40850378415E+03  0.40850378415E+03  0.00000000000E+00 0.  1.
          2   -1    0    0  501    0  0.00000000000E+00 -0.00000000000E+00 -0.15488355547E+04  0.15488355547E+04  0.00000000000E+00 0. -1.
         24    2    1    2    0    0  0.46030507192E+03 -0.26026591643E+03 -0.49922841752E+03  0.73152164760E+03  0.79219956757E+02 0.  0.
        254    2    1    2    0    0 -0.46030507192E+03  0.26026591643E+03 -0.64110335299E+03  0.12258176912E+04  0.90110842656E+03 0.  0.
         23    2    4    4    0    0 -0.37728101731E+03 -0.23452051924E+03 -0.54183368767E+03  0.70640839354E+03  0.89934606294E+02 0.  0.
         23    2    4    4    0    0 -0.83024054613E+02  0.49478643566E+03 -0.99269665319E+02  0.51940929768E+03  0.90691463248E+02 0.  0.
          4    1    3    3  502    0  0.25349919598E+03 -0.97870012463E+02 -0.25579056181E+03  0.37318787925E+03  0.00000000000E+00 0. -1.
         -3    1    3    3    0  502  0.20680587594E+03 -0.16239590396E+03 -0.24343785571E+03  0.35833376835E+03  0.00000000000E+00 0.  1.
         11    1    5    5    0    0 -0.18004845022E+03 -0.67110674357E+02 -0.19550178012E+03  0.27412083661E+03  0.00000000000E+00 0.  1.
        -11    1    5    5    0    0 -0.19723256709E+03 -0.16740984488E+03 -0.34633190756E+03  0.43228755693E+03  0.00000000000E+00 0. -1.
          4    1    6    6  503    0 -0.10114729072E+03  0.41228551098E+03 -0.71481448532E+02  0.43048776344E+03  0.00000000000E+00 0. -1.
         -4    1    6    6    0  503  0.18123236107E+02  0.82500924685E+02 -0.27788216787E+02  0.88921534248E+02  0.00000000000E+00 0.  1.
<mgrwt>
<rscale>  0 0.15908553E+04</rscale>
<asrwt>0</asrwt>
<pdfrwt beam="1">  1        2 0.23828239E+00 0.15908553E+04</pdfrwt>
<pdfrwt beam="2">  1       -1 0.62846737E-01 0.15908553E+04</pdfrwt>
<totfact> 0.33450829E+01</totfact>
</mgrwt>
</event>
<event>
12    6  0.1402540E-007  0.2634107E+04  0.7818608E-02  0.8356707E-01
         -1   -1    0    0    0  501 -0.00000000000E+00  0.00000000000E+00  0.89109276469E+03  0.89109276469E+03  0.00000000000E+00 0.  1.
          2   -1    0    0  501    0  0.00000000000E+00 -0.00000000000E+00 -0.19466319679E+04  0.19466319679E+04  0.00000000000E+00 0. -1.
         24    2    1    2    0    0 -0.87415636170E+03  0.49179369079E+03  0.17127916196E+03  0.10206284400E+04  0.79595742360E+02 0.  0.
        254    2    1    2    0    0  0.87415636170E+03 -0.49179369079E+03 -0.12268183651E+04  0.18170962926E+04  0.88923858238E+03 0.  0.
         23    2    4    4    0    0  0.10229759094E+04 -0.53805659254E+03 -0.10662524045E+04  0.15749808191E+04  0.87668593332E+02 0.  0.
         23    2    4    4    0    0 -0.14881954769E+03  0.46262901748E+02 -0.16056596059E+03  0.24211547350E+03  0.92471406132E+02 0.  0.
          4    1    3    3  502    0 -0.34988192152E+02  0.21304818951E+02 -0.86962380409E+01  0.41877123310E+02  0.00000000000E+00 0. -1.
         -3    1    3    3    0  502 -0.83916816955E+03  0.47048887184E+03  0.17997540000E+03  0.97875131669E+03  0.00000000000E+00 0.  1.
         11    1    5    5    0    0  0.42555948327E+03 -0.19284309417E+03 -0.38581921682E+03  0.60592557367E+03  0.00000000000E+00 0. -1.
        -11    1    5    5    0    0  0.59741642613E+03 -0.34521349837E+03 -0.68043318771E+03  0.96905524538E+03  0.00000000000E+00 0.  1.
          1    1    6    6  503    0 -0.69922117991E+01  0.44317548104E+01 -0.66170773043E+02  0.66686600465E+02  0.00000000000E+00 0. -1.
         -1    1    6    6    0  503 -0.14182733589E+03  0.41831146938E+02 -0.94395187551E+02  0.17542887303E+03  0.00000000000E+00 0.  1.
<mgrwt>
<rscale>  0 0.26341068E+04</rscale>
<asrwt>0</asrwt>
<pdfrwt beam="1">  1        2 0.29948184E+00 0.26341068E+04</pdfrwt>
<pdfrwt beam="2">  1       -1 0.13709120E+00 0.26341068E+04</pdfrwt>
<totfact> 0.31789080E+00</totfact>
</mgrwt>
</event>
<event>
12    6  0.1402540E-007  0.4134375E+04  0.7818608E-02  0.7977974E-01
          2   -1    0    0  501    0  0.00000000000E+00  0.00000000000E+00  0.21918731499E+04  0.21918731499E+04  0.00000000000E+00 0. -1.
         -1   -1    0    0    0  501 -0.00000000000E+00 -0.00000000000E+00 -0.19495947062E+04  0.19495947062E+04  0.00000000000E+00 0.  1.
         24    2    1    2    0    0  0.13901703074E+04  0.63551793481E+03 -0.11281669136E+04  0.19014563412E+04  0.79492790167E+02 0.  0.
        254    2    1    2    0    0 -0.13901703074E+04 -0.63551793481E+03  0.13704453573E+04  0.22400115148E+04  0.89614428544E+03 0.  0.
         23    2    4    4    0    0 -0.11002206096E+04 -0.14359175480E+03  0.12004360237E+04  0.16372838066E+04  0.92453418705E+02 0.  0.
         23    2    4    4    0    0 -0.28994969779E+03 -0.49192618001E+03  0.17000933356E+03  0.60272770819E+03  0.91188392384E+02 0.  0.
          4    1    3    3  502    0  0.55441219175E+03  0.23288219128E+03 -0.40166217577E+03  0.72314555715E+03  0.00000000000E+00 0. -1.
         -3    1    3    3    0  502  0.83575811567E+03  0.40263574353E+03 -0.72650473781E+03  0.11783107841E+04  0.00000000000E+00 0.  1.
         11    1    5    5    0    0 -0.68446145450E+03 -0.48824846345E+02  0.76982044457E+03  0.10312588740E+04  0.00000000000E+00 0. -1.
        -11    1    5    5    0    0 -0.41575915513E+03 -0.94766908457E+02  0.43061557913E+03  0.60602493265E+03  0.00000000000E+00 0.  1.
          4    1    6    6  503    0 -0.28041764503E+03 -0.47202597228E+03  0.18096473141E+03  0.57809238722E+03  0.00000000000E+00 0. -1.
         -4    1    6    6    0  503 -0.95320527589E+01 -0.19900207728E+02 -0.10955397851E+02  0.24635320974E+02  0.00000000000E+00 0.  1.
<mgrwt>
<rscale>  0 0.41343751E+04</rscale>
<asrwt>0</asrwt>
<pdfrwt beam="1">  1        2 0.33721126E+00 0.41343751E+04</pdfrwt>
<pdfrwt beam="2">  1       -1 0.29993765E+00 0.41343751E+04</pdfrwt>
<totfact> 0.15311600E-01</totfact>
</mgrwt>
</event>
<event>
12    6  0.1402540E-007  0.1332306E+04  0.7818608E-02  0.9004331E-01
          2   -1    0    0  501    0  0.00000000000E+00  0.00000000000E+00  0.11879590459E+04  0.11879590459E+04  0.00000000000E+00 0. -1.
         -1   -1    0    0    0  501 -0.00000000000E+00 -0.00000000000E+00 -0.37354813749E+03  0.37354813749E+03  0.00000000000E+00 0.  1.
         24    2    1    2    0    0 -0.32527484022E+03 -0.14234459099E+03  0.24502106017E+03  0.43942382351E+03  0.83619809140E+02 0.  0.
        254    2    1    2    0    0  0.32527484022E+03  0.14234459099E+03  0.56938984823E+03  0.11220833599E+04  0.89933339922E+03 0.  0.
         23    2    4    4    0    0  0.50609612264E+03  0.66332411072E+02  0.49906350449E+01  0.51773245686E+03  0.86537369555E+02 0.  0.
         23    2    4    4    0    0 -0.18082128242E+03  0.76012179921E+02  0.56439921318E+03  0.60435090301E+03  0.90660655473E+02 0.  0.
          4    1    3    3  502    0 -0.28642643129E+03 -0.14157943189E+03  0.24130422270E+03  0.40039051433E+03  0.00000000000E+00 0. -1.
         -3    1    3    3    0  502 -0.38848408929E+02 -0.76515910004E+00  0.37168374712E+01  0.39033309180E+02  0.00000000000E+00 0.  1.
         11    1    5    5    0    0  0.21122186517E+03  0.69453766387E+02 -0.87723255913E+01  0.22252068597E+03  0.00000000000E+00 0.  1.
        -11    1    5    5    0    0  0.29487425748E+03 -0.31213553147E+01  0.13762960636E+02  0.29521177088E+03  0.00000000000E+00 0. -1.
          3    1    6    6  503    0 -0.40418571847E+02  0.56783247686E+02  0.13125006699E+03  0.14860880947E+03  0.00000000000E+00 0. -1.
         -3    1    6    6    0  503 -0.14040271058E+03  0.19228932236E+02  0.43314914619E+03  0.45574209353E+03  0.00000000000E+00 0.  1.
<mgrwt>
<rscale>  0 0.13323061E+04</rscale>
<asrwt>0</asrwt>
<pdfrwt beam="1">  1        2 0.18276293E+00 0.13323061E+04</pdfrwt>
<pdfrwt beam="2">  1       -1 0.57468945E-01 0.13323061E+04</pdfrwt>
<totfact> 0.65847977E+01</totfact>
</mgrwt>
</event>
<event>
12    6  0.1402540E-007  0.2334053E+04  0.7818608E-02  0.8464614E-01
         -1   -1    0    0    0  501 -0.00000000000E+00  0.00000000000E+00  0.86269396287E+03  0.86269396287E+03  0.00000000000E+00 0.  1.
          2   -1    0    0  501    0  0.00000000000E+00 -0.00000000000E+00 -0.15787178728E+04  0.15787178728E+04  0.00000000000E+00 0. -1.
         24    2    1    2    0    0 -0.79381737770E+03  0.51137397482E+03 -0.62099635602E+03  0.11326666933E+04  0.75153127493E+02 0.  0.
        254    2    1    2    0    0  0.79381737770E+03 -0.51137397482E+03 -0.95027553935E+02  0.13087451424E+04  0.90118490921E+03 0.  0.
         23    2    4    4    0    0  0.22491216130E+03 -0.66563624350E+02 -0.43726038314E+03  0.50459183163E+03  0.91651936662E+02 0.  0.
         23    2    4    4    0    0  0.56890521639E+03 -0.44481035047E+03  0.34223282920E+03  0.80415331081E+03  0.89609401177E+02 0.  0.
          2    1    3    3  502    0 -0.63128423649E+03  0.40264618515E+03 -0.52751666356E+03  0.91592443356E+03  0.00000000000E+00 0. -1.
         -1    1    3    3    0  502 -0.16253314121E+03  0.10872778968E+03 -0.93479692453E+02  0.21674225970E+03  0.00000000000E+00 0.  1.
         11    1    5    5    0    0  0.19995047058E+03 -0.24917519522E+02 -0.37423153889E+03  0.42502978503E+03  0.00000000000E+00 0. -1.
        -11    1    5    5    0    0  0.24961690723E+02 -0.41646104828E+02 -0.63028844247E+02  0.79562046594E+02  0.00000000000E+00 0.  1.
          1    1    6    6  503    0  0.50589338302E+03 -0.42751849497E+03  0.31261727215E+03  0.73241363817E+03  0.00000000000E+00 0. -1.
         -1    1    6    6    0  503  0.63011833371E+02 -0.17291855499E+02  0.29615557056E+02  0.71739672644E+02  0.00000000000E+00 0.  1.
<mgrwt>
<rscale>  0 0.23340526E+04</rscale>
<asrwt>0</asrwt>
<pdfrwt beam="1">  1        2 0.24287967E+00 0.23340526E+04</pdfrwt>
<pdfrwt beam="2">  1       -1 0.13272215E+00 0.23340526E+04</pdfrwt>
<totfact> 0.56790127E+00</totfact>
</mgrwt>
</event>
<event>
12    6  0.1402540E-007  0.3714970E+04  0.7818608E-02  0.8064652E-01
         -1   -1    0    0    0  501 -0.00000000000E+00  0.00000000000E+00  0.18668746976E+04  0.18668746976E+04  0.00000000000E+00 0.  1.
          2   -1    0    0  501    0  0.00000000000E+00 -0.00000000000E+00 -0.18481420635E+04  0.18481420635E+04  0.00000000000E+00 0. -1.
         24    2    1    2    0    0 -0.12814102632E+04 -0.10655180034E+04 -0.51698231481E+03  0.17466484804E+04  0.78545030630E+02 0.  0.
        254    2    1    2    0    0  0.12814102632E+04  0.10655180034E+04  0.53571494890E+03  0.19683682808E+04  0.90007905435E+03 0.  0.
         23    2    4    4    0    0  0.18950930089E+03  0.61466683405E+03 -0.41582855714E+02  0.65039038023E+03  0.86887402966E+02 0.  0.
         23    2    4    4    0    0  0.10919009623E+04  0.45085116936E+03  0.57729780461E+03  0.13179779006E+04  0.90986277643E+02 0.  0.
          4    1    3    3  502    0 -0.49748924214E+03 -0.37537282576E+03 -0.16811919645E+03  0.64549544428E+03  0.00000000000E+00 0. -1.
         -3    1    3    3    0  502 -0.78392102107E+03 -0.69014517765E+03 -0.34886311836E+03  0.11011530361E+04  0.00000000000E+00 0.  1.
         11    1    5    5    0    0  0.11500735969E+03  0.48550326192E+03 -0.16698820938E+02  0.49921834976E+03  0.00000000000E+00 0.  1.
        -11    1    5    5    0    0  0.74501941196E+02  0.12916357214E+03 -0.24884034775E+02  0.15117203047E+03  0.00000000000E+00 0. -1.
          4    1    6    6  503    0  0.24797589443E+03  0.62017546962E+02  0.12226930278E+03  0.28335137683E+03  0.00000000000E+00 0. -1.
         -4    1    6    6    0  503  0.84392506790E+03  0.38883362239E+03  0.45502850184E+03  0.10346265237E+04  0.00000000000E+00 0.  1.
<mgrwt>
<rscale>  0 0.37149695E+04</rscale>
<asrwt>0</asrwt>
<pdfrwt beam="1">  1        2 0.28432955E+00 0.37149695E+04</pdfrwt>
<pdfrwt beam="2">  1       -1 0.28721149E+00 0.37149695E+04</pdfrwt>
<totfact> 0.29793916E-01</totfact>
</mgrwt>
</event>
<event>
12    6  0.1402540E-007  0.1913378E+04  0.7818608E-02  0.8648226E-01
          2   -1    0    0  501    0  0.00000000000E+00  0.00000000000E+00  0.21161969719E+04  0.21161969719E+04  0.00000000000E+00 0. -1.
         -1   -1    0    0    0  501 -0.00000000000E+00 -0.00000000000E+00 -0.43249951837E+03  0.43249951837E+03  0.00000000000E+00 0.  1.
         24    2    1    2    0    0 -0.63089479543E+03  0.33407047487E+03  0.93016145722E+03  0.11752742647E+04  0.80236748297E+02 0.  0.
        254    2    1    2    0    0  0.63089479543E+03 -0.33407047487E+03  0.75353599633E+03  0.13734222256E+04  0.89935576208E+03 0.  0.
         23    2    4    4    0    0 -0.11770820631E+03  0.12582471600E+03 -0.24229678855E+02  0.19663447835E+03  0.91602181998E+02 0.  0.
         23    2    4    4    0    0  0.74860300174E+03 -0.45989519087E+03  0.77776567519E+03  0.11767877472E+04  0.89442247668E+02 0.  0.
          4    1    3    3  502    0 -0.15892711010E+03  0.12241632660E+03  0.28026442777E+03  0.34466176582E+03  0.00000000000E+00 0. -1.
         -3    1    3    3    0  502 -0.47196768533E+03  0.21165414827E+03  0.64989702944E+03  0.83061249892E+03  0.00000000000E+00 0.  1.
         11    1    5    5    0    0 -0.94195283172E+02  0.78824101511E+02  0.24179761688E+02  0.12518247172E+03  0.00000000000E+00 0. -1.
        -11    1    5    5    0    0 -0.23512923140E+02  0.47000614491E+02 -0.48409440543E+02  0.71452006626E+02  0.00000000000E+00 0.  1.
          1    1    6    6  503    0  0.23455013585E+03 -0.16775982401E+03  0.20693493343E+03  0.35493547505E+03  0.00000000000E+00 0. -1.
         -1    1    6    6    0  503  0.51405286590E+03 -0.29213536687E+03  0.57083074175E+03  0.82185227215E+03  0.00000000000E+00 0.  1.
<mgrwt>
<rscale>  0 0.19133783E+04</rscale>
<asrwt>0</asrwt>
<pdfrwt beam="1">  1        2 0.32556876E+00 0.19133783E+04</pdfrwt>
<pdfrwt beam="2">  1       -1 0.66538389E-01 0.19133783E+04</pdfrwt>
<totfact> 0.14029814E+01</totfact>
</mgrwt>
</event>
<event>
12    6  0.1402540E-007  0.1965399E+04  0.7818608E-02  0.8622971E-01
         -1   -1    0    0    0  501 -0.00000000000E+00  0.00000000000E+00  0.62212966310E+03  0.62212966310E+03  0.00000000000E+00 0.  1.
          2   -1    0    0  501    0  0.00000000000E+00 -0.00000000000E+00 -0.15522466083E+04  0.15522466083E+04  0.00000000000E+00 0. -1.
         24    2    1    2    0    0  0.59826027798E+03 -0.38065368362E+03 -0.71025950606E+03  0.10067409322E+04  0.79032597515E+02 0.  0.
        254    2    1    2    0    0 -0.59826027798E+03  0.38065368362E+03 -0.21985743916E+03  0.11676353393E+04  0.90123382365E+03 0.  0.
         23    2    4    4    0    0  0.39769386242E+02 -0.12451836210E+02 -0.38262998571E+03  0.39526331666E+03  0.89948492073E+02 0.  0.
         23    2    4    4    0    0 -0.63802966422E+03  0.39310551983E+03  0.16277254656E+03  0.77237202260E+03  0.91922996225E+02 0.  0.
          4    1    3    3  502    0  0.25636009861E+03 -0.20982814351E+03 -0.33024748722E+03  0.46777318519E+03  0.00000000000E+00 0. -1.
         -3    1    3    3    0  502  0.34190017937E+03 -0.17082554010E+03 -0.38001201883E+03  0.53896774696E+03  0.00000000000E+00 0.  1.
         11    1    5    5    0    0 -0.24482219063E+02 -0.23447579597E+02 -0.13680554397E+03  0.14094298458E+03  0.00000000000E+00 0.  1.
        -11    1    5    5    0    0  0.64251605305E+02  0.10995743386E+02 -0.24582444174E+03  0.25432033209E+03  0.00000000000E+00 0. -1.
          3    1    6    6  503    0 -0.28680310095E+03  0.12880852401E+03  0.88136037277E+02  0.32652046741E+03  0.00000000000E+00 0. -1.
         -3    1    6    6    0  503 -0.35122656328E+03  0.26429699581E+03  0.74636509278E+02  0.44585155519E+03  0.00000000000E+00 0.  1.
<mgrwt>
<rscale>  0 0.19653994E+04</rscale>
<asrwt>0</asrwt>
<pdfrwt beam="1">  1        2 0.23880717E+00 0.19653994E+04</pdfrwt>
<pdfrwt beam="2">  1       -1 0.95712255E-01 0.19653994E+04</pdfrwt>
<totfact> 0.13256016E+01</totfact>
</mgrwt>
</event>
<event>
12    6  0.1402540E-007  0.1176206E+04  0.7818608E-02  0.9133942E-01
          2   -1    0    0  501    0  0.00000000000E+00  0.00000000000E+00  0.18810682309E+04  0.18810682309E+04  0.00000000000E+00 0. -1.
         -1   -1    0    0    0  501 -0.00000000000E+00 -0.00000000000E+00 -0.18386649699E+03  0.18386649699E+03  0.00000000000E+00 0.  1.
         24    2    1    2    0    0  0.21474804382E+03  0.90978228626E+02  0.38082985446E+03  0.45343244797E+03  0.78586553615E+02 0.  0.
        254    2    1    2    0    0 -0.21474804382E+03 -0.90978228626E+02  0.13163718795E+04  0.16115022800E+04  0.89983938169E+03 0.  0.
         23    2    4    4    0    0 -0.24632090688E+02 -0.35998542429E+03  0.11886397380E+04  0.12453974916E+04  0.89186543422E+02 0.  0.
         23    2    4    4    0    0 -0.19011595314E+03  0.26900719566E+03  0.12773214144E+03  0.36610478841E+03  0.95959726893E+02 0.  0.
          2    1    3    3  502    0  0.64063670427E+02  0.65301159835E+02  0.11695879046E+03  0.14848486122E+03  0.00000000000E+00 0. -1.
         -1    1    3    3    0  502  0.15068437340E+03  0.25677068791E+02  0.26387106400E+03  0.30494758675E+03  0.00000000000E+00 0.  1.
         11    1    5    5    0    0 -0.52350650031E+02 -0.13267047680E+03  0.44519309506E+03  0.46748148398E+03  0.00000000000E+00 0. -1.
        -11    1    5    5    0    0  0.27718559344E+02 -0.22731494749E+03  0.74344664298E+03  0.77791600758E+03  0.00000000000E+00 0.  1.
          3    1    6    6  503    0  0.42023745394E+01  0.13439052747E+02  0.25568335341E+02  0.29189173723E+02  0.00000000000E+00 0. -1.
         -3    1    6    6    0  503 -0.19431832768E+03  0.25556814292E+03  0.10216380610E+03  0.33691561469E+03  0.00000000000E+00 0.  1.
<mgrwt>
<rscale>  0 0.11762065E+04</rscale>
<asrwt>0</asrwt>
<pdfrwt beam="1">  1        2 0.28939510E+00 0.11762065E+04</pdfrwt>
<pdfrwt beam="2">  1       -1 0.28287155E-01 0.11762065E+04</pdfrwt>
<totfact> 0.99131276E+01</totfact>
</mgrwt>
</event>
<event>
12    6  0.1402540E-007  0.1978828E+04  0.7818608E-02  0.8616584E-01
          2   -1    0    0  501    0  0.00000000000E+00  0.00000000000E+00  0.16312463113E+04  0.16312463113E+04  0.00000000000E+00 0. -1.
         -1   -1    0    0    0  501 -0.00000000000E+00 -0.00000000000E+00 -0.60011803051E+03  0.60011803051E+03  0.00000000000E+00 0.  1.
         24    2    1    2    0    0 -0.44610405514E+03 -0.50686970386E+03 -0.36787645583E+02  0.68090944680E+03  0.79740950419E+02 0.  0.
        254    2    1    2    0    0  0.44610405514E+03  0.50686970386E+03  0.10679159264E+04  0.15504548950E+04  0.89863242261E+03 0.  0.
         23    2    4    4    0    0  0.67449518833E+03  0.48090126583E+03  0.62182279328E+03  0.10399774915E+04  0.93165497998E+02 0.  0.
         23    2    4    4    0    0 -0.22839113319E+03  0.25968438034E+02  0.44609313314E+03  0.51047740355E+03  0.93547990947E+02 0.  0.
          2    1    3    3  502    0 -0.22107855276E+03 -0.19155000726E+03 -0.18191124516E+02  0.29308368904E+03  0.00000000000E+00 0. -1.
         -1    1    3    3    0  502 -0.22502550238E+03 -0.31531969661E+03 -0.18596521068E+02  0.38782575776E+03  0.00000000000E+00 0.  1.
         11    1    5    5    0    0  0.42612947975E+03  0.26051155935E+03  0.40931011669E+03  0.64574559828E+03  0.00000000000E+00 0.  1.
        -11    1    5    5    0    0  0.24836570858E+03  0.22038970648E+03  0.21251267659E+03  0.39423189322E+03  0.00000000000E+00 0. -1.
          3    1    6    6  503    0 -0.83995708097E+02 -0.26021951003E+02  0.22284004855E+03  0.23956232624E+03  0.00000000000E+00 0. -1.
         -3    1    6    6    0  503 -0.14439542509E+03  0.51990389037E+02  0.22325308459E+03  0.27091507732E+03  0.00000000000E+00 0.  1.
<mgrwt>
<rscale>  0 0.19788283E+04</rscale>
<asrwt>0</asrwt>
<pdfrwt beam="1">  1        2 0.25096097E+00 0.19788283E+04</pdfrwt>
<pdfrwt beam="2">  1       -1 0.92325851E-01 0.19788283E+04</pdfrwt>
<totfact> 0.12961818E+01</totfact>
</mgrwt>
</event>
<event>
12    6  0.1402540E-007  0.1686689E+04  0.7818608E-02  0.8768993E-01
         -1   -1    0    0    0  501 -0.00000000000E+00  0.00000000000E+00  0.64317228297E+03  0.64317228297E+03  0.00000000000E+00 0.  1.
          2   -1    0    0  501    0  0.00000000000E+00 -0.00000000000E+00 -0.11058155613E+04  0.11058155613E+04  0.00000000000E+00 0. -1.
         24    2    1    2    0    0  0.60236506495E+02 -0.58968585217E+03 -0.71241300448E+02  0.60236887953E+03  0.80094339183E+02 0.  0.
        254    2    1    2    0    0 -0.60236506495E+02  0.58968585217E+03 -0.39140197790E+03  0.11466189648E+04  0.90010093938E+03 0.  0.
         23    2    4    4    0    0 -0.19531569713E+03 -0.17883165913E+03 -0.37933211251E+02  0.28480818571E+03  0.97712794869E+02 0.  0.
         23    2    4    4    0    0  0.13507919063E+03  0.76851751131E+03 -0.35346876665E+03  0.86181077905E+03  0.94403903298E+02 0.  0.
          2    1    3    3  502    0 -0.16560161244E+02 -0.20743673197E+03 -0.18218857788E+02  0.20889270808E+03  0.00000000000E+00 0. -1.
         -1    1    3    3    0  502  0.76796667739E+02 -0.38224912021E+03 -0.53022442660E+02  0.39347617145E+03  0.00000000000E+00 0.  1.
         11    1    5    5    0    0 -0.92332565937E+02 -0.14267446636E+03 -0.21919987425E+01  0.16995914492E+03  0.00000000000E+00 0.  1.
        -11    1    5    5    0    0 -0.10298313119E+03 -0.36157192769E+02 -0.35741212508E+02  0.11484904079E+03  0.00000000000E+00 0. -1.
          1    1    6    6  503    0  0.13853814475E+03  0.64744987993E+03 -0.27175198176E+03  0.71570476047E+03  0.00000000000E+00 0. -1.
         -1    1    6    6    0  503 -0.34589541221E+01  0.12106763138E+03 -0.81716784890E+02  0.14610601857E+03  0.00000000000E+00 0.  1.
<mgrwt>
<rscale>  0 0.16866890E+04</rscale>
<asrwt>0</asrwt>
<pdfrwt beam="1">  1        2 0.17012547E+00 0.16866890E+04</pdfrwt>
<pdfrwt beam="2">  1       -1 0.98949583E-01 0.16866890E+04</pdfrwt>
<totfact> 0.22924098E+01</totfact>
</mgrwt>
</event>
<event>
12    6  0.1402540E-007  0.2221345E+04  0.7818608E-02  0.8509596E-01
          2   -1    0    0  501    0  0.00000000000E+00  0.00000000000E+00  0.13725750375E+04  0.13725750375E+04  0.00000000000E+00 0. -1.
         -1   -1    0    0    0  501 -0.00000000000E+00 -0.00000000000E+00 -0.89874409275E+03  0.89874409275E+03  0.00000000000E+00 0.  1.
         24    2    1    2    0    0  0.87569631187E+01 -0.37214741046E+03 -0.66838594931E+03  0.76925149881E+03  0.80235351775E+02 0.  0.
        254    2    1    2    0    0 -0.87569631187E+01  0.37214741046E+03  0.11422168941E+04  0.15020676314E+04  0.90165256992E+03 0.  0.
         23    2    4    4    0    0 -0.39824186587E+03  0.26734597543E+03  0.32424207610E+03  0.58542583775E+03  0.86718125433E+02 0.  0.
         23    2    4    4    0    0  0.38948490275E+03  0.10480143503E+03  0.81797481796E+03  0.91664179370E+03  0.92019263643E+02 0.  0.
          4    1    3    3  502    0 -0.23231593516E+02 -0.22295299368E+03 -0.34136245153E+03  0.40838225677E+03  0.00000000000E+00 0. -1.
         -3    1    3    3    0  502  0.31988556634E+02 -0.14919441678E+03 -0.32702349777E+03  0.36086924204E+03  0.00000000000E+00 0.  1.
         11    1    5    5    0    0 -0.26638201655E+00  0.17463896188E+02  0.13141034704E+02  0.21857388282E+02  0.00000000000E+00 0.  1.
        -11    1    5    5    0    0 -0.39797548386E+03  0.24988207924E+03  0.31110104140E+03  0.56356844947E+03  0.00000000000E+00 0. -1.
          3    1    6    6  503    0  0.37657879964E+03  0.11857378691E+03  0.77863500551E+03  0.87300848053E+03  0.00000000000E+00 0. -1.
         -3    1    6    6    0  503  0.12906103112E+02 -0.13772351884E+02  0.39339812449E+02  0.43633313162E+02  0.00000000000E+00 0.  1.
<mgrwt>
<rscale>  0 0.22213453E+04</rscale>
<asrwt>0</asrwt>
<pdfrwt beam="1">  1        2 0.21116539E+00 0.22213453E+04</pdfrwt>
<pdfrwt beam="2">  1       -1 0.13826832E+00 0.22213453E+04</pdfrwt>
<totfact> 0.67560589E+00</totfact>
</mgrwt>
</event>
<event>
12    6  0.1402540E-007  0.2234593E+04  0.7818608E-02  0.8504166E-01
         -1   -1    0    0    0  501 -0.00000000000E+00  0.00000000000E+00  0.10998093266E+04  0.10998093266E+04  0.00000000000E+00 0.  1.
          2   -1    0    0  501    0  0.00000000000E+00 -0.00000000000E+00 -0.11350619416E+04  0.11350619416E+04  0.00000000000E+00 0. -1.
         24    2    1    2    0    0 -0.97450511309E+02  0.87801152167E+03 -0.31853916717E+03  0.94246705175E+03  0.79850537083E+02 0.  0.
        254    2    1    2    0    0  0.97450511309E+02 -0.87801152167E+03  0.28328655221E+03  0.12924042164E+04  0.89980917624E+03 0.  0.
         23    2    4    4    0    0  0.85123151026E+02 -0.39578504273E+03 -0.31270682230E+03  0.52020674941E+03  0.94539698187E+02 0.  0.
         23    2    4    4    0    0  0.12327360282E+02 -0.48222647895E+03  0.59599337451E+03  0.77219746702E+03  0.91577752793E+02 0.  0.
          4    1    3    3  502    0 -0.30783370408E+02  0.53145815995E+03 -0.22038445813E+03  0.57616377972E+03  0.00000000000E+00 0. -1.
         -3    1    3    3    0  502 -0.66667140901E+02  0.34655336172E+03 -0.98154709032E+02  0.36630327203E+03  0.00000000000E+00 0.  1.
         11    1    5    5    0    0  0.25087101488E+02 -0.79337327818E+02 -0.21387931274E+02  0.85914014285E+02  0.00000000000E+00 0.  1.
        -11    1    5    5    0    0  0.60036049538E+02 -0.31644771491E+03 -0.29131889103E+03  0.43429273513E+03  0.00000000000E+00 0. -1.
          4    1    6    6  503    0 -0.18407692394E+02 -0.41539322029E+03  0.52760494075E+03  0.67175690849E+03  0.00000000000E+00 0. -1.
         -4    1    6    6    0  503  0.30735052676E+02 -0.66833258660E+02  0.68388433756E+02  0.10044055853E+03  0.00000000000E+00 0.  1.
<mgrwt>
<rscale>  0 0.22345932E+04</rscale>
<asrwt>0</asrwt>
<pdfrwt beam="1">  1        2 0.17462491E+00 0.22345932E+04</pdfrwt>
<pdfrwt beam="2">  1       -1 0.16920144E+00 0.22345932E+04</pdfrwt>
<totfact> 0.53736909E+00</totfact>
</mgrwt>
</event>
<event>
12    6  0.1402540E-007  0.1608169E+04  0.7818608E-02  0.8815545E-01
          2   -1    0    0  501    0  0.00000000000E+00  0.00000000000E+00  0.66598243224E+03  0.66598243224E+03  0.00000000000E+00 0. -1.
         -1   -1    0    0    0  501 -0.00000000000E+00 -0.00000000000E+00 -0.97082452601E+03  0.97082452601E+03  0.00000000000E+00 0.  1.
         24    2    1    2    0    0 -0.21968583361E+03  0.14733939540E+03 -0.61042735519E+03  0.66995152343E+03  0.79010916036E+02 0.  0.
        254    2    1    2    0    0  0.21968583361E+03 -0.14733939540E+03  0.30558526143E+03  0.96685543482E+03  0.87832586032E+03 0.  0.
         23    2    4    4    0    0  0.34876671463E+03 -0.11480736618E+03  0.55407920423E+03  0.67074960532E+03  0.89901701425E+02 0.  0.
         23    2    4    4    0    0 -0.12908088101E+03 -0.32532029224E+02 -0.24849394280E+03  0.29610582949E+03  0.90604723291E+02 0.  0.
          2    1    3    3  502    0 -0.74892569870E+02  0.91191285159E+02 -0.21752798881E+03  0.24747358127E+03  0.00000000000E+00 0. -1.
         -1    1    3    3    0  502 -0.14479326374E+03  0.56148110240E+02 -0.39289936638E+03  0.42247794216E+03  0.00000000000E+00 0.  1.
         11    1    5    5    0    0  0.75496533051E+02 -0.46078892342E+02  0.80051423693E+02  0.11929468244E+03  0.00000000000E+00 0. -1.
        -11    1    5    5    0    0  0.27327018157E+03 -0.68728473834E+02  0.47402778054E+03  0.55145492289E+03  0.00000000000E+00 0.  1.
          4    1    6    6  503    0 -0.47993301444E+02 -0.21939386113E+01 -0.20513240677E+02  0.52239481173E+02  0.00000000000E+00 0. -1.
         -4    1    6    6    0  503 -0.81087579570E+02 -0.30338090613E+02 -0.22798070212E+03  0.24386634832E+03  0.00000000000E+00 0.  1.
<mgrwt>
<rscale>  0 0.16081692E+04</rscale>
<asrwt>0</asrwt>
<pdfrwt beam="1">  1        2 0.10245884E+00 0.16081692E+04</pdfrwt>
<pdfrwt beam="2">  1       -1 0.14935762E+00 0.16081692E+04</pdfrwt>
<totfact> 0.16856083E+01</totfact>
</mgrwt>
</event>
<event>
12    6  0.1402540E-007  0.1522409E+04  0.7818608E-02  0.8869686E-01
          2   -1    0    0  501    0  0.00000000000E+00  0.00000000000E+00  0.58969523809E+03  0.58969523809E+03  0.00000000000E+00 0. -1.
         -1   -1    0    0    0  501 -0.00000000000E+00 -0.00000000000E+00 -0.98259641576E+03  0.98259641576E+03  0.00000000000E+00 0.  1.
         24    2    1    2    0    0 -0.11033881627E+03 -0.30792838050E+03  0.24442521154E+03  0.41602540114E+03  0.79617262329E+02 0.  0.
        254    2    1    2    0    0  0.11033881627E+03  0.30792838050E+03 -0.63732638922E+03  0.11562662527E+04  0.90761896127E+03 0.  0.
         23    2    4    4    0    0 -0.32488168284E+03 -0.54508239147E+02 -0.42326192345E+03  0.54389936438E+03  0.90313934398E+02 0.  0.
         23    2    4    4    0    0  0.43522049911E+03  0.36243661965E+03 -0.21406446576E+03  0.61236688833E+03  0.91610175828E+02 0.  0.
          4    1    3    3  502    0 -0.49103855131E+02 -0.12309381266E+03  0.52271317236E+02  0.14246250703E+03  0.00000000000E+00 0. -1.
         -3    1    3    3    0  502 -0.61234961140E+02 -0.18483456783E+03  0.19215389431E+03  0.27356289410E+03  0.00000000000E+00 0.  1.
         11    1    5    5    0    0 -0.59965201564E+02 -0.16565919376E+02 -0.14523699303E+03  0.15800012414E+03  0.00000000000E+00 0.  1.
        -11    1    5    5    0    0 -0.26491648127E+03 -0.37942319771E+02 -0.27802493042E+03  0.38589924024E+03  0.00000000000E+00 0. -1.
          1    1    6    6  503    0  0.82284050411E+02  0.29899935426E+02 -0.47738494401E+02  0.99717776440E+02  0.00000000000E+00 0. -1.
         -1    1    6    6    0  503  0.35293644870E+03  0.33253668422E+03 -0.16632597136E+03  0.51264911189E+03  0.00000000000E+00 0.  1.
<mgrwt>
<rscale>  0 0.15224092E+04</rscale>
<asrwt>0</asrwt>
<pdfrwt beam="1">  1        2 0.90722344E-01 0.15224092E+04</pdfrwt>
<pdfrwt beam="2">  1       -1 0.15116868E+00 0.15224092E+04</pdfrwt>
<totfact> 0.19073404E+01</totfact>
</mgrwt>
</event>
<event>
12    6  0.1402540E-007  0.1957493E+04  0.7818608E-02  0.8626756E-01
          2   -1    0    0  501    0  0.00000000000E+00  0.00000000000E+00  0.31613878119E+04  0.31613878119E+04  0.00000000000E+00 0. -1.
         -1   -1    0    0    0  501 -0.00000000000E+00 -0.00000000000E+00 -0.30301391223E+03  0.30301391223E+03  0.00000000000E+00 0.  1.
         24    2    1    2    0    0 -0.67546215329E+03  0.36300697516E+03  0.10174121354E+04  0.12765567277E+04  0.80289733153E+02 0.  0.
        254    2    1    2    0    0  0.67546215329E+03 -0.36300697516E+03  0.18409617643E+04  0.21878449965E+04  0.89972347214E+03 0.  0.
         23    2    4    4    0    0  0.56619841621E+03 -0.11647103109E+03  0.37616489688E+03  0.69595250436E+03  0.93293681919E+02 0.  0.
         23    2    4    4    0    0  0.10926373709E+03 -0.24653594407E+03  0.14647968674E+04  0.14918924921E+04  0.85993076287E+02 0.  0.
          4    1    3    3  502    0 -0.63324591411E+03  0.35911152998E+03  0.97255409416E+03  0.12148345339E+04  0.00000000000E+00 0. -1.
         -3    1    3    3    0  502 -0.42216239181E+02  0.38954451781E+01  0.44858041248E+02  0.61722193806E+02  0.00000000000E+00 0.  1.
         11    1    5    5    0    0  0.48721290737E+02 -0.38176901226E+02  0.46426708150E+02  0.77373633674E+02  0.00000000000E+00 0.  1.
        -11    1    5    5    0    0  0.51747712547E+03 -0.78294129865E+02  0.32973818873E+03  0.61857887069E+03  0.00000000000E+00 0. -1.
          1    1    6    6  503    0  0.67057450306E+02 -0.22421908339E+03  0.11591778466E+04  0.11825667757E+04  0.00000000000E+00 0. -1.
         -1    1    6    6    0  503  0.42206286780E+02 -0.22316860685E+02  0.30561902082E+03  0.30932571636E+03  0.00000000000E+00 0.  1.
<mgrwt>
<rscale>  0 0.19574928E+04</rscale>
<asrwt>0</asrwt>
<pdfrwt beam="1">  1        2 0.48636733E+00 0.19574928E+04</pdfrwt>
<pdfrwt beam="2">  1       -1 0.46617527E-01 0.19574928E+04</pdfrwt>
<totfact> 0.67068537E+00</totfact>
</mgrwt>
</event>
<event>
12    6  0.1402540E-007  0.1646869E+04  0.7818608E-02  0.8792261E-01
         -1   -1    0    0    0  501 -0.00000000000E+00  0.00000000000E+00  0.20730516939E+03  0.20730516939E+03  0.00000000000E+00 0.  1.
          2   -1    0    0  501    0  0.00000000000E+00 -0.00000000000E+00 -0.32707528577E+04  0.32707528577E+04  0.00000000000E+00 0. -1.
         24    2    1    2    0    0 -0.53748884453E+03 -0.24239006547E+02 -0.14965964684E+04  0.15922237630E+04  0.76770663917E+02 0.  0.
        254    2    1    2    0    0  0.53748884453E+03  0.24239006547E+02 -0.15668512199E+04  0.18858342641E+04  0.90103625830E+03 0.  0.
         23    2    4    4    0    0  0.67324046618E+03 -0.84374183738E+02 -0.63712852316E+03  0.93527759934E+03  0.91867865060E+02 0.  0.
         23    2    4    4    0    0 -0.13575162165E+03  0.10861319028E+03 -0.92972269676E+03  0.95055666473E+03  0.94595729907E+02 0.  0.
          2    1    3    3  502    0 -0.31605534391E+03 -0.47430431098E+02 -0.93448033534E+03  0.98762043485E+03  0.00000000000E+00 0. -1.
         -1    1    3    3    0  502 -0.22143350062E+03  0.23191424551E+02 -0.56211613302E+03  0.60460332812E+03  0.00000000000E+00 0.  1.
         11    1    5    5    0    0  0.69687938567E+02 -0.43369920423E+01 -0.10820958449E+03  0.12878094757E+03  0.00000000000E+00 0.  1.
        -11    1    5    5    0    0  0.60355252761E+03 -0.80037191696E+02 -0.52891893867E+03  0.80649665178E+03  0.00000000000E+00 0. -1.
          1    1    6    6  503    0 -0.11535276986E+03  0.45294703439E+02 -0.71840284079E+03  0.72901338351E+03  0.00000000000E+00 0. -1.
         -1    1    6    6    0  503 -0.20398851786E+02  0.63318486846E+02 -0.21131985596E+03  0.22154328122E+03  0.00000000000E+00 0.  1.
<mgrwt>
<rscale>  0 0.16468685E+04</rscale>
<asrwt>0</asrwt>
<pdfrwt beam="1">  1        2 0.50319276E+00 0.16468685E+04</pdfrwt>
<pdfrwt beam="2">  1       -1 0.31893102E-01 0.16468685E+04</pdfrwt>
<totfact> 0.11702766E+01</totfact>
</mgrwt>
</event>
<event>
12    6  0.1402540E-007  0.1358183E+04  0.7818608E-02  0.8984657E-01
          2   -1    0    0  501    0  0.00000000000E+00  0.00000000000E+00  0.12379920180E+04  0.12379920180E+04  0.00000000000E+00 0. -1.
         -1   -1    0    0    0  501 -0.00000000000E+00 -0.00000000000E+00 -0.37251047360E+03  0.37251047360E+03  0.00000000000E+00 0.  1.
         24    2    1    2    0    0  0.73026030030E+02  0.34331013259E+03  0.91108663811E+02  0.37125208761E+03  0.79578110901E+02 0.  0.
        254    2    1    2    0    0 -0.73026030030E+02 -0.34331013259E+03  0.77437288058E+03  0.12392504040E+04  0.90160609880E+03 0.  0.
         23    2    4    4    0    0 -0.41696319116E+03 -0.38496558287E+03  0.31014756569E+03  0.65286536510E+03  0.89358097966E+02 0.  0.
         23    2    4    4    0    0  0.34393716113E+03  0.41655450278E+02  0.46422531489E+03  0.58638503888E+03  0.91182912261E+02 0.  0.
          4    1    3    3  502    0  0.55541597152E+02  0.14954911654E+03  0.74285803984E+02  0.17597780526E+03  0.00000000000E+00 0. -1.
         -3    1    3    3    0  502  0.17484432878E+02  0.19376101605E+03  0.16822859827E+02  0.19527428235E+03  0.00000000000E+00 0.  1.
         11    1    5    5    0    0 -0.16046548999E+03 -0.17052757329E+03  0.81945799611E+02  0.24808051275E+03  0.00000000000E+00 0.  1.
        -11    1    5    5    0    0 -0.25649770117E+03 -0.21443800958E+03  0.22820176607E+03  0.40478485236E+03  0.00000000000E+00 0. -1.
          4    1    6    6  503    0  0.13594841532E+03 -0.18985560787E+02  0.22563283635E+03  0.26410717519E+03  0.00000000000E+00 0. -1.
         -4    1    6    6    0  503  0.20798874582E+03  0.60641011064E+02  0.23859247854E+03  0.32227786369E+03  0.00000000000E+00 0.  1.
<mgrwt>
<rscale>  0 0.13581826E+04</rscale>
<asrwt>0</asrwt>
<pdfrwt beam="1">  1        2 0.19046031E+00 0.13581826E+04</pdfrwt>
<pdfrwt beam="2">  1       -1 0.57309304E-01 0.13581826E+04</pdfrwt>
<totfact> 0.61692477E+01</totfact>
</mgrwt>
</event>
<event>
12    6  0.1402540E-007  0.2256398E+04  0.7818608E-02  0.8495314E-01
         -1   -1    0    0    0  501 -0.00000000000E+00  0.00000000000E+00  0.14817997335E+04  0.14817997335E+04  0.00000000000E+00 0.  1.
          2   -1    0    0  501    0  0.00000000000E+00 -0.00000000000E+00 -0.85897763037E+03  0.85897763037E+03  0.00000000000E+00 0. -1.
         24    2    1    2    0    0 -0.71349555423E+03  0.43142002213E+03  0.72801374312E+03  0.11093680808E+04  0.74124132810E+02 0.  0.
        254    2    1    2    0    0  0.71349555423E+03 -0.43142002213E+03 -0.10519163999E+03  0.12314092831E+04  0.90005799811E+03 0.  0.
         23    2    4    4    0    0 -0.68371218815E+02  0.49050803140E+02  0.22072396295E+03  0.25308844814E+03  0.90852022043E+02 0.  0.
         23    2    4    4    0    0  0.78186677304E+03 -0.48047082527E+03 -0.32591560295E+03  0.97832083495E+03  0.93395990998E+02 0.  0.
          4    1    3    3  502    0 -0.68914949726E+03  0.39922836035E+03  0.68655736244E+03  0.10515090704E+04  0.00000000000E+00 0. -1.
         -3    1    3    3    0  502 -0.24346056962E+02  0.32191661785E+02  0.41456380678E+02  0.57859010335E+02  0.00000000000E+00 0.  1.
         11    1    5    5    0    0 -0.66742774551E+02  0.58719382070E+01  0.18585958010E+03  0.19756735846E+03  0.00000000000E+00 0. -1.
        -11    1    5    5    0    0 -0.16284442633E+01  0.43178864933E+02  0.34864382849E+02  0.55521089678E+02  0.00000000000E+00 0.  1.
          3    1    6    6  503    0  0.71851096902E+03 -0.44907329467E+03 -0.32531488207E+03  0.90760928217E+03  0.00000000000E+00 0. -1.
         -3    1    6    6    0  503  0.63355804026E+02 -0.31397530600E+02 -0.60072087781E+00  0.70711552784E+02  0.00000000000E+00 0.  1.
<mgrwt>
<rscale>  0 0.22563979E+04</rscale>
<asrwt>0</asrwt>
<pdfrwt beam="1">  1        2 0.13215041E+00 0.22563979E+04</pdfrwt>
<pdfrwt beam="2">  1       -1 0.22796919E+00 0.22563979E+04</pdfrwt>
<totfact> 0.31613463E+00</totfact>
</mgrwt>
</event>
<event>
12    6  0.1402540E-007  0.2113911E+04  0.7818608E-02  0.8555140E-01
          2   -1    0    0  501    0  0.00000000000E+00  0.00000000000E+00  0.20791756213E+04  0.20791756213E+04  0.00000000000E+00 0. -1.
         -1   -1    0    0    0  501 -0.00000000000E+00 -0.00000000000E+00 -0.53730656626E+03  0.53730656626E+03  0.00000000000E+00 0.  1.
         24    2    1    2    0    0 -0.70284923603E+03  0.32198025976E+03  0.11122998364E+04  0.13566996705E+04  0.75859960441E+02 0.  0.
        254    2    1    2    0    0  0.70284923603E+03 -0.32198025976E+03  0.42956921867E+03  0.12597825171E+04  0.89713652276E+03 0.  0.
         23    2    4    4    0    0 -0.84075743859E+02  0.12292693210E+03 -0.10663129573E+03  0.20468023485E+03  0.91345519689E+02 0.  0.
         23    2    4    4    0    0  0.78692497989E+03 -0.44490719186E+03  0.53620051440E+03  0.10551022822E+04  0.92393187038E+02 0.  0.
          4    1    3    3  502    0 -0.49907947977E+03  0.20636232220E+03  0.82393368478E+03  0.98515605468E+03  0.00000000000E+00 0. -1.
         -1    1    3    3    0  502 -0.20376975625E+03  0.11561793757E+03  0.28836615157E+03  0.37154361577E+03  0.00000000000E+00 0.  1.
         11    1    5    5    0    0 -0.82280044046E+02  0.64776483367E+02 -0.10221464943E+03  0.14633466098E+03  0.00000000000E+00 0. -1.
        -11    1    5    5    0    0 -0.17956998135E+01  0.58150448730E+02 -0.44166462993E+01  0.58345573867E+02  0.00000000000E+00 0.  1.
          2    1    6    6  503    0  0.48280786142E+03 -0.23667345975E+03  0.28003138652E+03  0.60624692580E+03  0.00000000000E+00 0. -1.
         -2    1    6    6    0  503  0.30411711846E+03 -0.20823373211E+03  0.25616912787E+03  0.44885535644E+03  0.00000000000E+00 0.  1.
<mgrwt>
<rscale>  0 0.21139108E+04</rscale>
<asrwt>0</asrwt>
<pdfrwt beam="1">  1        2 0.31987317E+00 0.21139108E+04</pdfrwt>
<pdfrwt beam="2">  1       -1 0.82662550E-01 0.21139108E+04</pdfrwt>
<totfact> 0.91958799E+00</totfact>
</mgrwt>
</event>
<event>
12    6  0.1402540E-007  0.1603235E+04  0.7818608E-02  0.8818563E-01
          2   -1    0    0  501    0  0.00000000000E+00  0.00000000000E+00  0.21641895937E+04  0.21641895937E+04  0.00000000000E+00 0. -1.
         -1   -1    0    0    0  501 -0.00000000000E+00 -0.00000000000E+00 -0.29691959064E+03  0.29691959064E+03  0.00000000000E+00 0.  1.
         24    2    1    2    0    0  0.41256474119E+03  0.51544488719E+02  0.99412089181E+02  0.43430225873E+03  0.76610628991E+02 0.  0.
        254    2    1    2    0    0 -0.41256474119E+03 -0.51544488719E+02  0.17678579139E+04  0.20268069256E+04  0.89986566222E+03 0.  0.
         23    2    4    4    0    0  0.28966500495E+01 -0.15180472810E+03  0.15062096006E+04  0.15165990358E+04  0.91390417480E+02 0.  0.
         23    2    4    4    0    0 -0.41546139124E+03  0.10026023938E+03  0.26164831331E+03  0.51020788984E+03  0.95874750517E+02 0.  0.
          2    1    3    3  502    0  0.20412004285E+03 -0.60931450126E+01  0.70876744380E+02  0.21616112325E+03  0.00000000000E+00 0. -1.
         -1    1    3    3    0  502  0.20844469834E+03  0.57637633732E+02  0.28535344801E+02  0.21814113548E+03  0.00000000000E+00 0.  1.
         11    1    5    5    0    0  0.17776637507E+02 -0.12417614808E+03  0.80752779133E+03  0.81721285988E+03  0.00000000000E+00 0.  1.
        -11    1    5    5    0    0 -0.14879987457E+02 -0.27628580020E+02  0.69868180923E+03  0.69938617588E+03  0.00000000000E+00 0. -1.
          3    1    6    6  503    0 -0.14601344535E+03  0.32880978702E+02  0.40164523394E+02  0.15496539589E+03  0.00000000000E+00 0. -1.
         -3    1    6    6    0  503 -0.26944794588E+03  0.67379260677E+02  0.22148378991E+03  0.35524249394E+03  0.00000000000E+00 0.  1.
<mgrwt>
<rscale>  0 0.16032346E+04</rscale>
<asrwt>0</asrwt>
<pdfrwt beam="1">  1        2 0.33295224E+00 0.16032346E+04</pdfrwt>
<pdfrwt beam="2">  1       -1 0.45679938E-01 0.16032346E+04</pdfrwt>
<totfact> 0.28140594E+01</totfact>
</mgrwt>
</event>
<event>
12    6  0.1402540E-007  0.2562393E+04  0.7818608E-02  0.8381089E-01
          2   -1    0    0  501    0  0.00000000000E+00  0.00000000000E+00  0.69170256384E+03  0.69170256384E+03  0.00000000000E+00 0. -1.
         -1   -1    0    0    0  501 -0.00000000000E+00 -0.00000000000E+00 -0.23730778470E+04  0.23730778470E+04  0.00000000000E+00 0.  1.
         24    2    1    2    0    0 -0.31529110091E+03  0.10758070090E+04 -0.70788581871E+03  0.13282234498E+04  0.79410335496E+02 0.  0.
        254    2    1    2    0    0  0.31529110091E+03 -0.10758070090E+04 -0.97348946441E+03  0.17365569610E+04  0.90065484083E+03 0.  0.
         23    2    4    4    0    0 -0.20262000139E+03 -0.82450090661E+03 -0.60729180042E+03  0.10481802994E+04  0.94984205017E+02 0.  0.
         23    2    4    4    0    0  0.51791110230E+03 -0.25130610243E+03 -0.36619766399E+03  0.68837666157E+03  0.91515201357E+02 0.  0.
          4    1    3    3  502    0 -0.19421672906E+03  0.52709841087E+03 -0.34082028317E+03  0.65704743970E+03  0.00000000000E+00 0. -1.
         -3    1    3    3    0  502 -0.12107437184E+03  0.54870859817E+03 -0.36706553554E+03  0.67117601015E+03  0.00000000000E+00 0.  1.
         11    1    5    5    0    0 -0.10621136866E+02 -0.16505778027E+03 -0.14790268516E+03  0.22188304048E+03  0.00000000000E+00 0.  1.
        -11    1    5    5    0    0 -0.19199886452E+03 -0.65944312634E+03 -0.45938911526E+03  0.82629725891E+03  0.00000000000E+00 0. -1.
          3    1    6    6  503    0  0.21717237114E+03 -0.12425046440E+03 -0.20907331762E+03  0.32605776916E+03  0.00000000000E+00 0. -1.
         -3    1    6    6    0  503  0.30073873115E+03 -0.12705563802E+03 -0.15712434637E+03  0.36231889240E+03  0.00000000000E+00 0.  1.
<mgrwt>
<rscale>  0 0.25623927E+04</rscale>
<asrwt>0</asrwt>
<pdfrwt beam="1">  1        2 0.10641578E+00 0.25623927E+04</pdfrwt>
<pdfrwt beam="2">  1       -1 0.36508890E+00 0.25623927E+04</pdfrwt>
<totfact> 0.51904538E-01</totfact>
</mgrwt>
</event>
<event>
12    6  0.1402540E-007  0.1520867E+04  0.7818608E-02  0.8870694E-01
          2   -1    0    0  501    0  0.00000000000E+00  0.00000000000E+00  0.97418106153E+03  0.97418106153E+03  0.00000000000E+00 0. -1.
         -1   -1    0    0    0  501 -0.00000000000E+00 -0.00000000000E+00 -0.59358473279E+03  0.59358473279E+03  0.00000000000E+00 0.  1.
         24    2    1    2    0    0 -0.44862395889E+03  0.19855825599E+03  0.15352247806E+03  0.52011347108E+03  0.79120376758E+02 0.  0.
        254    2    1    2    0    0  0.44862395889E+03 -0.19855825599E+03  0.22707385069E+03  0.10476523232E+04  0.89739847293E+03 0.  0.
         23    2    4    4    0    0  0.35017837257E+03 -0.23823237954E+03  0.54673259633E+03  0.69771591235E+03  0.92257266242E+02 0.  0.
         23    2    4    4    0    0  0.98445586320E+02  0.39674123549E+02 -0.31965874564E+03  0.34993641090E+03  0.94911582329E+02 0.  0.
          4    1    3    3  502    0 -0.29053893303E+03  0.14246892465E+03  0.13756088056E+03  0.35161521861E+03  0.00000000000E+00 0. -1.
         -3    1    3    3    0  502 -0.15808502586E+03  0.56089331340E+02  0.15961597499E+02  0.16849825247E+03  0.00000000000E+00 0.  1.
         11    1    5    5    0    0  0.24433942722E+03 -0.12887711403E+03  0.40148987996E+03  0.48734504196E+03  0.00000000000E+00 0. -1.
        -11    1    5    5    0    0  0.10583894536E+03 -0.10935526551E+03  0.14524271637E+03  0.21037087039E+03  0.00000000000E+00 0.  1.
          3    1    6    6  503    0  0.32419540638E+02 -0.29622506782E+02 -0.70899555612E+02  0.83398240444E+02  0.00000000000E+00 0. -1.
         -3    1    6    6    0  503  0.66026045682E+02  0.69296630330E+02 -0.24875919003E+03  0.26653817045E+03  0.00000000000E+00 0.  1.
<mgrwt>
<rscale>  0 0.15208669E+04</rscale>
<asrwt>0</asrwt>
<pdfrwt beam="1">  1        2 0.14987401E+00 0.15208669E+04</pdfrwt>
<pdfrwt beam="2">  1       -1 0.91320728E-01 0.15208669E+04</pdfrwt>
<totfact> 0.33708410E+01</totfact>
</mgrwt>
</event>
<event>
12    6  0.1402540E-007  0.4297992E+04  0.7818608E-02  0.7946989E-01
          2   -1    0    0  501    0  0.00000000000E+00  0.00000000000E+00  0.32395041794E+04  0.32395041794E+04  0.00000000000E+00 0. -1.
         -1   -1    0    0    0  501 -0.00000000000E+00 -0.00000000000E+00 -0.14255837040E+04  0.14255837040E+04  0.00000000000E+00 0.  1.
         24    2    1    2    0    0 -0.72228857115E+03  0.15854846720E+04  0.20479524371E+04  0.26899739497E+04  0.79926466401E+02 0.  0.
        254    2    1    2    0    0  0.72228857115E+03 -0.15854846720E+04 -0.23403196178E+03  0.19751139337E+04  0.90046747129E+03 0.  0.
         23    2    4    4    0    0  0.25468494469E+03 -0.10735498957E+04  0.23618869443E+03  0.11322857686E+04  0.94404251607E+02 0.  0.
         23    2    4    4    0    0  0.46760362646E+03 -0.51193477632E+03 -0.47022065621E+03  0.84282816516E+03  0.92311883190E+02 0.  0.
          4    1    3    3  502    0 -0.55439213205E+03  0.12489531057E+04  0.16513459455E+04  0.21434033517E+04  0.00000000000E+00 0. -1.
         -3    1    3    3    0  502 -0.16789643910E+03  0.33653156629E+03  0.39660649159E+03  0.54657059795E+03  0.00000000000E+00 0.  1.
         11    1    5    5    0    0  0.87795243730E+02 -0.57428856789E+03  0.12467621150E+03  0.59418811983E+03  0.00000000000E+00 0. -1.
        -11    1    5    5    0    0  0.16688970096E+03 -0.49926132782E+03  0.11151248293E+03  0.53809764875E+03  0.00000000000E+00 0.  1.
          1    1    6    6  503    0  0.30694762412E+03 -0.33008533230E+03 -0.25157488296E+03  0.51620063182E+03  0.00000000000E+00 0. -1.
         -1    1    6    6    0  503  0.16065600234E+03 -0.18184944402E+03 -0.21864577325E+03  0.32662753334E+03  0.00000000000E+00 0.  1.
<mgrwt>
<rscale>  0 0.42979923E+04</rscale>
<asrwt>0</asrwt>
<pdfrwt beam="1">  1        2 0.49838526E+00 0.42979923E+04</pdfrwt>
<pdfrwt beam="2">  1       -1 0.21932057E+00 0.42979923E+04</pdfrwt>
<totfact> 0.11867670E-01</totfact>
</mgrwt>
</event>
<event>
12    6  0.1402540E-007  0.2012059E+04  0.7818608E-02  0.8601003E-01
          2   -1    0    0  501    0  0.00000000000E+00  0.00000000000E+00  0.10127341947E+04  0.10127341947E+04  0.00000000000E+00 0. -1.
         -1   -1    0    0    0  501 -0.00000000000E+00 -0.00000000000E+00 -0.99936960496E+03  0.99936960496E+03  0.00000000000E+00 0.  1.
         24    2    1    2    0    0 -0.40790289429E+03 -0.69249126790E+03 -0.50781594730E+01  0.80765008503E+03  0.79648884751E+02 0.  0.
        254    2    1    2    0    0  0.40790289429E+03  0.69249126790E+03  0.18442749201E+02  0.12044537146E+04  0.89690561844E+03 0.  0.
         23    2    4    4    0    0 -0.27534902674E+02  0.77552918817E+02 -0.34331535621E+03  0.36402483411E+03  0.88746943392E+02 0.  0.
         23    2    4    4    0    0  0.43543779697E+03  0.61493834909E+03  0.36175810541E+03  0.84042888052E+03  0.87729859071E+02 0.  0.
          4    1    3    3  502    0 -0.19629214731E+03 -0.32369011520E+03  0.37068890968E+02  0.38036824322E+03  0.00000000000E+00 0. -1.
         -3    1    3    3    0  502 -0.21161074698E+03 -0.36880115270E+03 -0.42147050441E+02  0.42728184181E+03  0.00000000000E+00 0.  1.
         11    1    5    5    0    0 -0.11512226627E+02  0.12928434791E+00 -0.20012938009E+03  0.20046026253E+03  0.00000000000E+00 0.  1.
        -11    1    5    5    0    0 -0.16022676047E+02  0.77423634469E+02 -0.14318597611E+03  0.16356457158E+03  0.00000000000E+00 0. -1.
          2    1    6    6  503    0  0.25801805314E+03  0.43546432356E+03  0.24614653015E+03  0.56284154710E+03  0.00000000000E+00 0.  1.
         -2    1    6    6    0  503  0.17741974383E+03  0.17947402553E+03  0.11561157525E+03  0.27758733341E+03  0.00000000000E+00 0. -1.
<mgrwt>
<rscale>  0 0.20120594E+04</rscale>
<asrwt>0</asrwt>
<pdfrwt beam="1">  1        2 0.15580526E+00 0.20120594E+04</pdfrwt>
<pdfrwt beam="2">  1       -1 0.15374917E+00 0.20120594E+04</pdfrwt>
<totfact> 0.85391723E+00</totfact>
</mgrwt>
</event>
<event>
12    6  0.1402540E-007  0.2826108E+04  0.7818608E-02  0.8295208E-01
          2   -1    0    0  501    0  0.00000000000E+00  0.00000000000E+00  0.85417167471E+03  0.85417167471E+03  0.00000000000E+00 0. -1.
         -1   -1    0    0    0  501 -0.00000000000E+00 -0.00000000000E+00 -0.23376115096E+04  0.23376115096E+04  0.00000000000E+00 0.  1.
         24    2    1    2    0    0 -0.10373117902E+04  0.46662080483E+03 -0.33466130524E+02  0.11407052663E+04  0.79610282919E+02 0.  0.
        254    2    1    2    0    0  0.10373117902E+04 -0.46662080483E+03 -0.14499737044E+04  0.20510779180E+04  0.90041443615E+03 0.  0.
         23    2    4    4    0    0  0.10471817950E+04 -0.31119916576E+03 -0.74941786057E+03  0.13279070843E+04  0.90969567150E+02 0.  0.
         23    2    4    4    0    0 -0.98700048640E+01 -0.15542163907E+03 -0.70055584382E+03  0.72317083372E+03  0.89130587045E+02 0.  0.
          4    1    3    3  502    0 -0.70471112098E+03  0.27878103331E+03 -0.82278662252E+01  0.75789466706E+03  0.00000000000E+00 0. -1.
         -3    1    3    3    0  502 -0.33260066920E+03  0.18783977152E+03 -0.25238264299E+02  0.38281059926E+03  0.00000000000E+00 0.  1.
         11    1    5    5    0    0  0.55759777320E+03 -0.19173129392E+03 -0.35806056973E+03  0.68984312517E+03  0.00000000000E+00 0.  1.
        -11    1    5    5    0    0  0.48958402185E+03 -0.11946787184E+03 -0.39135729085E+03  0.63806395914E+03  0.00000000000E+00 0. -1.
          1    1    6    6  503    0 -0.19053491283E+02 -0.30371979649E+02 -0.55727715071E+02  0.66265156039E+02  0.00000000000E+00 0. -1.
         -1    1    6    6    0  503  0.91834864194E+01 -0.12504965942E+03 -0.64482812875E+03  0.65690567768E+03  0.00000000000E+00 0.  1.
<mgrwt>
<rscale>  0 0.28261080E+04</rscale>
<asrwt>0</asrwt>
<pdfrwt beam="1">  1        2 0.13141103E+00 0.28261080E+04</pdfrwt>
<pdfrwt beam="2">  1       -1 0.35963254E+00 0.28261080E+04</pdfrwt>
<totfact> 0.41831858E-01</totfact>
</mgrwt>
</event>
<event>
12    6  0.1402540E-007  0.3087648E+04  0.7818608E-02  0.8219136E-01
         -1   -1    0    0    0  501 -0.00000000000E+00  0.00000000000E+00  0.93607076120E+03  0.93607076120E+03  0.00000000000E+00 0.  1.
          2   -1    0    0  501    0  0.00000000000E+00 -0.00000000000E+00 -0.25461673622E+04  0.25461673622E+04  0.00000000000E+00 0. -1.
         24    2    1    2    0    0  0.10745780690E+04 -0.90060989917E+03 -0.55699015646E+03  0.15107465184E+04  0.79377525875E+02 0.  0.
        254    2    1    2    0    0 -0.10745780690E+04  0.90060989917E+03 -0.10531064446E+04  0.19714916051E+04  0.90107144471E+03 0.  0.
         23    2    4    4    0    0 -0.95199298197E+03  0.28569070474E+03 -0.44412953449E+03  0.10926388775E+04  0.93267661925E+02 0.  0.
         23    2    4    4    0    0 -0.12258508699E+03  0.61491919443E+03 -0.60897691010E+03  0.87885272755E+03  0.91523332932E+02 0.  0.
          4    1    3    3  502    0  0.51080169126E+03 -0.46426673786E+03 -0.30456246308E+03  0.75446687509E+03  0.00000000000E+00 0. -1.
         -3    1    3    3    0  502  0.56377637770E+03 -0.43634316130E+03 -0.25242769338E+03  0.75627964329E+03  0.00000000000E+00 0.  1.
         11    1    5    5    0    0 -0.37463038283E+01 -0.17505515006E+01  0.34493924590E+01  0.53849355861E+01  0.00000000000E+00 0.  1.
        -11    1    5    5    0    0 -0.94824667814E+03  0.28744125624E+03 -0.44757892695E+03  0.10872539419E+04  0.00000000000E+00 0. -1.
          3    1    6    6  503    0 -0.33421683440E+02  0.36949273930E+03 -0.32699647026E+03  0.49453875974E+03  0.00000000000E+00 0. -1.
         -3    1    6    6    0  503 -0.89163403546E+02  0.24542645512E+03 -0.28198043984E+03  0.38431396781E+03  0.00000000000E+00 0.  1.
<mgrwt>
<rscale>  0 0.30876482E+04</rscale>
<asrwt>0</asrwt>
<pdfrwt beam="1">  1        2 0.39171805E+00 0.30876482E+04</pdfrwt>
<pdfrwt beam="2">  1       -1 0.14401089E+00 0.30876482E+04</pdfrwt>
<totfact> 0.12294644E+00</totfact>
</mgrwt>
</event>
<event>
12    6  0.1402540E-007  0.2917568E+04  0.7818608E-02  0.8267670E-01
         -1   -1    0    0    0  501 -0.00000000000E+00  0.00000000000E+00  0.14309795873E+04  0.14309795873E+04  0.00000000000E+00 0.  1.
          2   -1    0    0  501    0  0.00000000000E+00 -0.00000000000E+00 -0.14871285568E+04  0.14871285568E+04  0.00000000000E+00 0. -1.
         24    2    1    2    0    0 -0.83021391680E+03 -0.57419627488E+03  0.82316032396E+03  0.13049597036E+04  0.79814780894E+02 0.  0.
        254    2    1    2    0    0  0.83021391680E+03  0.57419627488E+03 -0.87930929338E+03  0.16131484405E+04  0.90005919143E+03 0.  0.
         23    2    4    4    0    0  0.99780930205E+03  0.39994388105E+03 -0.80029749196E+03  0.13432985596E+04  0.91632053559E+02 0.  0.
         23    2    4    4    0    0 -0.16759538525E+03  0.17425239383E+03 -0.79011801420E+02  0.26984988098E+03  0.90133143675E+02 0.  0.
          2    1    3    3  502    0 -0.25872328062E+03 -0.19260249015E+03  0.21804689613E+03  0.38933007084E+03  0.00000000000E+00 0. -1.
         -1    1    3    3    0  502 -0.57149063618E+03 -0.38159378472E+03  0.60511342782E+03  0.91562963271E+03  0.00000000000E+00 0.  1.
         11    1    5    5    0    0  0.85697814240E+03  0.37676701444E+03 -0.69611898960E+03  0.11665961458E+04  0.00000000000E+00 0. -1.
        -11    1    5    5    0    0  0.14083115965E+03  0.23176866606E+02 -0.10417850236E+03  0.17670241376E+03  0.00000000000E+00 0.  1.
          3    1    6    6  503    0 -0.14111646284E+03  0.17148353881E+03 -0.91808590294E+02  0.24031079339E+03  0.00000000000E+00 0. -1.
         -3    1    6    6    0  503 -0.26478922412E+02  0.27688550161E+01  0.12796788874E+02  0.29539087590E+02  0.00000000000E+00 0.  1.
<mgrwt>
<rscale>  0 0.29175679E+04</rscale>
<asrwt>0</asrwt>
<pdfrwt beam="1">  1        2 0.22878901E+00 0.29175679E+04</pdfrwt>
<pdfrwt beam="2">  1       -1 0.22015071E+00 0.29175679E+04</pdfrwt>
<totfact> 0.13909081E+00</totfact>
</mgrwt>
</event>
<event>
12    6  0.1402540E-007  0.3254714E+04  0.7818608E-02  0.8174515E-01
         -1   -1    0    0    0  501 -0.00000000000E+00  0.00000000000E+00  0.17534822654E+04  0.17534822654E+04  0.00000000000E+00 0.  1.
          2   -1    0    0  501    0  0.00000000000E+00 -0.00000000000E+00 -0.15103037163E+04  0.15103037163E+04  0.00000000000E+00 0. -1.
         24    2    1    2    0    0 -0.14450897125E+04 -0.23141112733E+03 -0.22646911076E+03  0.14830826647E+04  0.80065880788E+02 0.  0.
        254    2    1    2    0    0  0.14450897125E+04  0.23141112733E+03  0.46964765986E+03  0.17807033171E+04  0.89916627615E+03 0.  0.
         23    2    4    4    0    0  0.72418218251E+03 -0.22003355588E+03 -0.75674026952E+02  0.76625514073E+03  0.92551516299E+02 0.  0.
         23    2    4    4    0    0  0.72090752996E+03  0.45144468321E+03  0.54532168681E+03  0.10144481764E+04  0.90660860751E+02 0.  0.
          4    1    3    3  502    0 -0.12918429226E+04 -0.19479127851E+03 -0.22394477893E+03  0.13255010535E+04  0.00000000000E+00 0. -1.
         -3    1    3    3    0  502 -0.15324678987E+03 -0.36619848823E+02 -0.25243318339E+01  0.15758161119E+03  0.00000000000E+00 0.  1.
         11    1    5    5    0    0  0.51890993910E+03 -0.18064524790E+03 -0.19407328640E+02  0.54979712158E+03  0.00000000000E+00 0. -1.
        -11    1    5    5    0    0  0.20527224340E+03 -0.39388307977E+02 -0.56266698312E+02  0.21645801915E+03  0.00000000000E+00 0.  1.
          4    1    6    6  503    0  0.49895503068E+03  0.31463068242E+03  0.32741281055E+03  0.67464637958E+03  0.00000000000E+00 0. -1.
         -4    1    6    6    0  503  0.22195249928E+03  0.13681400079E+03  0.21790887626E+03  0.33980179679E+03  0.00000000000E+00 0.  1.
<mgrwt>
<rscale>  0 0.32547140E+04</rscale>
<asrwt>0</asrwt>
<pdfrwt beam="1">  1        2 0.23235442E+00 0.32547140E+04</pdfrwt>
<pdfrwt beam="2">  1       -1 0.26976650E+00 0.32547140E+04</pdfrwt>
<totfact> 0.61976484E-01</totfact>
</mgrwt>
</event>
<event>
12    6  0.1402540E-007  0.1960768E+04  0.7818608E-02  0.8625186E-01
          2   -1    0    0  501    0  0.00000000000E+00  0.00000000000E+00  0.10991432941E+04  0.10991432941E+04  0.00000000000E+00 0. -1.
         -1   -1    0    0    0  501 -0.00000000000E+00 -0.00000000000E+00 -0.87445587438E+03  0.87445587438E+03  0.00000000000E+00 0.  1.
         24    2    1    2    0    0  0.20756713375E+02 -0.76767668138E+03  0.94431514420E+02  0.77768249626E+03  0.78194793831E+02 0.  0.
        254    2    1    2    0    0 -0.20756713375E+02  0.76767668138E+03  0.13025590533E+03  0.11959166723E+04  0.90746446642E+03 0.  0.
         23    2    4    4    0    0  0.30752882556E+03  0.76556279991E+03 -0.62702464261E+01  0.82928652802E+03  0.83764254951E+02 0.  0.
         23    2    4    4    0    0 -0.32828553894E+03  0.21138814786E+01  0.13652615176E+03  0.36663014424E+03  0.89456184708E+02 0.  0.
          2    1    3    3  502    0  0.10146492674E+02 -0.50324783325E+03  0.99037719079E+02  0.51300078244E+03  0.00000000000E+00 0. -1.
         -1    1    3    3    0  502  0.10610220702E+02 -0.26442884813E+03 -0.46062046594E+01  0.26468171382E+03  0.00000000000E+00 0.  1.
         11    1    5    5    0    0  0.17454090716E+03  0.36896389541E+03  0.30919353421E+02  0.40933469289E+03  0.00000000000E+00 0.  1.
        -11    1    5    5    0    0  0.13298791840E+03  0.39659890449E+03 -0.37189599847E+02  0.41995183512E+03  0.00000000000E+00 0. -1.
          2    1    6    6  503    0 -0.19588017057E+03 -0.42124545455E+02  0.88056349755E+02  0.21885483610E+03  0.00000000000E+00 0. -1.
         -2    1    6    6    0  503 -0.13240536836E+03  0.44238426934E+02  0.48469802005E+02  0.14777530814E+03  0.00000000000E+00 0.  1.
<mgrwt>
<rscale>  0 0.19607675E+04</rscale>
<asrwt>0</asrwt>
<pdfrwt beam="1">  1        2 0.16909897E+00 0.19607675E+04</pdfrwt>
<pdfrwt beam="2">  1       -1 0.13453167E+00 0.19607675E+04</pdfrwt>
<totfact> 0.10776675E+01</totfact>
</mgrwt>
</event>
<event>
12    6  0.1402540E-007  0.1522178E+04  0.7818608E-02  0.8869838E-01
          2   -1    0    0  501    0  0.00000000000E+00  0.00000000000E+00  0.14552278622E+04  0.14552278622E+04  0.00000000000E+00 0. -1.
         -1   -1    0    0    0  501 -0.00000000000E+00 -0.00000000000E+00 -0.39805181166E+03  0.39805181166E+03  0.00000000000E+00 0.  1.
         24    2    1    2    0    0  0.30857033587E+03 -0.19544559331E+03  0.77175749694E+03  0.85748962169E+03  0.79146605113E+02 0.  0.
        254    2    1    2    0    0 -0.30857033587E+03  0.19544559331E+03  0.28541855360E+03  0.99579005217E+03  0.88131688123E+03 0.  0.
         23    2    4    4    0    0 -0.38439309685E+03 -0.14473388474E+03 -0.13459064165E+03  0.44197417856E+03  0.92307006221E+02 0.  0.
         23    2    4    4    0    0  0.75822760976E+02  0.34017947805E+03  0.42000919525E+03  0.55381587361E+03  0.93984729614E+02 0.  0.
          4    1    3    3  502    0  0.15716439939E+03 -0.10275253132E+03  0.48676783712E+03  0.52172948775E+03  0.00000000000E+00 0. -1.
         -3    1    3    3    0  502  0.15140593648E+03 -0.92693061982E+02  0.28498965981E+03  0.33576013394E+03  0.00000000000E+00 0.  1.
         11    1    5    5    0    0 -0.17562037872E+03 -0.11496594319E+03 -0.73856303561E+02  0.22251840169E+03  0.00000000000E+00 0.  1.
        -11    1    5    5    0    0 -0.20877271812E+03 -0.29767941553E+02 -0.60734338090E+02  0.21945577687E+03  0.00000000000E+00 0. -1.
          3    1    6    6  503    0  0.36371464171E+02  0.27483565830E+02  0.59607903247E+02  0.75042200968E+02  0.00000000000E+00 0. -1.
         -3    1    6    6    0  503  0.39451296805E+02  0.31269591222E+03  0.36040129201E+03  0.47877367264E+03  0.00000000000E+00 0.  1.
<mgrwt>
<rscale>  0 0.15221775E+04</rscale>
<asrwt>0</asrwt>
<pdfrwt beam="1">  1        2 0.22388121E+00 0.15221775E+04</pdfrwt>
<pdfrwt beam="2">  1       -1 0.61238741E-01 0.15221775E+04</pdfrwt>
<totfact> 0.40005448E+01</totfact>
</mgrwt>
</event>
<event>
12    6  0.1402540E-007  0.2017226E+04  0.7818608E-02  0.8598609E-01
         -1   -1    0    0    0  501 -0.00000000000E+00  0.00000000000E+00  0.29714394033E+03  0.29714394033E+03  0.00000000000E+00 0.  1.
          2   -1    0    0  501    0  0.00000000000E+00 -0.00000000000E+00 -0.34235923095E+04  0.34235923095E+04  0.00000000000E+00 0. -1.
         24    2    1    2    0    0  0.52042521979E+03 -0.60673577557E+03 -0.14427544365E+04  0.16512612165E+04  0.78438066904E+02 0.  0.
        254    2    1    2    0    0 -0.52042521979E+03  0.60673577557E+03 -0.16836939326E+04  0.20694750333E+04  0.89940588386E+03 0.  0.
         23    2    4    4    0    0 -0.42543344061E+03  0.83397686424E+03 -0.12978963014E+04  0.16027488271E+04  0.88079345341E+02 0.  0.
         23    2    4    4    0    0 -0.94991779182E+02 -0.22724108867E+03 -0.38579763126E+03  0.46672620623E+03  0.91277537250E+02 0.  0.
          2    1    3    3  502    0  0.12513987592E+03 -0.16767713764E+03 -0.44471359146E+03  0.49147308112E+03  0.00000000000E+00 0. -1.
         -1    1    3    3    0  502  0.39528534388E+03 -0.43905863793E+03 -0.99804084508E+03  0.11597881354E+04  0.00000000000E+00 0.  1.
         11    1    5    5    0    0 -0.40802653875E+03  0.74322999508E+03 -0.11636989798E+04  0.14398165846E+04  0.00000000000E+00 0. -1.
        -11    1    5    5    0    0 -0.17406901861E+02  0.90746869154E+02 -0.13419732163E+03  0.16293224244E+03  0.00000000000E+00 0.  1.
          2    1    6    6  503    0 -0.34155534591E+02 -0.79576158172E+02 -0.22042925364E+03  0.23682909735E+03  0.00000000000E+00 0. -1.
         -2    1    6    6    0  503 -0.60836244591E+02 -0.14766493050E+03 -0.16536837762E+03  0.22989710888E+03  0.00000000000E+00 0.  1.
<mgrwt>
<rscale>  0 0.20172255E+04</rscale>
<asrwt>0</asrwt>
<pdfrwt beam="1">  1        2 0.52670650E+00 0.20172255E+04</pdfrwt>
<pdfrwt beam="2">  1       -1 0.45714453E-01 0.20172255E+04</pdfrwt>
<totfact> 0.46346263E+00</totfact>
</mgrwt>
</event>
<event>
12    6  0.1402540E-007  0.1624535E+04  0.7818608E-02  0.8805615E-01
         -1   -1    0    0    0  501 -0.00000000000E+00  0.00000000000E+00  0.42252605661E+03  0.42252605661E+03  0.00000000000E+00 0.  1.
          2   -1    0    0  501    0  0.00000000000E+00 -0.00000000000E+00 -0.15615105503E+04  0.15615105503E+04  0.00000000000E+00 0. -1.
         24    2    1    2    0    0 -0.10913535758E+03 -0.53342899288E+03 -0.54710123333E+03  0.77636877005E+03  0.83496651941E+02 0.  0.
        254    2    1    2    0    0  0.10913535758E+03  0.53342899288E+03 -0.59188326030E+03  0.12076678368E+04  0.90093218032E+03 0.  0.
         23    2    4    4    0    0  0.26962789010E+03  0.64803731092E+03 -0.16196437129E+03  0.72619128903E+03  0.92031381728E+02 0.  0.
         23    2    4    4    0    0 -0.16049253252E+03 -0.11460831805E+03 -0.42991888901E+03  0.48147654778E+03  0.89980527763E+02 0.  0.
          2    1    3    3  502    0 -0.61714998494E+02 -0.19676815664E+03 -0.25645608168E+03  0.32908383481E+03  0.00000000000E+00 0. -1.
         -1    1    3    3    0  502 -0.47420359087E+02 -0.33666083624E+03 -0.29064515166E+03  0.44728493524E+03  0.00000000000E+00 0.  1.
         11    1    5    5    0    0  0.17239074413E+03  0.47113102056E+03 -0.78658725264E+02  0.50780921836E+03  0.00000000000E+00 0. -1.
        -11    1    5    5    0    0  0.97237145977E+02  0.17690629036E+03 -0.83305646030E+02  0.21838207066E+03  0.00000000000E+00 0.  1.
          1    1    6    6  503    0 -0.89913537256E+02 -0.94644273215E+02 -0.34715038975E+03  0.37088458547E+03  0.00000000000E+00 0. -1.
         -1    1    6    6    0  503 -0.70578995267E+02 -0.19964044832E+02 -0.82768499260E+02  0.11059196232E+03  0.00000000000E+00 0.  1.
<mgrwt>
<rscale>  0 0.16245355E+04</rscale>
<asrwt>0</asrwt>
<pdfrwt beam="1">  1        2 0.24023239E+00 0.16245355E+04</pdfrwt>
<pdfrwt beam="2">  1       -1 0.65004009E-01 0.16245355E+04</pdfrwt>
<totfact> 0.30666748E+01</totfact>
</mgrwt>
</event>
<event>
12    6  0.1402540E-007  0.2235532E+04  0.7818608E-02  0.8503783E-01
         -1   -1    0    0    0  501 -0.00000000000E+00  0.00000000000E+00  0.17590967450E+04  0.17590967450E+04  0.00000000000E+00 0.  1.
          2   -1    0    0  501    0  0.00000000000E+00 -0.00000000000E+00 -0.71025157537E+03  0.71025157537E+03  0.00000000000E+00 0. -1.
         24    2    1    2    0    0  0.48795400175E+03  0.65490946330E+03  0.94226992012E+03  0.12495595634E+04  0.80752630252E+02 0.  0.
        254    2    1    2    0    0 -0.48795400175E+03 -0.65490946330E+03  0.10657524950E+03  0.12197887569E+04  0.89973374659E+03 0.  0.
         23    2    4    4    0    0 -0.71233444209E+03 -0.32655178123E+03  0.17123887266E+03  0.80719923903E+03  0.90506556483E+02 0.  0.
         23    2    4    4    0    0  0.22438044034E+03 -0.32835768207E+03 -0.64663623167E+02  0.41258951789E+03  0.88788381699E+02 0.  0.
          2    1    3    3  502    0  0.12075523083E+03  0.12881226421E+03  0.16444171900E+03  0.24127889284E+03  0.00000000000E+00 0. -1.
         -1    1    3    3    0  502  0.36719877092E+03  0.52609719909E+03  0.77782820112E+03  0.10082806706E+04  0.00000000000E+00 0.  1.
         11    1    5    5    0    0 -0.14514393970E+03 -0.10421492514E+03  0.22505108549E+02  0.18009440237E+03  0.00000000000E+00 0.  1.
        -11    1    5    5    0    0 -0.56719050239E+03 -0.22233685609E+03  0.14873376411E+03  0.62710483666E+03  0.00000000000E+00 0. -1.
          3    1    6    6  503    0  0.15769535630E+03 -0.29111196815E+03 -0.54465055521E+02  0.33553009652E+03  0.00000000000E+00 0. -1.
         -3    1    6    6    0  503  0.66685084042E+02 -0.37245713925E+02 -0.10198567647E+02  0.77059421367E+02  0.00000000000E+00 0.  1.
<mgrwt>
<rscale>  0 0.22355324E+04</rscale>
<asrwt>0</asrwt>
<pdfrwt beam="1">  1        2 0.10926947E+00 0.22355324E+04</pdfrwt>
<pdfrwt beam="2">  1       -1 0.27063027E+00 0.22355324E+04</pdfrwt>
<totfact> 0.21413412E+00</totfact>
</mgrwt>
</event>
<event>
12    6  0.1402540E-007  0.1170350E+04  0.7818608E-02  0.9139213E-01
         -1   -1    0    0    0  501 -0.00000000000E+00  0.00000000000E+00  0.11107267168E+03  0.11107267168E+03  0.00000000000E+00 0.  1.
          2   -1    0    0  501    0  0.00000000000E+00 -0.00000000000E+00 -0.30829324035E+04  0.30829324035E+04  0.00000000000E+00 0. -1.
         24    2    1    2    0    0  0.16704688713E+03  0.11701597906E+03 -0.84465256466E+03  0.87257960160E+03  0.79748381127E+02 0.  0.
        254    2    1    2    0    0 -0.16704688713E+03 -0.11701597906E+03 -0.21272071672E+04  0.23214254736E+04  0.90686740789E+03 0.  0.
         23    2    4    4    0    0 -0.40659685553E+03 -0.37849904948E+03 -0.12842998857E+04  0.14024136565E+04  0.93569942332E+02 0.  0.
         23    2    4    4    0    0  0.23954996840E+03  0.26148307042E+03 -0.84290728148E+03  0.91901181711E+03  0.91282261859E+02 0.  0.
          2    1    3    3  502    0  0.98265501017E+02  0.88721307853E+02 -0.66656801219E+03  0.67958847403E+03  0.00000000000E+00 0. -1.
         -1    1    3    3    0  502  0.68781386112E+02  0.28294671208E+02 -0.17808455247E+03  0.19299112758E+03  0.00000000000E+00 0.  1.
         11    1    5    5    0    0 -0.22295574059E+03 -0.26180431750E+03 -0.73000556590E+03  0.80694416732E+03  0.00000000000E+00 0. -1.
        -11    1    5    5    0    0 -0.18364111494E+03 -0.11669473198E+03 -0.55429431982E+03  0.59546948919E+03  0.00000000000E+00 0.  1.
          2    1    6    6  503    0  0.68402331135E+02  0.61366774968E+02 -0.13143491676E+03  0.16037424145E+03  0.00000000000E+00 0.  1.
         -2    1    6    6    0  503  0.17114763727E+03  0.20011629545E+03 -0.71147236472E+03  0.75863757566E+03  0.00000000000E+00 0. -1.
<mgrwt>
<rscale>  0 0.11703496E+04</rscale>
<asrwt>0</asrwt>
<pdfrwt beam="1">  1        2 0.47429732E+00 0.11703496E+04</pdfrwt>
<pdfrwt beam="2">  1       -1 0.17088102E-01 0.11703496E+04</pdfrwt>
<totfact> 0.46981273E+01</totfact>
</mgrwt>
</event>
<event>
12    6  0.1402540E-007  0.3201974E+04  0.7818608E-02  0.8188296E-01
         -1   -1    0    0    0  501 -0.00000000000E+00  0.00000000000E+00  0.94357258157E+03  0.94357258157E+03  0.00000000000E+00 0.  1.
          2   -1    0    0  501    0  0.00000000000E+00 -0.00000000000E+00 -0.27164411827E+04  0.27164411827E+04  0.00000000000E+00 0. -1.
         24    2    1    2    0    0  0.10162395237E+04 -0.94249902296E+03 -0.13881462641E+04  0.19634081952E+04  0.83513547223E+02 0.  0.
        254    2    1    2    0    0 -0.10162395237E+04  0.94249902296E+03 -0.38472233700E+03  0.16966055691E+04  0.89967327548E+03 0.  0.
         23    2    4    4    0    0  0.66463941337E+02  0.28817847732E+03  0.11872324129E+03  0.33179536944E+03  0.92350792483E+02 0.  0.
         23    2    4    4    0    0 -0.10827034650E+04  0.65432054565E+03 -0.50344557829E+03  0.13648101996E+04  0.94166135638E+02 0.  0.
          2    1    3    3  502    0  0.62300152581E+03 -0.52544849928E+03 -0.79405501379E+03  0.11378709907E+04  0.00000000000E+00 0. -1.
         -1    1    3    3    0  502  0.39323799787E+03 -0.41705052369E+03 -0.59409125031E+03  0.82553720447E+03  0.00000000000E+00 0.  1.
         11    1    5    5    0    0 -0.13762763685E+02  0.20228042723E+02 -0.65385507881E+01  0.25324691964E+02  0.00000000000E+00 0. -1.
        -11    1    5    5    0    0  0.80226705022E+02  0.26795043459E+03  0.12526179207E+03  0.30647067747E+03  0.00000000000E+00 0.  1.
          4    1    6    6  503    0 -0.28927474309E+03  0.16283824834E+03 -0.89489215843E+02  0.34380880132E+03  0.00000000000E+00 0. -1.
         -4    1    6    6    0  503 -0.79342872193E+03  0.49148229731E+03 -0.41395636244E+03  0.10210013983E+04  0.00000000000E+00 0.  1.
<mgrwt>
<rscale>  0 0.32019740E+04</rscale>
<asrwt>0</asrwt>
<pdfrwt beam="1">  1        2 0.41791402E+00 0.32019740E+04</pdfrwt>
<pdfrwt beam="2">  1       -1 0.14516501E+00 0.32019740E+04</pdfrwt>
<totfact> 0.94561296E-01</totfact>
</mgrwt>
</event>
<event>
12    6  0.1402540E-007  0.1832639E+04  0.7818608E-02  0.8689133E-01
         -1   -1    0    0    0  501 -0.00000000000E+00  0.00000000000E+00  0.20708273888E+03  0.20708273888E+03  0.00000000000E+00 0.  1.
          2   -1    0    0  501    0  0.00000000000E+00 -0.00000000000E+00 -0.40546176822E+04  0.40546176822E+04  0.00000000000E+00 0. -1.
         24    2    1    2    0    0 -0.30768140794E+03 -0.40277410957E+03 -0.25615482660E+04  0.26124705149E+04  0.81103884107E+02 0.  0.
        254    2    1    2    0    0  0.30768140794E+03  0.40277410957E+03 -0.12859866773E+04  0.16492299061E+04  0.89961253717E+03 0.  0.
         23    2    4    4    0    0 -0.29553479268E+03  0.14436224447E+03 -0.27083869062E+03  0.43703184598E+03  0.97272641322E+02 0.  0.
         23    2    4    4    0    0  0.60321620062E+03  0.25841186511E+03 -0.10151479867E+04  0.12121980602E+04  0.90841760901E+02 0.  0.
          4    1    3    3  502    0 -0.21480106143E+03 -0.30310058044E+03 -0.20318220149E+04  0.20655048191E+04  0.00000000000E+00 0. -1.
         -3    1    3    3    0  502 -0.92880346513E+02 -0.99673529137E+02 -0.52972625117E+03  0.54696569577E+03  0.00000000000E+00 0.  1.
         11    1    5    5    0    0 -0.28737922668E+03  0.11975040272E+03 -0.26828390195E+03  0.41097838256E+03  0.00000000000E+00 0.  1.
        -11    1    5    5    0    0 -0.81555659984E+01  0.24611841751E+02 -0.25547886619E+01  0.26053463421E+02  0.00000000000E+00 0. -1.
          1    1    6    6  503    0  0.98294257436E+02  0.27510819063E+02 -0.21846705309E+03  0.24113576984E+03  0.00000000000E+00 0. -1.
         -1    1    6    6    0  503  0.50492194319E+03  0.23090104604E+03 -0.79668093357E+03  0.97106229032E+03  0.00000000000E+00 0.  1.
<mgrwt>
<rscale>  0 0.18326389E+04</rscale>
<asrwt>0</asrwt>
<pdfrwt beam="1">  1        2 0.62378727E+00 0.18326389E+04</pdfrwt>
<pdfrwt beam="2">  1       -1 0.31858886E-01 0.18326389E+04</pdfrwt>
<totfact> 0.30811824E+00</totfact>
</mgrwt>
</event>
<event>
12    6  0.1402540E-007  0.1834810E+04  0.7818608E-02  0.8688004E-01
          2   -1    0    0  501    0  0.00000000000E+00  0.00000000000E+00  0.29043680978E+04  0.29043680978E+04  0.00000000000E+00 0. -1.
         -1   -1    0    0    0  501 -0.00000000000E+00 -0.00000000000E+00 -0.28978131319E+03  0.28978131319E+03  0.00000000000E+00 0.  1.
         24    2    1    2    0    0 -0.57966939164E+03 -0.29056173306E+03  0.56829654686E+03  0.86588310161E+03  0.79685984687E+02 0.  0.
        254    2    1    2    0    0  0.57966939164E+03  0.29056173306E+03  0.20462902378E+04  0.23282663094E+04  0.90170812686E+03 0.  0.
         23    2    4    4    0    0  0.24320775467E+03  0.32766646811E+03  0.19023477862E+04  0.19477720471E+04  0.91506948292E+02 0.  0.
         23    2    4    4    0    0  0.33646163696E+03 -0.37104735055E+02  0.14394245155E+03  0.38049426229E+03  0.97330672263E+02 0.  0.
          4    1    3    3  502    0 -0.24595124760E+03 -0.11434707074E+03  0.28932693597E+03  0.39658207808E+03  0.00000000000E+00 0. -1.
         -3    1    3    3    0  502 -0.33371814404E+03 -0.17621466232E+03  0.27896961090E+03  0.46930102352E+03  0.00000000000E+00 0.  1.
         11    1    5    5    0    0  0.21378735363E+03  0.30807431073E+03  0.18188172223E+04  0.18570705161E+04  0.00000000000E+00 0.  1.
        -11    1    5    5    0    0  0.29420401047E+02  0.19592157381E+02  0.83530563912E+02  0.90701531057E+02  0.00000000000E+00 0. -1.
          3    1    6    6  503    0  0.83798533818E+02 -0.15682957891E+02  0.84532637227E+02  0.12005797014E+03  0.00000000000E+00 0. -1.
         -3    1    6    6    0  503  0.25266310314E+03 -0.21421777164E+02  0.59409814326E+02  0.26043629214E+03  0.00000000000E+00 0.  1.
<mgrwt>
<rscale>  0 0.18348096E+04</rscale>
<asrwt>0</asrwt>
<pdfrwt beam="1">  1        2 0.44682584E+00 0.18348096E+04</pdfrwt>
<pdfrwt beam="2">  1       -1 0.44581742E-01 0.18348096E+04</pdfrwt>
<totfact> 0.10696509E+01</totfact>
</mgrwt>
</event>
<event>
12    6  0.1402540E-007  0.1438238E+04  0.7818608E-02  0.8926596E-01
          2   -1    0    0  501    0  0.00000000000E+00  0.00000000000E+00  0.98310366095E+03  0.98310366095E+03  0.00000000000E+00 0. -1.
         -1   -1    0    0    0  501 -0.00000000000E+00 -0.00000000000E+00 -0.52601987951E+03  0.52601987951E+03  0.00000000000E+00 0.  1.
         24    2    1    2    0    0  0.59203431777E+02 -0.40861068455E+03  0.27528319379E+03  0.50230279265E+03  0.77842924268E+02 0.  0.
        254    2    1    2    0    0 -0.59203431777E+02  0.40861068455E+03  0.18180058765E+03  0.10068207478E+04  0.90009378772E+03 0.  0.
         23    2    4    4    0    0 -0.39126561090E+03  0.15275071140E+03  0.34105169969E+03  0.54913885877E+03  0.93891779407E+02 0.  0.
         23    2    4    4    0    0  0.33206217912E+03  0.25585997315E+03 -0.15925111204E+03  0.45768188905E+03  0.91554236450E+02 0.  0.
          4    1    3    3  502    0 -0.55153717073E+01 -0.10175325663E+03  0.10120749661E+03  0.14362138396E+03  0.00000000000E+00 0. -1.
         -3    1    3    3    0  502  0.64718803484E+02 -0.30685742791E+03  0.17407569719E+03  0.35868140869E+03  0.00000000000E+00 0.  1.
         11    1    5    5    0    0 -0.13964808757E+03  0.86317857744E+02  0.17745393678E+03  0.24174834148E+03  0.00000000000E+00 0. -1.
        -11    1    5    5    0    0 -0.25161752333E+03  0.66432853651E+02  0.16359776291E+03  0.30739051729E+03  0.00000000000E+00 0.  1.
          4    1    6    6  503    0  0.17158938918E+03  0.16153896654E+03 -0.13035019623E+03  0.26931195637E+03  0.00000000000E+00 0. -1.
         -4    1    6    6    0  503  0.16047278995E+03  0.94321006614E+02 -0.28900915810E+02  0.18836993268E+03  0.00000000000E+00 0.  1.
<mgrwt>
<rscale>  0 0.14382379E+04</rscale>
<asrwt>0</asrwt>
<pdfrwt beam="1">  1        2 0.15124672E+00 0.14382379E+04</pdfrwt>
<pdfrwt beam="2">  1       -1 0.80926135E-01 0.14382379E+04</pdfrwt>
<totfact> 0.43547688E+01</totfact>
</mgrwt>
</event>
<event>
12    6  0.1402540E-007  0.1570113E+04  0.7818608E-02  0.8839122E-01
          2   -1    0    0  501    0  0.00000000000E+00  0.00000000000E+00  0.87837291683E+03  0.87837291683E+03  0.00000000000E+00 0. -1.
         -1   -1    0    0    0  501 -0.00000000000E+00 -0.00000000000E+00 -0.70165341340E+03  0.70165341340E+03  0.00000000000E+00 0.  1.
         24    2    1    2    0    0  0.42744100215E+03 -0.29018659157E+03 -0.30493803586E+02  0.52334077814E+03  0.77727921357E+02 0.  0.
        254    2    1    2    0    0 -0.42744100215E+03  0.29018659157E+03  0.20721330701E+03  0.10566855521E+04  0.89818312896E+03 0.  0.
         23    2    4    4    0    0 -0.30242792802E+03  0.57862222435E+03 -0.18855257625E+02  0.65942837997E+03  0.90685927255E+02 0.  0.
         23    2    4    4    0    0 -0.12501307413E+03 -0.28843563278E+03  0.22606856464E+03  0.39725717213E+03  0.88785595283E+02 0.  0.
          4    1    3    3  502    0  0.21832582832E+03 -0.15512208547E+03  0.22689878810E+02  0.26878217819E+03  0.00000000000E+00 0. -1.
         -3    1    3    3    0  502  0.20911517384E+03 -0.13506450610E+03 -0.53183682396E+02  0.25455859995E+03  0.00000000000E+00 0.  1.
         11    1    5    5    0    0 -0.18738670945E+03  0.26542826368E+03  0.47105473598E+01  0.32494327396E+03  0.00000000000E+00 0. -1.
        -11    1    5    5    0    0 -0.11504121858E+03  0.31319396068E+03 -0.23565804985E+02  0.33448510601E+03  0.00000000000E+00 0.  1.
          3    1    6    6  503    0 -0.13090983069E+02 -0.50073503593E+02  0.24925186225E+01  0.51816428369E+02  0.00000000000E+00 0. -1.
         -3    1    6    6    0  503 -0.11192209106E+03 -0.23836212919E+03  0.22357604601E+03  0.34544074376E+03  0.00000000000E+00 0.  1.
<mgrwt>
<rscale>  0 0.15701126E+04</rscale>
<asrwt>0</asrwt>
<pdfrwt beam="1">  1        2 0.13513429E+00 0.15701126E+04</pdfrwt>
<pdfrwt beam="2">  1       -1 0.10794668E+00 0.15701126E+04</pdfrwt>
<totfact> 0.26558876E+01</totfact>
</mgrwt>
</event>
<event>
12    6  0.1402540E-007  0.1342035E+04  0.7818608E-02  0.8996879E-01
          2   -1    0    0  501    0  0.00000000000E+00  0.00000000000E+00  0.18047987866E+04  0.18047987866E+04  0.00000000000E+00 0. -1.
         -1   -1    0    0    0  501 -0.00000000000E+00 -0.00000000000E+00 -0.24948192723E+03  0.24948192723E+03  0.00000000000E+00 0.  1.
         24    2    1    2    0    0  0.96357588712E+01 -0.31825801697E+03  0.16319371319E+03  0.36662049359E+03  0.79983655061E+02 0.  0.
        254    2    1    2    0    0 -0.96357588712E+01  0.31825801697E+03  0.13921231462E+04  0.16876602203E+04  0.89933817425E+03 0.  0.
         23    2    4    4    0    0  0.37273686382E+03  0.39399304149E+03  0.73338790482E+03  0.91665750107E+03  0.90773723849E+02 0.  0.
         23    2    4    4    0    0 -0.38237262269E+03 -0.75735024517E+02  0.65873524138E+03  0.77100271920E+03  0.92565967000E+02 0.  0.
          4    1    3    3  502    0  0.31999552411E+02 -0.82689351670E+02  0.67240957785E+02  0.11127823973E+03  0.00000000000E+00 0. -1.
         -3    1    3    3    0  502 -0.22363793540E+02 -0.23556866530E+03  0.95952755408E+02  0.25534225386E+03  0.00000000000E+00 0.  1.
         11    1    5    5    0    0  0.17551697200E+03  0.21413349308E+03  0.30508312118E+03  0.41198916387E+03  0.00000000000E+00 0. -1.
        -11    1    5    5    0    0  0.19721989182E+03  0.17985954841E+03  0.42830478364E+03  0.50466833720E+03  0.00000000000E+00 0.  1.
          4    1    6    6  503    0 -0.96054211833E+02 -0.50538543462E+02  0.23657754159E+03  0.26028732042E+03  0.00000000000E+00 0. -1.
         -4    1    6    6    0  503 -0.28631841086E+03 -0.25196481054E+02  0.42215769979E+03  0.51071539877E+03  0.00000000000E+00 0.  1.
<mgrwt>
<rscale>  0 0.13420353E+04</rscale>
<asrwt>0</asrwt>
<pdfrwt beam="1">  1        2 0.27766134E+00 0.13420353E+04</pdfrwt>
<pdfrwt beam="2">  1       -1 0.38381836E-01 0.13420353E+04</pdfrwt>
<totfact> 0.62722584E+01</totfact>
</mgrwt>
</event>
<event>
12    6  0.1402540E-007  0.1499833E+04  0.7818608E-02  0.8884564E-01
         -1   -1    0    0    0  501 -0.00000000000E+00  0.00000000000E+00  0.13934889912E+04  0.13934889912E+04  0.00000000000E+00 0.  1.
          2   -1    0    0  501    0  0.00000000000E+00 -0.00000000000E+00 -0.40357310230E+03  0.40357310230E+03  0.00000000000E+00 0. -1.
         24    2    1    2    0    0  0.39914673919E+03 -0.25752848160E+03  0.33982500065E+03  0.58951192428E+03  0.80026492878E+02 0.  0.
        254    2    1    2    0    0 -0.39914673919E+03  0.25752848160E+03  0.65009088829E+03  0.12075501693E+04  0.89995567113E+03 0.  0.
         23    2    4    4    0    0  0.20169487341E+03  0.17023052815E+03 -0.41810128429E+02  0.28245225206E+03  0.91498268722E+02 0.  0.
         23    2    4    4    0    0 -0.60084161260E+03  0.87297953450E+02  0.69190101671E+03  0.92509791719E+03  0.91910626992E+02 0.  0.
          4    1    3    3  502    0  0.50013880422E+02 -0.45294495936E+01  0.28994176192E+02  0.57987640075E+02  0.00000000000E+00 0. -1.
         -3    1    3    3    0  502  0.34913285877E+03 -0.25299903201E+03  0.31083082446E+03  0.53152428421E+03  0.00000000000E+00 0.  1.
         11    1    5    5    0    0  0.18415252051E+03  0.17537335792E+03 -0.21620845977E+02  0.25521643062E+03  0.00000000000E+00 0.  1.
        -11    1    5    5    0    0  0.17542352899E+02 -0.51428297719E+01 -0.20189282452E+02  0.27235821434E+02  0.00000000000E+00 0. -1.
          4    1    6    6  503    0 -0.14508517427E+03  0.61117719185E+02  0.18571452860E+03  0.24346451390E+03  0.00000000000E+00 0. -1.
         -4    1    6    6    0  503 -0.45575643833E+03  0.26180234265E+02  0.50618648811E+03  0.68163340330E+03  0.00000000000E+00 0.  1.
<mgrwt>
<rscale>  0 0.14998329E+04</rscale>
<asrwt>0</asrwt>
<pdfrwt beam="1">  1        2 0.62088170E-01 0.14998329E+04</pdfrwt>
<pdfrwt beam="2">  1       -1 0.21438292E+00 0.14998329E+04</pdfrwt>
<totfact> 0.10446766E+01</totfact>
</mgrwt>
</event>
<event>
12    6  0.1402540E-007  0.4498756E+04  0.7818608E-02  0.7910855E-01
         -1   -1    0    0    0  501 -0.00000000000E+00  0.00000000000E+00  0.34276470702E+04  0.34276470702E+04  0.00000000000E+00 0.  1.
          2   -1    0    0  501    0  0.00000000000E+00 -0.00000000000E+00 -0.14761440840E+04  0.14761440840E+04  0.00000000000E+00 0. -1.
         24    2    1    2    0    0 -0.80766036554E+02 -0.21495730917E+04  0.74490492220E+03  0.22777672918E+04  0.78440188970E+02 0.  0.
        254    2    1    2    0    0  0.80766036554E+02  0.21495730917E+04  0.12065980640E+04  0.26260238624E+04  0.90162897491E+03 0.  0.
         23    2    4    4    0    0  0.45615073036E+03  0.13821845687E+04  0.61351313600E+03  0.15819458144E+04  0.87444387160E+02 0.  0.
         23    2    4    4    0    0 -0.37538469380E+03  0.76738852307E+03  0.59308492798E+03  0.10440780480E+04  0.92468507504E+02 0.  0.
          4    1    3    3  502    0 -0.14099949825E+01 -0.50770701658E+03  0.14607935943E+03  0.52830633351E+03  0.00000000000E+00 0. -1.
         -3    1    3    3    0  502 -0.79356041572E+02 -0.16418660752E+04  0.59882556277E+03  0.17494609583E+04  0.00000000000E+00 0.  1.
         11    1    5    5    0    0  0.31169256049E+03  0.10500878880E+04  0.44120147058E+03  0.11808876164E+04  0.00000000000E+00 0. -1.
        -11    1    5    5    0    0  0.14445816987E+03  0.33209668063E+03  0.17231166542E+03  0.40105819798E+03  0.00000000000E+00 0.  1.
          2    1    6    6  503    0 -0.19006733997E+03  0.35058171191E+03  0.22458931158E+03  0.45768273872E+03  0.00000000000E+00 0. -1.
         -2    1    6    6    0  503 -0.18531735383E+03  0.41680681116E+03  0.36849561640E+03  0.58639530930E+03  0.00000000000E+00 0.  1.
<mgrwt>
<rscale>  0 0.44987558E+04</rscale>
<asrwt>0</asrwt>
<pdfrwt beam="1">  1        2 0.22709909E+00 0.44987558E+04</pdfrwt>
<pdfrwt beam="2">  1       -1 0.52733032E+00 0.44987558E+04</pdfrwt>
<totfact> 0.11452255E-02</totfact>
</mgrwt>
</event>
<event>
12    6  0.1402540E-007  0.2001326E+04  0.7818608E-02  0.8606001E-01
          2   -1    0    0  501    0  0.00000000000E+00  0.00000000000E+00  0.11613272836E+04  0.11613272836E+04  0.00000000000E+00 0. -1.
         -1   -1    0    0    0  501 -0.00000000000E+00 -0.00000000000E+00 -0.86222612808E+03  0.86222612808E+03  0.00000000000E+00 0.  1.
         24    2    1    2    0    0 -0.55083785163E+03 -0.39342825008E+03  0.54509963237E+03  0.87263515978E+03  0.78424397605E+02 0.  0.
        254    2    1    2    0    0  0.55083785163E+03  0.39342825008E+03 -0.24599847683E+03  0.11509182519E+04  0.89771345386E+03 0.  0.
         23    2    4    4    0    0 -0.16864864779E+02  0.24903548331E+03  0.25822672079E+03  0.37241518194E+03  0.98533916981E+02 0.  0.
         23    2    4    4    0    0  0.56770271641E+03  0.14439276677E+03 -0.50422519761E+03  0.77850306998E+03  0.93211237214E+02 0.  0.
          4    1    3    3  502    0 -0.45002530104E+03 -0.28207974846E+03  0.41837588251E+03  0.67611399566E+03  0.00000000000E+00 0. -1.
         -3    1    3    3    0  502 -0.10081255058E+03 -0.11134850162E+03  0.12672374986E+03  0.19652116412E+03  0.00000000000E+00 0.  1.
         11    1    5    5    0    0 -0.54755731526E+02  0.12919354083E+03  0.11157339960E+03  0.17927014427E+03  0.00000000000E+00 0. -1.
        -11    1    5    5    0    0  0.37890866747E+02  0.11984194248E+03  0.14665332119E+03  0.19314503767E+03  0.00000000000E+00 0.  1.
          1    1    6    6  503    0  0.53937807277E+01  0.79830288881E+01 -0.26365445895E+02  0.28070595968E+02  0.00000000000E+00 0. -1.
         -1    1    6    6    0  503  0.56230893568E+03  0.13640973788E+03 -0.47785975172E+03  0.75043247401E+03  0.00000000000E+00 0.  1.
<mgrwt>
<rscale>  0 0.20013263E+04</rscale>
<asrwt>0</asrwt>
<pdfrwt beam="1">  1        2 0.17866574E+00 0.20013263E+04</pdfrwt>
<pdfrwt beam="2">  1       -1 0.13265017E+00 0.20013263E+04</pdfrwt>
<totfact> 0.10199788E+01</totfact>
</mgrwt>
</event>
<event>
12    6  0.1402540E-007  0.1387167E+04  0.7818608E-02  0.8963160E-01
          2   -1    0    0  501    0  0.00000000000E+00  0.00000000000E+00  0.11297184547E+04  0.11297184547E+04  0.00000000000E+00 0. -1.
         -1   -1    0    0    0  501 -0.00000000000E+00 -0.00000000000E+00 -0.42582137125E+03  0.42582137125E+03  0.00000000000E+00 0.  1.
         24    2    1    2    0    0  0.30312192356E+03 -0.17940526560E+03  0.30357232332E+01  0.36115723517E+03  0.79725673568E+02 0.  0.
        254    2    1    2    0    0 -0.30312192356E+03  0.17940526560E+03  0.70086136023E+03  0.11943825908E+04  0.90070748696E+03 0.  0.
         23    2    4    4    0    0 -0.45901985891E+03  0.14931911212E+03  0.23467375054E+02  0.49224206394E+03  0.93574054645E+02 0.  0.
         23    2    4    4    0    0  0.15589793535E+03  0.30086153485E+02  0.67739398518E+03  0.70214052686E+03  0.94495319600E+02 0.  0.
          2    1    3    3  502    0  0.24165846369E+03 -0.13091501843E+03  0.34064902450E+02  0.27694398838E+03  0.00000000000E+00 0. -1.
         -1    1    3    3    0  502  0.61463459875E+02 -0.48490247175E+02 -0.31029179216E+02  0.84213246783E+02  0.00000000000E+00 0.  1.
         11    1    5    5    0    0 -0.51223657733E+02 -0.12814625948E+02  0.43382323414E+01  0.52980166191E+02  0.00000000000E+00 0.  1.
        -11    1    5    5    0    0 -0.40779620118E+03  0.16213373807E+03  0.19129142713E+02  0.43926189775E+03  0.00000000000E+00 0. -1.
          4    1    6    6  503    0  0.13973127549E+03  0.16859859556E+00  0.42294935215E+03  0.44543351048E+03  0.00000000000E+00 0. -1.
         -4    1    6    6    0  503  0.16166659860E+02  0.29917554889E+02  0.25444463303E+03  0.25670701638E+03  0.00000000000E+00 0.  1.
<mgrwt>
<rscale>  0 0.13871673E+04</rscale>
<asrwt>0</asrwt>
<pdfrwt beam="1">  1        2 0.17380284E+00 0.13871673E+04</pdfrwt>
<pdfrwt beam="2">  1       -1 0.65510980E-01 0.13871673E+04</pdfrwt>
<totfact> 0.54819038E+01</totfact>
</mgrwt>
</event>
<event>
12    6  0.1402540E-007  0.1298611E+04  0.7818608E-02  0.9030667E-01
          2   -1    0    0  501    0  0.00000000000E+00  0.00000000000E+00  0.11152250148E+04  0.11152250148E+04  0.00000000000E+00 0. -1.
         -1   -1    0    0    0  501 -0.00000000000E+00 -0.00000000000E+00 -0.37803841890E+03  0.37803841890E+03  0.00000000000E+00 0.  1.
         24    2    1    2    0    0  0.13881505081E+03  0.63854906247E+02  0.53262807222E+03  0.55812518010E+03  0.66813067296E+02 0.  0.
        254    2    1    2    0    0 -0.13881505081E+03 -0.63854906247E+02  0.20455852372E+03  0.93513825363E+03  0.89960674542E+03 0.  0.
         23    2    4    4    0    0 -0.31841055691E+03 -0.11384625412E+03 -0.25337350288E+03  0.43215935816E+03  0.90649470796E+02 0.  0.
         23    2    4    4    0    0  0.17959550610E+03  0.49991347870E+02  0.45793202659E+03  0.50297889547E+03  0.92370707680E+02 0.  0.
          4    1    3    3  502    0  0.62808348819E+02  0.25269316869E+02  0.35126253990E+03  0.35772726901E+03  0.00000000000E+00 0. -1.
         -3    1    3    3    0  502  0.76006701995E+02  0.38585589378E+02  0.18136553232E+03  0.20039791109E+03  0.00000000000E+00 0.  1.
         11    1    5    5    0    0 -0.30630354836E+03 -0.88643430057E+02 -0.24734204619E+03  0.40355620333E+03  0.00000000000E+00 0. -1.
        -11    1    5    5    0    0 -0.12107008554E+02 -0.25202824060E+02 -0.60314566876E+01  0.28603154835E+02  0.00000000000E+00 0.  1.
          4    1    6    6  503    0  0.17518670336E+01  0.28893624268E+02  0.65872364602E+02  0.71951921307E+02  0.00000000000E+00 0.  1.
         -4    1    6    6    0  503  0.17784363906E+03  0.21097723602E+02  0.39205966199E+03  0.43102697416E+03  0.00000000000E+00 0. -1.
<mgrwt>
<rscale>  0 0.12986114E+04</rscale>
<asrwt>0</asrwt>
<pdfrwt beam="1">  1        2 0.17157308E+00 0.12986114E+04</pdfrwt>
<pdfrwt beam="2">  1       -1 0.58159757E-01 0.12986114E+04</pdfrwt>
<totfact> 0.71386130E+01</totfact>
</mgrwt>
</event>
<event>
12    6  0.1402540E-007  0.1271762E+04  0.7818608E-02  0.9052263E-01
          2   -1    0    0  501    0  0.00000000000E+00  0.00000000000E+00  0.25212234555E+04  0.25212234555E+04  0.00000000000E+00 0. -1.
         -1   -1    0    0    0  501 -0.00000000000E+00 -0.00000000000E+00 -0.16037644984E+03  0.16037644984E+03  0.00000000000E+00 0.  1.
         24    2    1    2    0    0  0.13897910800E+01 -0.31118705229E+03  0.67943538605E+03  0.75154737309E+03  0.79697535444E+02 0.  0.
        254    2    1    2    0    0 -0.13897910800E+01  0.31118705229E+03  0.16814116196E+04  0.19300525322E+04  0.89505219381E+03 0.  0.
         23    2    4    4    0    0  0.31286151602E+03  0.31050158469E+03  0.38342736016E+03  0.59122017297E+03  0.90725906524E+02 0.  0.
         23    2    4    4    0    0 -0.31425130710E+03  0.68546760476E+00  0.12979842594E+04  0.13388323592E+04  0.94628719648E+02 0.  0.
          2    1    3    3  502    0  0.31317486971E+02 -0.82972621094E+02  0.23218451417E+03  0.24854554806E+03  0.00000000000E+00 0. -1.
         -1    1    3    3    0  502 -0.29927695891E+02 -0.22821443120E+03  0.44725087188E+03  0.50300182503E+03  0.00000000000E+00 0.  1.
         11    1    5    5    0    0  0.22435300394E+02  0.93398507913E+01  0.52248729762E+02  0.57623825613E+02  0.00000000000E+00 0. -1.
        -11    1    5    5    0    0  0.29042621562E+03  0.30116173390E+03  0.33117863040E+03  0.53359634736E+03  0.00000000000E+00 0.  1.
          1    1    6    6  503    0 -0.29824024361E+02  0.10690150684E+02  0.53131362260E+02  0.61860273248E+02  0.00000000000E+00 0. -1.
         -1    1    6    6    0  503 -0.28442728274E+03 -0.10004683079E+02  0.12448528972E+04  0.12769720860E+04  0.00000000000E+00 0.  1.
<mgrwt>
<rscale>  0 0.12717623E+04</rscale>
<asrwt>0</asrwt>
<pdfrwt beam="1">  1        2 0.38788050E+00 0.12717623E+04</pdfrwt>
<pdfrwt beam="2">  1       -1 0.24673302E-01 0.12717623E+04</pdfrwt>
<totfact> 0.54518728E+01</totfact>
</mgrwt>
</event>
<event>
12    6  0.1402540E-007  0.2301019E+04  0.7818608E-02  0.8477519E-01
         -1   -1    0    0    0  501 -0.00000000000E+00  0.00000000000E+00  0.10478969113E+04  0.10478969113E+04  0.00000000000E+00 0.  1.
          2   -1    0    0  501    0  0.00000000000E+00 -0.00000000000E+00 -0.12631701467E+04  0.12631701467E+04  0.00000000000E+00 0. -1.
         24    2    1    2    0    0 -0.60021751720E+03  0.67892141020E+03  0.26451995261E+03  0.94743063267E+03  0.80365721578E+02 0.  0.
        254    2    1    2    0    0  0.60021751720E+03 -0.67892141020E+03 -0.47979318795E+03  0.13636364254E+04  0.89894796745E+03 0.  0.
         23    2    4    4    0    0 -0.58616536587E+02 -0.29765414958E+03 -0.50471323545E+03  0.59650031567E+03  0.95096190420E+02 0.  0.
         23    2    4    4    0    0  0.65883405379E+03 -0.38126726062E+03  0.24920047497E+02  0.76713610969E+03  0.91922617301E+02 0.  0.
          4    1    3    3  502    0 -0.26622062675E+03  0.36055126613E+03  0.12192308204E+03  0.46447376196E+03  0.00000000000E+00 0. -1.
         -3    1    3    3    0  502 -0.33399689045E+03  0.31837014407E+03  0.14259687057E+03  0.48295687071E+03  0.00000000000E+00 0.  1.
         11    1    5    5    0    0 -0.63063106768E+02 -0.90497141600E+02 -0.19011894381E+03  0.21979968351E+03  0.00000000000E+00 0. -1.
        -11    1    5    5    0    0  0.44465701811E+01 -0.20715700798E+03 -0.31459429164E+03  0.37670063217E+03  0.00000000000E+00 0.  1.
          1    1    6    6  503    0  0.27697482020E+03 -0.16034803483E+03 -0.34902220172E+02  0.32193898221E+03  0.00000000000E+00 0. -1.
         -1    1    6    6    0  503  0.38185923359E+03 -0.22091922579E+03  0.59822267669E+02  0.44519712747E+03  0.00000000000E+00 0.  1.
<mgrwt>
<rscale>  0 0.23010190E+04</rscale>
<asrwt>0</asrwt>
<pdfrwt beam="1">  1        2 0.19433387E+00 0.23010190E+04</pdfrwt>
<pdfrwt beam="2">  1       -1 0.16121491E+00 0.23010190E+04</pdfrwt>
<totfact> 0.51364129E+00</totfact>
</mgrwt>
</event>
<event>
12    6  0.1402540E-007  0.1690779E+04  0.7818608E-02  0.8766641E-01
         -1   -1    0    0    0  501 -0.00000000000E+00  0.00000000000E+00  0.42508746299E+03  0.42508746299E+03  0.00000000000E+00 0.  1.
          2   -1    0    0  501    0  0.00000000000E+00 -0.00000000000E+00 -0.16812620391E+04  0.16812620391E+04  0.00000000000E+00 0. -1.
         24    2    1    2    0    0  0.25204182625E+03  0.38843503342E+03 -0.91651346719E+03  0.10299900383E+04  0.80471647734E+02 0.  0.
        254    2    1    2    0    0 -0.25204182625E+03 -0.38843503342E+03 -0.33966110890E+03  0.10763594638E+04  0.91036979792E+03 0.  0.
         23    2    4    4    0    0 -0.40712368037E+03 -0.50707290611E+03  0.19862643422E+02  0.65698636756E+03  0.91454575237E+02 0.  0.
         23    2    4    4    0    0  0.15508185412E+03  0.11863787269E+03 -0.35952375232E+03  0.41937309620E+03  0.92147376618E+02 0.  0.
          4    1    3    3  502    0  0.18132857209E+03  0.26539047262E+03 -0.71054912266E+03  0.77986678973E+03  0.00000000000E+00 0. -1.
         -3    1    3    3    0  502  0.70713254161E+02  0.12304456081E+03 -0.20596434453E+03  0.25012324857E+03  0.00000000000E+00 0.  1.
         11    1    5    5    0    0 -0.14553498970E+03 -0.19789076073E+03  0.50683650092E+02  0.25081869706E+03  0.00000000000E+00 0. -1.
        -11    1    5    5    0    0 -0.26158869068E+03 -0.30918214538E+03 -0.30821006670E+02  0.40616767051E+03  0.00000000000E+00 0.  1.
          1    1    6    6  503    0 -0.25410440348E+01 -0.22560518122E+01 -0.59198320231E+02  0.59295765386E+02  0.00000000000E+00 0. -1.
         -1    1    6    6    0  503  0.15762289816E+03  0.12089392450E+03 -0.30032543209E+03  0.36007733081E+03  0.00000000000E+00 0.  1.
<mgrwt>
<rscale>  0 0.16907790E+04</rscale>
<asrwt>0</asrwt>
<pdfrwt beam="1">  1        2 0.25865570E+00 0.16907790E+04</pdfrwt>
<pdfrwt beam="2">  1       -1 0.65398071E-01 0.16907790E+04</pdfrwt>
<totfact> 0.25827852E+01</totfact>
</mgrwt>
</event>
<event>
12    6  0.1402540E-007  0.1402795E+04  0.7818608E-02  0.8951798E-01
          2   -1    0    0  501    0  0.00000000000E+00  0.00000000000E+00  0.57861486550E+03  0.57861486550E+03  0.00000000000E+00 0. -1.
         -1   -1    0    0    0  501 -0.00000000000E+00 -0.00000000000E+00 -0.85023506050E+03  0.85023506050E+03  0.00000000000E+00 0.  1.
         24    2    1    2    0    0  0.15455688637E+02  0.40355226653E+03 -0.11147463903E+03  0.42663666047E+03  0.80615970976E+02 0.  0.
        254    2    1    2    0    0 -0.15455688637E+02 -0.40355226653E+03 -0.16014555596E+03  0.10022132655E+04  0.90315642078E+03 0.  0.
         23    2    4    4    0    0  0.87180539946E+02 -0.13683467371E+03 -0.50880231092E+03  0.54193738615E+03  0.92152940481E+02 0.  0.
         23    2    4    4    0    0 -0.10263622858E+03 -0.26671759282E+03  0.34865675496E+03  0.46027587938E+03  0.92843322971E+02 0.  0.
          4    1    3    3  502    0 -0.93047088864E+01  0.31352705919E+03 -0.57819503968E+02  0.31894966608E+03  0.00000000000E+00 0. -1.
         -1    1    3    3    0  502  0.24760397523E+02  0.90025207332E+02 -0.53655135066E+02  0.10768699438E+03  0.00000000000E+00 0.  1.
         11    1    5    5    0    0  0.84131707701E+02 -0.64971905762E+02 -0.37801263145E+03  0.39267421906E+03  0.00000000000E+00 0.  1.
        -11    1    5    5    0    0  0.30488322450E+01 -0.71862767944E+02 -0.13078967947E+03  0.14926316709E+03  0.00000000000E+00 0. -1.
          3    1    6    6  503    0  0.13256358893E+02 -0.11841010070E+02  0.38684636553E+02  0.42572780926E+02  0.00000000000E+00 0. -1.
         -3    1    6    6    0  503 -0.11589258748E+03 -0.25487658275E+03  0.30997211841E+03  0.41770309845E+03  0.00000000000E+00 0.  1.
<mgrwt>
<rscale>  0 0.14027953E+04</rscale>
<asrwt>0</asrwt>
<pdfrwt beam="1">  1        2 0.89017672E-01 0.14027953E+04</pdfrwt>
<pdfrwt beam="2">  1       -1 0.13080539E+00 0.14027953E+04</pdfrwt>
<totfact> 0.28780047E+01</totfact>
</mgrwt>
</event>
<event>
12    6  0.1402540E-007  0.1344088E+04  0.7818608E-02  0.8995315E-01
          2   -1    0    0  501    0  0.00000000000E+00  0.00000000000E+00  0.22686434952E+04  0.22686434952E+04  0.00000000000E+00 0. -1.
         -1   -1    0    0    0  501 -0.00000000000E+00 -0.00000000000E+00 -0.19908083155E+03  0.19908083155E+03  0.00000000000E+00 0.  1.
         24    2    1    2    0    0 -0.17511677444E+03 -0.15578171147E+03  0.60794852866E+02  0.25498565332E+03  0.79923982289E+02 0.  0.
        254    2    1    2    0    0  0.17511677444E+03  0.15578171147E+03  0.20087678108E+04  0.22127386735E+04  0.89784770033E+03 0.  0.
         23    2    4    4    0    0 -0.25323055430E+03 -0.22274405379E+03  0.78055605920E+03  0.85480800440E+03  0.87683155158E+02 0.  0.
         23    2    4    4    0    0  0.42834732874E+03  0.37852576527E+03  0.12282117516E+04  0.13579306690E+04  0.93318841579E+02 0.  0.
          4    1    3    3  502    0 -0.63345603807E+01 -0.36162495918E+02  0.26527940226E+02  0.45294418849E+02  0.00000000000E+00 0. -1.
         -3    1    3    3    0  502 -0.16878221406E+03 -0.11961921555E+03  0.34266912640E+02  0.20969123447E+03  0.00000000000E+00 0.  1.
         11    1    5    5    0    0 -0.10568980445E+03 -0.10593640466E+03  0.24425332339E+03  0.28644814991E+03  0.00000000000E+00 0. -1.
        -11    1    5    5    0    0 -0.14754074985E+03 -0.11680764913E+03  0.53630273581E+03  0.56835985449E+03  0.00000000000E+00 0.  1.
          3    1    6    6  503    0  0.18562485725E+03  0.21372496421E+03  0.66912966817E+03  0.72654625509E+03  0.00000000000E+00 0. -1.
         -3    1    6    6    0  503  0.24272247148E+03  0.16480080105E+03  0.55908208342E+03  0.63138441396E+03  0.00000000000E+00 0.  1.
<mgrwt>
<rscale>  0 0.13440884E+04</rscale>
<asrwt>0</asrwt>
<pdfrwt beam="1">  1        2 0.34902206E+00 0.13440884E+04</pdfrwt>
<pdfrwt beam="2">  1       -1 0.30627822E-01 0.13440884E+04</pdfrwt>
<totfact> 0.51839077E+01</totfact>
</mgrwt>
</event>
<event>
12    6  0.1402540E-007  0.2176634E+04  0.7818608E-02  0.8528217E-01
          2   -1    0    0  501    0  0.00000000000E+00  0.00000000000E+00  0.31435766164E+04  0.31435766164E+04  0.00000000000E+00 0. -1.
         -1   -1    0    0    0  501 -0.00000000000E+00 -0.00000000000E+00 -0.37677921765E+03  0.37677921765E+03  0.00000000000E+00 0.  1.
         24    2    1    2    0    0  0.77128349827E+02  0.84864824113E+03  0.68215245567E+03  0.10945704696E+04  0.81239895278E+02 0.  0.
        254    2    1    2    0    0 -0.77128349827E+02 -0.84864824113E+03  0.20846449430E+04  0.24257853644E+04  0.90140860666E+03 0.  0.
         23    2    4    4    0    0  0.34939154036E+03 -0.57175776142E+03  0.15022821109E+04  0.16475161368E+04  0.92067877406E+02 0.  0.
         23    2    4    4    0    0 -0.42651989019E+03 -0.27689047972E+03  0.58236283213E+03  0.77826922762E+03  0.89269075984E+02 0.  0.
          4    1    3    3  502    0  0.70232361141E+01  0.49283320395E+03  0.37499847681E+03  0.61932039395E+03  0.00000000000E+00 0. -1.
         -3    1    3    3    0  502  0.70105113713E+02  0.35581503718E+03  0.30715397887E+03  0.47525007563E+03  0.00000000000E+00 0.  1.
         11    1    5    5    0    0  0.37531713842E+02 -0.10467558742E+03  0.31623461251E+03  0.33521625602E+03  0.00000000000E+00 0. -1.
        -11    1    5    5    0    0  0.31185982652E+03 -0.46708217399E+03  0.11860474984E+04  0.13122998808E+04  0.00000000000E+00 0.  1.
          4    1    6    6  503    0 -0.28513763591E+03 -0.18497282917E+03  0.32283260139E+03  0.46876359443E+03  0.00000000000E+00 0. -1.
         -4    1    6    6    0  503 -0.14138225428E+03 -0.91917650548E+02  0.25953023074E+03  0.30950563319E+03  0.00000000000E+00 0.  1.
<mgrwt>
<rscale>  0 0.21766344E+04</rscale>
<asrwt>0</asrwt>
<pdfrwt beam="1">  1        2 0.48362716E+00 0.21766344E+04</pdfrwt>
<pdfrwt beam="2">  1       -1 0.57966035E-01 0.21766344E+04</pdfrwt>
<totfact> 0.44414229E+00</totfact>
</mgrwt>
</event>
<event>
12    6  0.1402540E-007  0.2425064E+04  0.7818608E-02  0.8430179E-01
          2   -1    0    0  501    0  0.00000000000E+00  0.00000000000E+00  0.21851611403E+04  0.21851611403E+04  0.00000000000E+00 0. -1.
         -1   -1    0    0    0  501 -0.00000000000E+00 -0.00000000000E+00 -0.67282647325E+03  0.67282647325E+03  0.00000000000E+00 0.  1.
         24    2    1    2    0    0  0.25155398426E+03 -0.90377324215E+03  0.11922214959E+04  0.15191774820E+04  0.80141414251E+02 0.  0.
        254    2    1    2    0    0 -0.25155398426E+03  0.90377324215E+03  0.32011317120E+03  0.13388101316E+04  0.89991924409E+03 0.  0.
         23    2    4    4    0    0 -0.41954293915E+03  0.52112352431E+03  0.53279471668E+03  0.86015512556E+03  0.91709457154E+02 0.  0.
         23    2    4    4    0    0  0.16798895489E+03  0.38264971784E+03 -0.21268154548E+03  0.47865500604E+03  0.96104523809E+02 0.  0.
          4    1    3    3  502    0  0.58353229515E+02 -0.28985108373E+03  0.42538563073E+03  0.51804602591E+03  0.00000000000E+00 0. -1.
         -3    1    3    3    0  502  0.19320075475E+03 -0.61392215843E+03  0.76683586516E+03  0.10011314561E+04  0.00000000000E+00 0.  1.
         11    1    5    5    0    0 -0.35156349715E+03  0.37727791756E+03  0.39311728249E+03  0.64844176099E+03  0.00000000000E+00 0. -1.
        -11    1    5    5    0    0 -0.67979441999E+02  0.14384560675E+03  0.13967743419E+03  0.21171336457E+03  0.00000000000E+00 0.  1.
          1    1    6    6  503    0  0.13540507852E+03  0.36972093263E+03 -0.19409164018E+03  0.43897570331E+03  0.00000000000E+00 0. -1.
         -1    1    6    6    0  503  0.32583876364E+02  0.12928785210E+02 -0.18589905297E+02  0.39679302727E+02  0.00000000000E+00 0.  1.
<mgrwt>
<rscale>  0 0.24250643E+04</rscale>
<asrwt>0</asrwt>
<pdfrwt beam="1">  1        2 0.33617863E+00 0.24250643E+04</pdfrwt>
<pdfrwt beam="2">  1       -1 0.10351177E+00 0.24250643E+04</pdfrwt>
<totfact> 0.47295988E+00</totfact>
</mgrwt>
</event>
<event>
12    6  0.1402540E-007  0.3930109E+04  0.7818608E-02  0.8018796E-01
         -1   -1    0    0    0  501 -0.00000000000E+00  0.00000000000E+00  0.12355496809E+04  0.12355496809E+04  0.00000000000E+00 0.  1.
          2   -1    0    0  501    0  0.00000000000E+00 -0.00000000000E+00 -0.31252811760E+04  0.31252811760E+04  0.00000000000E+00 0. -1.
         24    2    1    2    0    0 -0.44354880716E+03  0.13878891232E+04  0.38901711220E+03  0.15103052059E+04  0.81949611313E+02 0.  0.
        254    2    1    2    0    0  0.44354880716E+03 -0.13878891232E+04 -0.22787486074E+04  0.28505256509E+04  0.89990527744E+03 0.  0.
         23    2    4    4    0    0  0.18032997240E+02 -0.58446592282E+03 -0.28309032548E+03  0.65598826642E+03  0.90856311668E+02 0.  0.
         23    2    4    4    0    0  0.42551580992E+03 -0.80342320041E+03 -0.19956582819E+04  0.21945373845E+04  0.82400306683E+02 0.  0.
          4    1    3    3  502    0 -0.34078577000E+03  0.99101818643E+03  0.30931429749E+03  0.10926698136E+04  0.00000000000E+00 0. -1.
         -3    1    3    3    0  502 -0.10276303716E+03  0.39687093680E+03  0.79702814712E+02  0.41763539237E+03  0.00000000000E+00 0.  1.
         11    1    5    5    0    0  0.12976542941E+02 -0.58061680553E+03 -0.26800249025E+03  0.63961676050E+03  0.00000000000E+00 0. -1.
        -11    1    5    5    0    0  0.50564542995E+01 -0.38491172892E+01 -0.15087835237E+02  0.16371505921E+02  0.00000000000E+00 0.  1.
          3    1    6    6  503    0  0.35667047951E+03 -0.60230120187E+03 -0.15061992712E+04  0.16609084302E+04  0.00000000000E+00 0. -1.
         -3    1    6    6    0  503  0.68845330412E+02 -0.20112199855E+03 -0.48945901067E+03  0.53362895438E+03  0.00000000000E+00 0.  1.
<mgrwt>
<rscale>  0 0.39301095E+04</rscale>
<asrwt>0</asrwt>
<pdfrwt beam="1">  1        2 0.48081248E+00 0.39301095E+04</pdfrwt>
<pdfrwt beam="2">  1       -1 0.19008457E+00 0.39301095E+04</pdfrwt>
<totfact> 0.23022781E-01</totfact>
</mgrwt>
</event>
<event>
12    6  0.1402540E-007  0.2000864E+04  0.7818608E-02  0.8606217E-01
         -1   -1    0    0    0  501 -0.00000000000E+00  0.00000000000E+00  0.10133551083E+04  0.10133551083E+04  0.00000000000E+00 0.  1.
          2   -1    0    0  501    0  0.00000000000E+00 -0.00000000000E+00 -0.98767365781E+03  0.98767365781E+03  0.00000000000E+00 0. -1.
         24    2    1    2    0    0 -0.34364496589E+03 -0.67915005279E+03 -0.23155482722E+03  0.79939498077E+03  0.77961788690E+02 0.  0.
        254    2    1    2    0    0  0.34364496589E+03  0.67915005279E+03  0.25723627769E+03  0.12016337853E+04  0.89354160210E+03 0.  0.
         23    2    4    4    0    0  0.33049281577E+03  0.84266561973E+03  0.34911269576E+02  0.91038657552E+03  0.90961927125E+02 0.  0.
         23    2    4    4    0    0  0.13152150112E+02 -0.16351556694E+03  0.22232500811E+03  0.29124720980E+03  0.92120618218E+02 0.  0.
          2    1    3    3  502    0 -0.55754277000E+02 -0.18319578104E+03 -0.65419071431E+02  0.20235831711E+03  0.00000000000E+00 0. -1.
         -1    1    3    3    0  502 -0.28789068889E+03 -0.49595427174E+03 -0.16613575578E+03  0.59703666366E+03  0.00000000000E+00 0.  1.
         11    1    5    5    0    0  0.73077122593E+02  0.21448944612E+03 -0.29304166318E+02  0.22848352786E+03  0.00000000000E+00 0.  1.
        -11    1    5    5    0    0  0.25741569318E+03  0.62817617361E+03  0.64215435894E+02  0.68190304765E+03  0.00000000000E+00 0. -1.
          4    1    6    6  503    0  0.19282718388E+02 -0.12777303456E+03  0.99238383731E+02  0.16292951971E+03  0.00000000000E+00 0. -1.
         -4    1    6    6    0  503 -0.61305682760E+01 -0.35742532386E+02  0.12308662438E+03  0.12831769009E+03  0.00000000000E+00 0.  1.
<mgrwt>
<rscale>  0 0.20008640E+04</rscale>
<asrwt>0</asrwt>
<pdfrwt beam="1">  1        2 0.15194979E+00 0.20008640E+04</pdfrwt>
<pdfrwt beam="2">  1       -1 0.15590079E+00 0.20008640E+04</pdfrwt>
<totfact> 0.85390007E+00</totfact>
</mgrwt>
</event>
<event>
12    6  0.1402540E-007  0.2034738E+04  0.7818608E-02  0.8590550E-01
          2   -1    0    0  501    0  0.00000000000E+00  0.00000000000E+00  0.11793669937E+04  0.11793669937E+04  0.00000000000E+00 0. -1.
         -1   -1    0    0    0  501 -0.00000000000E+00 -0.00000000000E+00 -0.87762294120E+03  0.87762294120E+03  0.00000000000E+00 0.  1.
         24    2    1    2    0    0 -0.66439093527E+03 -0.47291948661E+03  0.84088107075E+02  0.82376068984E+03  0.80266485459E+02 0.  0.
        254    2    1    2    0    0  0.66439093527E+03  0.47291948661E+03  0.21765594546E+03  0.12332292451E+04  0.89911740317E+03 0.  0.
         23    2    4    4    0    0 -0.10467350997E+03 -0.30220513286E+02 -0.17859687038E+03  0.22820985007E+03  0.91176040965E+02 0.  0.
         23    2    4    4    0    0  0.76906444525E+03  0.50313999989E+03  0.39625281584E+03  0.10050193950E+04  0.91857007843E+02 0.  0.
          2    1    3    3  502    0 -0.37429966321E+03 -0.24061301070E+03  0.79962218297E+02  0.45209381234E+03  0.00000000000E+00 0. -1.
         -3    1    3    3    0  502 -0.29009127206E+03 -0.23230647590E+03  0.41258887779E+01  0.37166687750E+03  0.00000000000E+00 0.  1.
         11    1    5    5    0    0 -0.72389550966E+02  0.46974276397E+01 -0.16257986682E+03  0.17802956499E+03  0.00000000000E+00 0. -1.
        -11    1    5    5    0    0 -0.32283959007E+02 -0.34917940925E+02 -0.16017003560E+02  0.50180285080E+02  0.00000000000E+00 0.  1.
          3    1    6    6  503    0  0.69391105557E+03  0.48364845596E+03  0.36767584067E+03  0.92228732280E+03  0.00000000000E+00 0.  1.
         -3    1    6    6    0  503  0.75153389675E+02  0.19491543934E+02  0.28576975171E+02  0.82732072224E+02  0.00000000000E+00 0. -1.
<mgrwt>
<rscale>  0 0.20347379E+04</rscale>
<asrwt>0</asrwt>
<pdfrwt beam="1">  1        2 0.18144108E+00 0.20347379E+04</pdfrwt>
<pdfrwt beam="2">  1       -1 0.13501891E+00 0.20347379E+04</pdfrwt>
<totfact> 0.94804154E+00</totfact>
</mgrwt>
</event>
<event>
12    6  0.1402540E-007  0.1149519E+04  0.7818608E-02  0.9158227E-01
         -1   -1    0    0    0  501 -0.00000000000E+00  0.00000000000E+00  0.55210959472E+03  0.55210959472E+03  0.00000000000E+00 0.  1.
          2   -1    0    0  501    0  0.00000000000E+00 -0.00000000000E+00 -0.59833904647E+03  0.59833904647E+03  0.00000000000E+00 0. -1.
         24    2    1    2    0    0 -0.18401102097E+03  0.25579810240E+02 -0.10686652894E+03  0.22896254468E+03  0.80554387377E+02 0.  0.
        254    2    1    2    0    0  0.18401102097E+03 -0.25579810240E+02  0.60637077191E+02  0.92148609651E+03  0.90052506262E+03 0.  0.
         23    2    4    4    0    0  0.46582711249E+03 -0.60594800040E+02 -0.20677439573E+03  0.52112649125E+03  0.90280344628E+02 0.  0.
         23    2    4    4    0    0 -0.28181609152E+03  0.35014989800E+02  0.26741147292E+03  0.40035960526E+03  0.90180700414E+02 0.  0.
          4    1    3    3  502    0 -0.17862389340E+03  0.29289771119E+02 -0.11798213163E+03  0.21606519704E+03  0.00000000000E+00 0. -1.
         -3    1    3    3    0  502 -0.53871275685E+01 -0.37099608793E+01  0.11115602684E+02  0.12897347642E+02  0.00000000000E+00 0.  1.
         11    1    5    5    0    0  0.39649570081E+03 -0.36137007787E+02 -0.14067096920E+03  0.42225945303E+03  0.00000000000E+00 0. -1.
        -11    1    5    5    0    0  0.69331411678E+02 -0.24457792253E+02 -0.66103426533E+02  0.98867038221E+02  0.00000000000E+00 0.  1.
          2    1    6    6  503    0 -0.80435372792E+02 -0.26499825040E+02  0.53346830989E+02  0.10008983115E+03  0.00000000000E+00 0. -1.
         -2    1    6    6    0  503 -0.20138071872E+03  0.61514814840E+02  0.21406464193E+03  0.30026977411E+03  0.00000000000E+00 0.  1.
<mgrwt>
<rscale>  0 0.11495194E+04</rscale>
<asrwt>0</asrwt>
<pdfrwt beam="1">  1        2 0.92052161E-01 0.11495194E+04</pdfrwt>
<pdfrwt beam="2">  1       -1 0.84939937E-01 0.11495194E+04</pdfrwt>
<totfact> 0.77237515E+01</totfact>
</mgrwt>
</event>
<event>
12    6  0.1402540E-007  0.1498048E+04  0.7818608E-02  0.8885752E-01
          2   -1    0    0  501    0  0.00000000000E+00  0.00000000000E+00  0.26150398380E+04  0.26150398380E+04  0.00000000000E+00 0. -1.
         -1   -1    0    0    0  501 -0.00000000000E+00 -0.00000000000E+00 -0.21454243852E+03  0.21454243852E+03  0.00000000000E+00 0.  1.
         24    2    1    2    0    0 -0.32805487930E+03 -0.29962873295E+03  0.10841745110E+04  0.11742285446E+04  0.77336428977E+02 0.  0.
        254    2    1    2    0    0  0.32805487930E+03  0.29962873295E+03  0.13163228885E+04  0.16553537319E+04  0.90005147050E+03 0.  0.
         23    2    4    4    0    0  0.13089085291E+02  0.45649573786E+03  0.11747923356E+04  0.12637248327E+04  0.91124848867E+02 0.  0.
         23    2    4    4    0    0  0.31496579401E+03 -0.15686700491E+03  0.14153055285E+03  0.39162889920E+03  0.97629855440E+02 0.  0.
          4    1    3    3  502    0 -0.32721187782E+03 -0.30215076259E+03  0.10835265322E+04  0.11714915460E+04  0.00000000000E+00 0. -1.
         -3    1    3    3    0  502 -0.84300147762E+00  0.25220296366E+01  0.64797879157E+00  0.27369986287E+01  0.00000000000E+00 0.  1.
         11    1    5    5    0    0 -0.19986440494E+02  0.39637559436E+03  0.10140458482E+04  0.10889453852E+04  0.00000000000E+00 0.  1.
        -11    1    5    5    0    0  0.33075525785E+02  0.60120143507E+02  0.16074648742E+03  0.17477944753E+03  0.00000000000E+00 0. -1.
          2    1    6    6  503    0  0.36764844182E+02 -0.10642321786E+02 -0.14263021947E+02  0.40845398465E+02  0.00000000000E+00 0. -1.
         -2    1    6    6    0  503  0.27820094983E+03 -0.14622468313E+03  0.15579357480E+03  0.35078350074E+03  0.00000000000E+00 0.  1.
<mgrwt>
<rscale>  0 0.14980481E+04</rscale>
<asrwt>0</asrwt>
<pdfrwt beam="1">  1        2 0.40231380E+00 0.14980481E+04</pdfrwt>
<pdfrwt beam="2">  1       -1 0.33006531E-01 0.14980481E+04</pdfrwt>
<totfact> 0.28382468E+01</totfact>
</mgrwt>
</event>
<event>
12    6  0.1402540E-007  0.1583319E+04  0.7818608E-02  0.8830862E-01
          2   -1    0    0  501    0  0.00000000000E+00  0.00000000000E+00  0.29180669540E+04  0.29180669540E+04  0.00000000000E+00 0. -1.
         -1   -1    0    0    0  501 -0.00000000000E+00 -0.00000000000E+00 -0.21477389322E+03  0.21477389322E+03  0.00000000000E+00 0.  1.
         24    2    1    2    0    0 -0.17676545095E+03 -0.29652634760E+03  0.17171881674E+04  0.17532585974E+04  0.77502307128E+02 0.  0.
        254    2    1    2    0    0  0.17676545095E+03  0.29652634760E+03  0.98610489343E+03  0.13795822499E+04  0.90092753528E+03 0.  0.
         23    2    4    4    0    0  0.35969635385E+03  0.53108397303E+03  0.73751408720E+03  0.98126254269E+03  0.86703491725E+02 0.  0.
         23    2    4    4    0    0 -0.18293090290E+03 -0.23455762543E+03  0.24859080623E+03  0.39831970718E+03  0.91543461273E+02 0.  0.
          2    1    3    3  502    0 -0.13881099892E+03 -0.18761114988E+03  0.12805901170E+04  0.13016825591E+04  0.00000000000E+00 0. -1.
         -1    1    3    3    0  502 -0.37954452029E+02 -0.10891519772E+03  0.43659805037E+03  0.45157603823E+03  0.00000000000E+00 0.  1.
         11    1    5    5    0    0  0.60227950563E+02  0.15329392097E+03  0.17167371654E+03  0.23790396631E+03  0.00000000000E+00 0. -1.
        -11    1    5    5    0    0  0.29946840329E+03  0.37779005206E+03  0.56584037066E+03  0.74335857638E+03  0.00000000000E+00 0.  1.
          2    1    6    6  503    0 -0.10895321123E+03 -0.20327289853E+03  0.19158187057E+03  0.29982375931E+03  0.00000000000E+00 0. -1.
         -2    1    6    6    0  503 -0.73977691668E+02 -0.31284726898E+02  0.57008935666E+02  0.98495947873E+02  0.00000000000E+00 0.  1.
<mgrwt>
<rscale>  0 0.15833188E+04</rscale>
<asrwt>0</asrwt>
<pdfrwt beam="1">  1        2 0.44893335E+00 0.15833188E+04</pdfrwt>
<pdfrwt beam="2">  1       -1 0.33042139E-01 0.15833188E+04</pdfrwt>
<totfact> 0.18513629E+01</totfact>
</mgrwt>
</event>
<event>
12    6  0.1402540E-007  0.2753395E+04  0.7818608E-02  0.8317885E-01
          2   -1    0    0  501    0  0.00000000000E+00  0.00000000000E+00  0.16352384329E+04  0.16352384329E+04  0.00000000000E+00 0. -1.
         -1   -1    0    0    0  501 -0.00000000000E+00 -0.00000000000E+00 -0.11590337957E+04  0.11590337957E+04  0.00000000000E+00 0.  1.
         24    2    1    2    0    0 -0.10768751867E+04  0.58824508366E+03  0.17989036240E+03  0.12428000530E+04  0.80616270288E+02 0.  0.
        254    2    1    2    0    0  0.10768751867E+04 -0.58824508366E+03  0.29631427474E+03  0.15514721756E+04  0.90198188242E+03 0.  0.
         23    2    4    4    0    0  0.15102723311E+03 -0.46652268850E+03  0.35323732552E+03  0.61123020792E+03  0.91504726139E+02 0.  0.
         23    2    4    4    0    0  0.92584795359E+03 -0.12172239516E+03 -0.56923050775E+02  0.94024196773E+03  0.93829363837E+02 0.  0.
          4    1    3    3  502    0 -0.67448449180E+03  0.37950776707E+03  0.15143117953E+03  0.78859804532E+03  0.00000000000E+00 0. -1.
         -3    1    3    3    0  502 -0.40239069490E+03  0.20873731659E+03  0.28459182867E+02  0.45420200766E+03  0.00000000000E+00 0.  1.
         11    1    5    5    0    0  0.53179882465E+02 -0.14024582175E+03  0.16122945517E+03  0.22020882732E+03  0.00000000000E+00 0. -1.
        -11    1    5    5    0    0  0.97847350642E+02 -0.32627686675E+03  0.19200787035E+03  0.39102138059E+03  0.00000000000E+00 0.  1.
          1    1    6    6  503    0  0.46716509944E+03 -0.18946860602E+02 -0.49105861507E+02  0.47012083478E+03  0.00000000000E+00 0.  1.
         -1    1    6    6    0  503  0.45868285415E+03 -0.10277553456E+03 -0.78171892681E+01  0.47012113294E+03  0.00000000000E+00 0. -1.
<mgrwt>
<rscale>  0 0.27533954E+04</rscale>
<asrwt>0</asrwt>
<pdfrwt beam="1">  1        2 0.25157514E+00 0.27533954E+04</pdfrwt>
<pdfrwt beam="2">  1       -1 0.17831289E+00 0.27533954E+04</pdfrwt>
<totfact> 0.22682583E+00</totfact>
</mgrwt>
</event>
<event>
12    6  0.1402540E-007  0.3822061E+04  0.7818608E-02  0.8041437E-01
         -1   -1    0    0    0  501 -0.00000000000E+00  0.00000000000E+00  0.11538341188E+04  0.11538341188E+04  0.00000000000E+00 0.  1.
          2   -1    0    0  501    0  0.00000000000E+00 -0.00000000000E+00 -0.31651330388E+04  0.31651330388E+04  0.00000000000E+00 0. -1.
         24    2    1    2    0    0  0.67145687757E+02 -0.16360813828E+04 -0.18066292740E+04  0.24395394798E+04  0.78566568922E+02 0.  0.
        254    2    1    2    0    0 -0.67145687757E+02  0.16360813828E+04 -0.20466964603E+03  0.18794276778E+04  0.89949313371E+03 0.  0.
         23    2    4    4    0    0  0.99480230097E+02  0.13047852263E+04  0.19538561430E+03  0.13261650725E+04  0.90429299836E+02 0.  0.
         23    2    4    4    0    0 -0.16662591785E+03  0.33129615644E+03 -0.40005526033E+03  0.55326260526E+03  0.92379431115E+02 0.  0.
          2    1    3    3  502    0  0.16622302477E+02 -0.73036746137E+03 -0.86074387558E+03  0.11289787194E+04  0.00000000000E+00 0. -1.
         -1    1    3    3    0  502  0.50523385280E+02 -0.90571392139E+03 -0.94588539839E+03  0.13105607604E+04  0.00000000000E+00 0.  1.
         11    1    5    5    0    0  0.34761101102E+02  0.22791005271E+03  0.64752609838E+02  0.23946654622E+03  0.00000000000E+00 0.  1.
        -11    1    5    5    0    0  0.64719128995E+02  0.10768751736E+04  0.13063300446E+03  0.10866985263E+04  0.00000000000E+00 0. -1.
          3    1    6    6  503    0 -0.67554514758E+02  0.85357108114E+02 -0.17190426440E+03  0.20347118835E+03  0.00000000000E+00 0. -1.
         -3    1    6    6    0  503 -0.99071403095E+02  0.24593904832E+03 -0.22815099593E+03  0.34979141691E+03  0.00000000000E+00 0.  1.
<mgrwt>
<rscale>  0 0.38220615E+04</rscale>
<asrwt>0</asrwt>
<pdfrwt beam="1">  1        2 0.48694354E+00 0.38220615E+04</pdfrwt>
<pdfrwt beam="2">  1       -1 0.17751294E+00 0.38220615E+04</pdfrwt>
<totfact> 0.26901454E-01</totfact>
</mgrwt>
</event>
<event>
12    6  0.1402540E-007  0.2031216E+04  0.7818608E-02  0.8592164E-01
          2   -1    0    0  501    0  0.00000000000E+00  0.00000000000E+00  0.90756232355E+03  0.90756232355E+03  0.00000000000E+00 0. -1.
         -1   -1    0    0    0  501 -0.00000000000E+00 -0.00000000000E+00 -0.11365165039E+04  0.11365165039E+04  0.00000000000E+00 0.  1.
         24    2    1    2    0    0 -0.31581081878E+03  0.41693355666E+03 -0.73564604849E+03  0.90640075549E+03  0.82566076359E+02 0.  0.
        254    2    1    2    0    0  0.31581081878E+03 -0.41693355666E+03  0.50669186811E+03  0.11376780720E+04  0.87407361381E+03 0.  0.
         23    2    4    4    0    0 -0.25808681523E+03 -0.32697907500E+03  0.16017808903E+03  0.45524398283E+03  0.89810600815E+02 0.  0.
         23    2    4    4    0    0  0.57389763400E+03 -0.89954481665E+02  0.34651377908E+03  0.68243408917E+03  0.90521731526E+02 0.  0.
          4    1    3    3  502    0 -0.16165360906E+03  0.22177186771E+03 -0.31543077203E+03  0.41810432021E+03  0.00000000000E+00 0. -1.
         -3    1    3    3    0  502 -0.15415720971E+03  0.19516168895E+03 -0.42021527646E+03  0.48829643529E+03  0.00000000000E+00 0.  1.
         11    1    5    5    0    0 -0.13310682698E+03 -0.20875384510E+03  0.13309477820E+03  0.28108684640E+03  0.00000000000E+00 0. -1.
        -11    1    5    5    0    0 -0.12497998824E+03 -0.11822522990E+03  0.27083310831E+02  0.17415713643E+03  0.00000000000E+00 0.  1.
          4    1    6    6  503    0  0.40549540682E+03 -0.24980882657E+02  0.21996665910E+03  0.46199123429E+03  0.00000000000E+00 0. -1.
         -4    1    6    6    0  503  0.16840222718E+03 -0.64973599008E+02  0.12654711998E+03  0.22044285487E+03  0.00000000000E+00 0.  1.
<mgrwt>
<rscale>  0 0.20312160E+04</rscale>
<asrwt>0</asrwt>
<pdfrwt beam="1">  1        2 0.13962497E+00 0.20312160E+04</pdfrwt>
<pdfrwt beam="2">  1       -1 0.17484869E+00 0.20312160E+04</pdfrwt>
<totfact> 0.69476282E+00</totfact>
</mgrwt>
</event>
<event>
12    6  0.1402540E-007  0.2188212E+04  0.7818608E-02  0.8523351E-01
         -1   -1    0    0    0  501 -0.00000000000E+00  0.00000000000E+00  0.51632335917E+03  0.51632335917E+03  0.00000000000E+00 0.  1.
          2   -1    0    0  501    0  0.00000000000E+00 -0.00000000000E+00 -0.23184462162E+04  0.23184462162E+04  0.00000000000E+00 0. -1.
         24    2    1    2    0    0  0.50494339931E+03 -0.59616802184E+03 -0.13496077701E+04  0.15608888642E+04  0.67444543284E+02 0.  0.
        254    2    1    2    0    0 -0.50494339931E+03  0.59616802184E+03 -0.45251508694E+03  0.12738807112E+04  0.89867570108E+03 0.  0.
         23    2    4    4    0    0  0.18506432308E+03 -0.66091784581E+02 -0.19573266598E+02  0.21997861281E+03  0.96904848504E+02 0.  0.
         23    2    4    4    0    0 -0.69000772239E+03  0.66225980642E+03 -0.43294182034E+03  0.10539020984E+04  0.92586743357E+02 0.  0.
          2    1    3    3  502    0  0.22669245883E+03 -0.31713055923E+03 -0.64987144569E+03  0.75782198333E+03  0.00000000000E+00 0. -1.
         -1    1    3    3    0  502  0.27825094047E+03 -0.27903746260E+03 -0.69973632443E+03  0.80306688086E+03  0.00000000000E+00 0.  1.
         11    1    5    5    0    0  0.17445221238E+03 -0.24550551004E+02 -0.17774037129E+02  0.17706558207E+03  0.00000000000E+00 0. -1.
        -11    1    5    5    0    0  0.10612110700E+02 -0.41541233577E+02 -0.17992294691E+01  0.42913030740E+02  0.00000000000E+00 0.  1.
          2    1    6    6  503    0 -0.65301878525E+03  0.60463891149E+03 -0.42054683741E+03  0.98431772799E+03  0.00000000000E+00 0. -1.
         -2    1    6    6    0  503 -0.36988937134E+02  0.57620894926E+02 -0.12394982937E+02  0.69584370403E+02  0.00000000000E+00 0.  1.
<mgrwt>
<rscale>  0 0.21882120E+04</rscale>
<asrwt>0</asrwt>
<pdfrwt beam="1">  1        2 0.35668404E+00 0.21882120E+04</pdfrwt>
<pdfrwt beam="2">  1       -1 0.79434361E-01 0.21882120E+04</pdfrwt>
<totfact> 0.72971352E+00</totfact>
</mgrwt>
</event>
<event>
12    6  0.1402540E-007  0.4679760E+04  0.7818608E-02  0.7879900E-01
          2   -1    0    0  501    0  0.00000000000E+00  0.00000000000E+00  0.30872297806E+04  0.30872297806E+04  0.00000000000E+00 0. -1.
         -1   -1    0    0    0  501 -0.00000000000E+00 -0.00000000000E+00 -0.17734471485E+04  0.17734471485E+04  0.00000000000E+00 0.  1.
         24    2    1    2    0    0 -0.17357038649E+04 -0.39831180631E+03  0.20659817477E+04  0.27287528063E+04  0.80567330507E+02 0.  0.
        254    2    1    2    0    0  0.17357038649E+04  0.39831180631E+03 -0.75219911560E+03  0.21319241227E+04  0.89887527172E+03 0.  0.
         23    2    4    4    0    0  0.53273164979E+03  0.48542363986E+02 -0.68558067862E+03  0.87422717304E+03  0.89960610220E+02 0.  0.
         23    2    4    4    0    0  0.12029722151E+04  0.34976944232E+03 -0.66618436982E+02  0.12576969497E+04  0.88785067151E+02 0.  0.
          4    1    3    3  502    0 -0.41314191380E+03 -0.12105856433E+03  0.53505624571E+03  0.68675075756E+03  0.00000000000E+00 0. -1.
         -3    1    3    3    0  502 -0.13225619511E+04 -0.27725324198E+03  0.15309255020E+04  0.20420020488E+04  0.00000000000E+00 0.  1.
         11    1    5    5    0    0  0.13033882600E+03  0.50865999356E+02 -0.18558869337E+03  0.23241928182E+03  0.00000000000E+00 0. -1.
        -11    1    5    5    0    0  0.40239282379E+03 -0.23236353691E+01 -0.49999198525E+03  0.64180789122E+03  0.00000000000E+00 0.  1.
          3    1    6    6  503    0  0.76298577710E+03  0.19062655272E+03 -0.10959895647E+02  0.78651503353E+03  0.00000000000E+00 0. -1.
         -3    1    6    6    0  503  0.43998643797E+03  0.15914288961E+03 -0.55658541335E+02  0.47118191618E+03  0.00000000000E+00 0.  1.
<mgrwt>
<rscale>  0 0.46797602E+04</rscale>
<asrwt>0</asrwt>
<pdfrwt beam="1">  1        2 0.47495843E+00 0.46797602E+04</pdfrwt>
<pdfrwt beam="2">  1       -1 0.27283802E+00 0.46797602E+04</pdfrwt>
<totfact> 0.64385301E-02</totfact>
</mgrwt>
</event>
<event>
12    6  0.1402540E-007  0.6881613E+04  0.7818608E-02  0.7589769E-01
         -1   -1    0    0    0  501 -0.00000000000E+00  0.00000000000E+00  0.32508039817E+04  0.32508039817E+04  0.00000000000E+00 0.  1.
          2   -1    0    0  501    0  0.00000000000E+00 -0.00000000000E+00 -0.36419137402E+04  0.36419137402E+04  0.00000000000E+00 0. -1.
         24    2    1    2    0    0  0.82747721303E+03 -0.30528803382E+04 -0.13895863419E+04  0.34557340448E+04  0.79691210244E+02 0.  0.
        254    2    1    2    0    0 -0.82747721303E+03  0.30528803382E+04  0.99847658335E+03  0.34369836771E+04  0.90061335289E+03 0.  0.
         23    2    4    4    0    0 -0.76489237241E+03  0.12998748041E+04  0.26691916039E+03  0.15341851129E+04  0.87995879490E+02 0.  0.
         23    2    4    4    0    0 -0.62584840628E+02  0.17530055341E+04  0.73155742296E+03  0.19027985642E+04  0.92308438132E+02 0.  0.
          4    1    3    3  502    0  0.61861955396E+03 -0.23962573634E+04 -0.10717277501E+04  0.26969130269E+04  0.00000000000E+00 0. -1.
         -3    1    3    3    0  502  0.20885765908E+03 -0.65662297481E+03 -0.31785859178E+03  0.75882101788E+03  0.00000000000E+00 0.  1.
         11    1    5    5    0    0 -0.46278426227E+03  0.75372072667E+03  0.19707362592E+03  0.90614690931E+03  0.00000000000E+00 0. -1.
        -11    1    5    5    0    0 -0.30210811013E+03  0.54615407744E+03  0.69845534475E+02  0.62803820362E+03  0.00000000000E+00 0.  1.
          4    1    6    6  503    0 -0.17904795110E+02  0.92693450283E+03  0.33941076908E+03  0.98728305181E+03  0.00000000000E+00 0. -1.
         -4    1    6    6    0  503 -0.44680045518E+02  0.82607103130E+03  0.39214665388E+03  0.91551551236E+03  0.00000000000E+00 0.  1.
<mgrwt>
<rscale>  0 0.68816125E+04</rscale>
<asrwt>0</asrwt>
<pdfrwt beam="1">  1        2 0.56029442E+00 0.68816125E+04</pdfrwt>
<pdfrwt beam="2">  1       -1 0.50012369E+00 0.68816125E+04</pdfrwt>
<totfact> 0.69306220E-04</totfact>
</mgrwt>
</event>
<event>
12    6  0.1402540E-007  0.1998412E+04  0.7818608E-02  0.8607363E-01
          2   -1    0    0  501    0  0.00000000000E+00  0.00000000000E+00  0.14854291480E+04  0.14854291480E+04  0.00000000000E+00 0. -1.
         -1   -1    0    0    0  501 -0.00000000000E+00 -0.00000000000E+00 -0.67213746214E+03  0.67213746214E+03  0.00000000000E+00 0.  1.
         24    2    1    2    0    0  0.12855727817E+03 -0.74872967771E+03  0.57635396371E+03  0.95694605815E+03  0.80241901075E+02 0.  0.
        254    2    1    2    0    0 -0.12855727817E+03  0.74872967771E+03  0.23693772211E+03  0.12006205519E+04  0.89901452800E+03 0.  0.
         23    2    4    4    0    0 -0.23791973416E+03  0.16082540185E+02  0.36185607029E+03  0.44378720390E+03  0.95618087934E+02 0.  0.
         23    2    4    4    0    0  0.10936245599E+03  0.73264713752E+03 -0.12491834818E+03  0.75683334805E+03  0.91979063435E+02 0.  0.
          2    1    3    3  502    0  0.27696176429E+02 -0.77421147380E+02  0.89704276640E+02  0.12168800063E+03  0.00000000000E+00 0. -1.
         -1    1    3    3    0  502  0.10086110174E+03 -0.67130853033E+03  0.48664968707E+03  0.83525805752E+03  0.00000000000E+00 0.  1.
         11    1    5    5    0    0 -0.18006602612E+02 -0.45282623264E+01 -0.14323836001E+01  0.18622422509E+02  0.00000000000E+00 0.  1.
        -11    1    5    5    0    0 -0.21991313155E+03  0.20610802511E+02  0.36328845389E+03  0.42516478139E+03  0.00000000000E+00 0. -1.
          2    1    6    6  503    0  0.11103800863E+03  0.62352540038E+03 -0.13388200395E+03  0.64733125621E+03  0.00000000000E+00 0. -1.
         -2    1    6    6    0  503 -0.16755526416E+01  0.10912173714E+03  0.89636557707E+01  0.10950209184E+03  0.00000000000E+00 0.  1.
<mgrwt>
<rscale>  0 0.19984119E+04</rscale>
<asrwt>0</asrwt>
<pdfrwt beam="1">  1        2 0.22852756E+00 0.19984119E+04</pdfrwt>
<pdfrwt beam="2">  1       -1 0.10340576E+00 0.19984119E+04</pdfrwt>
<totfact> 0.12083705E+01</totfact>
</mgrwt>
</event>
<event>
12    6  0.1402540E-007  0.1169865E+04  0.7818608E-02  0.9139650E-01
         -1   -1    0    0    0  501 -0.00000000000E+00  0.00000000000E+00  0.25662760174E+03  0.25662760174E+03  0.00000000000E+00 0.  1.
          2   -1    0    0  501    0  0.00000000000E+00 -0.00000000000E+00 -0.13332390701E+04  0.13332390701E+04  0.00000000000E+00 0. -1.
         24    2    1    2    0    0  0.96454774216E+02 -0.75262763351E+02  0.41141992490E+02  0.15120925306E+03  0.78762730081E+02 0.  0.
        254    2    1    2    0    0 -0.96454774216E+02  0.75262763351E+02 -0.11177534608E+04  0.14386574188E+04  0.89743766486E+03 0.  0.
         23    2    4    4    0    0 -0.17849782313E+03 -0.25372511840E+03 -0.10260010032E+04  0.10757350913E+04  0.91049544733E+02 0.  0.
         23    2    4    4    0    0  0.82043048909E+02  0.32898788175E+03 -0.91752457632E+02  0.36292232742E+03  0.91268910603E+02 0.  0.
          2    1    3    3  502    0  0.62404089199E+02 -0.52540767983E+01 -0.11048902742E+01  0.62634626640E+02  0.00000000000E+00 0. -1.
         -1    1    3    3    0  502  0.34050685017E+02 -0.70008686553E+02  0.42246882764E+02  0.88574626424E+02  0.00000000000E+00 0.  1.
         11    1    5    5    0    0 -0.52492245750E+02 -0.17633311917E+02 -0.19461604118E+03  0.20234073499E+03  0.00000000000E+00 0.  1.
        -11    1    5    5    0    0 -0.12600557738E+03 -0.23609180648E+03 -0.83138496202E+03  0.87339435634E+03  0.00000000000E+00 0. -1.
          2    1    6    6  503    0  0.28706694588E+02  0.21685436755E+02 -0.25416756872E+02  0.44049336105E+02  0.00000000000E+00 0. -1.
         -2    1    6    6    0  503  0.53336354322E+02  0.30730244500E+03 -0.66335700760E+02  0.31887299131E+03  0.00000000000E+00 0.  1.
<mgrwt>
<rscale>  0 0.11698649E+04</rscale>
<asrwt>0</asrwt>
<pdfrwt beam="1">  1        2 0.20511370E+00 0.11698649E+04</pdfrwt>
<pdfrwt beam="2">  1       -1 0.39481170E-01 0.11698649E+04</pdfrwt>
<totfact> 0.11106406E+02</totfact>
</mgrwt>
</event>
<event>
12    6  0.1402540E-007  0.1555635E+04  0.7818608E-02  0.8848277E-01
          2   -1    0    0  501    0  0.00000000000E+00  0.00000000000E+00  0.22967790822E+04  0.22967790822E+04  0.00000000000E+00 0. -1.
         -1   -1    0    0    0  501 -0.00000000000E+00 -0.00000000000E+00 -0.26341235303E+03  0.26341235303E+03  0.00000000000E+00 0.  1.
         24    2    1    2    0    0  0.34816653473E+03 -0.26917657940E+03  0.24044533141E+03  0.50658351437E+03  0.71672399316E+02 0.  0.
        254    2    1    2    0    0 -0.34816653473E+03  0.26917657940E+03  0.17929213977E+04  0.20536079208E+04  0.89947895320E+03 0.  0.
         23    2    4    4    0    0  0.25106976904E+03  0.24280520745E+03  0.94254289659E+03  0.10094015666E+04  0.92271410009E+02 0.  0.
         23    2    4    4    0    0 -0.59923630378E+03  0.26371371957E+02  0.85037850112E+03  0.10442063542E+04  0.86276983806E+02 0.  0.
          2    1    3    3  502    0  0.30692404045E+03 -0.20987239088E+03  0.21765046189E+03  0.43083698846E+03  0.00000000000E+00 0. -1.
         -1    1    3    3    0  502  0.41242494280E+02 -0.59304188523E+02  0.22794869517E+02  0.75746525908E+02  0.00000000000E+00 0.  1.
         11    1    5    5    0    0  0.25880330595E+03  0.23594677243E+03  0.90312821224E+03  0.96865401374E+03  0.00000000000E+00 0. -1.
        -11    1    5    5    0    0 -0.77335369038E+01  0.68584350197E+01  0.39414684345E+02  0.40747552883E+02  0.00000000000E+00 0.  1.
          2    1    6    6  503    0 -0.26421433102E+03  0.22643746407E+02  0.44799935073E+03  0.52060097025E+03  0.00000000000E+00 0. -1.
         -2    1    6    6    0  503 -0.33502197276E+03  0.37276255499E+01  0.40237915039E+03  0.52360538394E+03  0.00000000000E+00 0.  1.
<mgrwt>
<rscale>  0 0.15556349E+04</rscale>
<asrwt>0</asrwt>
<pdfrwt beam="1">  1        2 0.35335061E+00 0.15556349E+04</pdfrwt>
<pdfrwt beam="2">  1       -1 0.40524979E-01 0.15556349E+04</pdfrwt>
<totfact> 0.29707279E+01</totfact>
</mgrwt>
</event>
<event>
12    6  0.1402540E-007  0.2179592E+04  0.7818608E-02  0.8526970E-01
          2   -1    0    0  501    0  0.00000000000E+00  0.00000000000E+00  0.28871286461E+04  0.28871286461E+04  0.00000000000E+00 0. -1.
         -1   -1    0    0    0  501 -0.00000000000E+00 -0.00000000000E+00 -0.41136226270E+03  0.41136226270E+03  0.00000000000E+00 0.  1.
         24    2    1    2    0    0 -0.52398337106E+03  0.72878282660E+03  0.11541482169E+04  0.14642841624E+04  0.79918834543E+02 0.  0.
        254    2    1    2    0    0  0.52398337106E+03 -0.72878282660E+03  0.13216181665E+04  0.18342067464E+04  0.90108647145E+03 0.  0.
         23    2    4    4    0    0  0.70437905517E+03 -0.34963374344E+03  0.10910751101E+04  0.13479765541E+04  0.90566476140E+02 0.  0.
         23    2    4    4    0    0 -0.18039568411E+03 -0.37914908316E+03  0.23054305632E+03  0.48623019225E+03  0.83504903631E+02 0.  0.
          2    1    3    3  502    0 -0.61043113426E+02  0.12133973897E+03  0.20674981293E+03  0.24737639155E+03  0.00000000000E+00 0. -1.
         -1    1    3    3    0  502 -0.46294025764E+03  0.60744308763E+03  0.94739840399E+03  0.12169077708E+04  0.00000000000E+00 0.  1.
         11    1    5    5    0    0  0.10705516961E+03 -0.76454704426E+02  0.13971730534E+03  0.19190376906E+03  0.00000000000E+00 0. -1.
        -11    1    5    5    0    0  0.59732388556E+03 -0.27317903902E+03  0.95135780479E+03  0.11560727851E+04  0.00000000000E+00 0.  1.
          1    1    6    6  503    0 -0.75535403556E+00 -0.27037614875E+01  0.17758826873E+02  0.17979344199E+02  0.00000000000E+00 0. -1.
         -1    1    6    6    0  503 -0.17964033007E+03 -0.37644532167E+03  0.21278422945E+03  0.46825084805E+03  0.00000000000E+00 0.  1.
<mgrwt>
<rscale>  0 0.21795924E+04</rscale>
<asrwt>0</asrwt>
<pdfrwt beam="1">  1        2 0.44417363E+00 0.21795924E+04</pdfrwt>
<pdfrwt beam="2">  1       -1 0.63286504E-01 0.21795924E+04</pdfrwt>
<totfact> 0.54032813E+00</totfact>
</mgrwt>
</event>
<event>
12    6  0.1402540E-007  0.3633064E+04  0.7818608E-02  0.8082960E-01
          2   -1    0    0  501    0  0.00000000000E+00  0.00000000000E+00  0.27938949698E+04  0.27938949698E+04  0.00000000000E+00 0. -1.
         -1   -1    0    0    0  501 -0.00000000000E+00 -0.00000000000E+00 -0.11810713541E+04  0.11810713541E+04  0.00000000000E+00 0.  1.
         24    2    1    2    0    0 -0.25146140488E+03  0.15720477174E+04  0.93030174406E+02  0.15967040342E+04  0.79008198704E+02 0.  0.
        254    2    1    2    0    0  0.25146140488E+03 -0.15720477174E+04  0.15197934413E+04  0.23782622897E+04  0.90099531112E+03 0.  0.
         23    2    4    4    0    0 -0.21810779886E+03 -0.95464110477E+03  0.52988657064E+03  0.11174085484E+04  0.94400399221E+02 0.  0.
         23    2    4    4    0    0  0.46956920375E+03 -0.61740661261E+03  0.98990687062E+03  0.12608537413E+04  0.90279466869E+02 0.  0.
          2    1    3    3  502    0 -0.10609399381E+03  0.43846781322E+03  0.24031949921E+02  0.45176043803E+03  0.00000000000E+00 0. -1.
         -1    1    3    3    0  502 -0.14536741107E+03  0.11335799042E+04  0.68998224485E+02  0.11449435961E+04  0.00000000000E+00 0.  1.
         11    1    5    5    0    0 -0.12879998523E+02 -0.23577273272E+03  0.12169635553E+03  0.26564013026E+03  0.00000000000E+00 0.  1.
        -11    1    5    5    0    0 -0.20522780034E+03 -0.71886837205E+03  0.40819021511E+03  0.85176841810E+03  0.00000000000E+00 0. -1.
          1    1    6    6  503    0  0.22754230500E+03 -0.25607566937E+03  0.37785062323E+03  0.51002092358E+03  0.00000000000E+00 0. -1.
         -1    1    6    6    0  503  0.24202689875E+03 -0.36133094324E+03  0.61205624739E+03  0.75083281776E+03  0.00000000000E+00 0.  1.
<mgrwt>
<rscale>  0 0.36330644E+04</rscale>
<asrwt>0</asrwt>
<pdfrwt beam="1">  1        2 0.42982999E+00 0.36330644E+04</pdfrwt>
<pdfrwt beam="2">  1       -1 0.18170329E+00 0.36330644E+04</pdfrwt>
<totfact> 0.43552214E-01</totfact>
</mgrwt>
</event>
<event>
12    6  0.1402540E-007  0.1955492E+04  0.7818608E-02  0.8627717E-01
         -1   -1    0    0    0  501 -0.00000000000E+00  0.00000000000E+00  0.64993518012E+03  0.64993518012E+03  0.00000000000E+00 0.  1.
          2   -1    0    0  501    0  0.00000000000E+00 -0.00000000000E+00 -0.14708960995E+04  0.14708960995E+04  0.00000000000E+00 0. -1.
         24    2    1    2    0    0  0.31924424307E+03 -0.69377374711E+03 -0.39717609530E+03  0.86736594501E+03  0.10647033850E+03 0.  0.
        254    2    1    2    0    0 -0.31924424307E+03  0.69377374711E+03 -0.42378482409E+03  0.12534653346E+04  0.89907890035E+03 0.  0.
         23    2    4    4    0    0 -0.18140158709E+03 -0.32854467513E+02  0.19560018753E+03  0.28420939264E+03  0.92355799302E+02 0.  0.
         23    2    4    4    0    0 -0.13784265597E+03  0.72662821463E+03 -0.61938501163E+03  0.96925594198E+03  0.93968762585E+02 0.  0.
          4    1    3    3  502    0  0.69794755929E+01 -0.95600411345E+02 -0.59445794659E+02  0.11279164079E+03  0.00000000000E+00 0. -1.
         -3    1    3    3    0  502  0.31226476747E+03 -0.59817333577E+03 -0.33773030064E+03  0.75457430423E+03  0.00000000000E+00 0.  1.
         11    1    5    5    0    0 -0.71772643555E+02 -0.24227054469E+02  0.14406074092E+03  0.16276289382E+03  0.00000000000E+00 0. -1.
        -11    1    5    5    0    0 -0.10962894354E+03 -0.86274130437E+01  0.51539446614E+02  0.12144649882E+03  0.00000000000E+00 0.  1.
          3    1    6    6  503    0 -0.13832072361E+03  0.56996941214E+03 -0.51916933033E+03  0.78328446104E+03  0.00000000000E+00 0. -1.
         -3    1    6    6    0  503  0.47806763328E+00  0.15665880248E+03 -0.10021568130E+03  0.18597148094E+03  0.00000000000E+00 0.  1.
<mgrwt>
<rscale>  0 0.19554919E+04</rscale>
<asrwt>0</asrwt>
<pdfrwt beam="1">  1        2 0.22629171E+00 0.19554919E+04</pdfrwt>
<pdfrwt beam="2">  1       -1 0.99990027E-01 0.19554919E+04</pdfrwt>
<totfact> 0.13354867E+01</totfact>
</mgrwt>
</event>
<event>
12    6  0.1402540E-007  0.1403704E+04  0.7818608E-02  0.8951142E-01
         -1   -1    0    0    0  501 -0.00000000000E+00  0.00000000000E+00  0.21433598742E+03  0.21433598742E+03  0.00000000000E+00 0.  1.
          2   -1    0    0  501    0  0.00000000000E+00 -0.00000000000E+00 -0.22982422079E+04  0.22982422079E+04  0.00000000000E+00 0. -1.
         24    2    1    2    0    0 -0.30764189120E+03  0.25706926278E+03 -0.54909259786E+03  0.68476396861E+03  0.81675410033E+02 0.  0.
        254    2    1    2    0    0  0.30764189120E+03 -0.25706926278E+03 -0.15348136226E+04  0.18278142267E+04  0.90803295760E+03 0.  0.
         23    2    4    4    0    0 -0.74432735558E+02  0.14999364466E+03 -0.13109218424E+01  0.19323928176E+03  0.96443641245E+02 0.  0.
         23    2    4    4    0    0  0.38207462676E+03 -0.40706290744E+03 -0.15335027008E+04  0.16345749450E+04  0.92322729247E+02 0.  0.
          2    1    3    3  502    0 -0.13640530451E+03  0.16195504591E+03 -0.31461822476E+03  0.37923669567E+03  0.00000000000E+00 0. -1.
         -1    1    3    3    0  502 -0.17123658669E+03  0.95114216868E+02 -0.23447437310E+03  0.30552727294E+03  0.00000000000E+00 0.  1.
         11    1    5    5    0    0 -0.74458705208E+02  0.45432397249E+02  0.11163748859E+02  0.87936515678E+02  0.00000000000E+00 0. -1.
        -11    1    5    5    0    0  0.25969649630E-01  0.10456124741E+03 -0.12474670702E+02  0.10530276608E+03  0.00000000000E+00 0.  1.
          1    1    6    6  503    0  0.10678309144E+03 -0.85582065177E+02 -0.48309993500E+03  0.50210802194E+03  0.00000000000E+00 0. -1.
         -1    1    6    6    0  503  0.27529153532E+03 -0.32148084227E+03 -0.10504027658E+04  0.11324669230E+04  0.00000000000E+00 0.  1.
<mgrwt>
<rscale>  0 0.14037037E+04</rscale>
<asrwt>0</asrwt>
<pdfrwt beam="1">  1        2 0.35357573E+00 0.14037037E+04</pdfrwt>
<pdfrwt beam="2">  1       -1 0.32974766E-01 0.14037037E+04</pdfrwt>
<totfact> 0.43565181E+01</totfact>
</mgrwt>
</event>
<event>
12    6  0.1402540E-007  0.1633313E+04  0.7818608E-02  0.8800340E-01
         -1   -1    0    0    0  501 -0.00000000000E+00  0.00000000000E+00  0.23174845856E+03  0.23174845856E+03  0.00000000000E+00 0.  1.
          2   -1    0    0  501    0  0.00000000000E+00 -0.00000000000E+00 -0.28778077816E+04  0.28778077816E+04  0.00000000000E+00 0. -1.
         24    2    1    2    0    0  0.94809482122E+02  0.55116802627E+03 -0.10818096809E+04  0.12203386988E+04  0.78353831471E+02 0.  0.
        254    2    1    2    0    0 -0.94809482122E+02 -0.55116802627E+03 -0.15642496422E+04  0.18892175414E+04  0.89971714708E+03 0.  0.
         23    2    4    4    0    0 -0.30931955551E+03 -0.26111819471E+03 -0.14387823934E+04  0.14974911437E+04  0.92323620186E+02 0.  0.
         23    2    4    4    0    0  0.21451007339E+03 -0.29004983157E+03 -0.12546724875E+03  0.39172639773E+03  0.86971626355E+02 0.  0.
          4    1    3    3  502    0  0.79576209446E+02  0.30233161697E+03 -0.66149824758E+03  0.73165340926E+03  0.00000000000E+00 0. -1.
         -1    1    3    3    0  502  0.15233272677E+02  0.24883640930E+03 -0.42031143334E+03  0.48868528951E+03  0.00000000000E+00 0.  1.
         11    1    5    5    0    0 -0.21910944830E+03 -0.22750540291E+03 -0.10200092820E+04  0.10677952023E+04  0.00000000000E+00 0. -1.
        -11    1    5    5    0    0 -0.90210107214E+02 -0.33612791791E+02 -0.41877311140E+03  0.42969594139E+03  0.00000000000E+00 0.  1.
          1    1    6    6  503    0  0.42820875786E+02 -0.22752744584E+02  0.40356796409E+01  0.48658005501E+02  0.00000000000E+00 0. -1.
         -1    1    6    6    0  503  0.17168919760E+03 -0.26729708699E+03 -0.12950292840E+03  0.34306839223E+03  0.00000000000E+00 0.  1.
<mgrwt>
<rscale>  0 0.16333126E+04</rscale>
<asrwt>0</asrwt>
<pdfrwt beam="1">  1        2 0.44273965E+00 0.16333126E+04</pdfrwt>
<pdfrwt beam="2">  1       -1 0.35653610E-01 0.16333126E+04</pdfrwt>
<totfact> 0.17024884E+01</totfact>
</mgrwt>
</event>
<event>
12    6  0.1402540E-007  0.2330579E+04  0.7818608E-02  0.8465961E-01
         -1   -1    0    0    0  501 -0.00000000000E+00  0.00000000000E+00  0.59135202872E+03  0.59135202872E+03  0.00000000000E+00 0.  1.
          2   -1    0    0  501    0  0.00000000000E+00 -0.00000000000E+00 -0.22962623478E+04  0.22962623478E+04  0.00000000000E+00 0. -1.
         24    2    1    2    0    0 -0.45546159596E+03 -0.87083083881E+03 -0.59230042525E+03  0.11501788327E+04  0.79372149534E+02 0.  0.
        254    2    1    2    0    0  0.45546159596E+03  0.87083083881E+03 -0.11126098938E+04  0.17374355438E+04  0.90276789816E+03 0.  0.
         23    2    4    4    0    0  0.17742834810E+03 -0.16067522232E+03 -0.15340517571E+03  0.29871954403E+03  0.91667182127E+02 0.  0.
         23    2    4    4    0    0  0.27803324786E+03  0.10315060611E+04 -0.95920471810E+03  0.14387159998E+04  0.92318989233E+02 0.  0.
          4    1    3    3  502    0 -0.24323280892E+03 -0.52601250063E+03 -0.37998331935E+03  0.69299254912E+03  0.00000000000E+00 0. -1.
         -3    1    3    3    0  502 -0.21222878704E+03 -0.34481833818E+03 -0.21231710589E+03  0.45718628353E+03  0.00000000000E+00 0.  1.
         11    1    5    5    0    0  0.50949969621E+02  0.11046504905E+01 -0.29658149488E+02  0.58963764196E+02  0.00000000000E+00 0.  1.
        -11    1    5    5    0    0  0.12647837847E+03 -0.16177987281E+03 -0.12374702622E+03  0.23975577984E+03  0.00000000000E+00 0. -1.
          2    1    6    6  503    0  0.16488684276E+03  0.55393870647E+03 -0.57679684248E+03  0.81653558338E+03  0.00000000000E+00 0. -1.
         -2    1    6    6    0  503  0.11314640510E+03  0.47756735466E+03 -0.38240787562E+03  0.62218041641E+03  0.00000000000E+00 0.  1.
<mgrwt>
<rscale>  0 0.23305788E+04</rscale>
<asrwt>0</asrwt>
<pdfrwt beam="1">  1        2 0.35327113E+00 0.23305788E+04</pdfrwt>
<pdfrwt beam="2">  1       -1 0.90977235E-01 0.23305788E+04</pdfrwt>
<totfact> 0.55280967E+00</totfact>
</mgrwt>
</event>
<event>
12    6  0.1402540E-007  0.1429719E+04  0.7818608E-02  0.8932583E-01
         -1   -1    0    0    0  501 -0.00000000000E+00  0.00000000000E+00  0.23757821265E+03  0.23757821265E+03  0.00000000000E+00 0.  1.
          2   -1    0    0  501    0  0.00000000000E+00 -0.00000000000E+00 -0.21509714765E+04  0.21509714765E+04  0.00000000000E+00 0. -1.
         24    2    1    2    0    0  0.26070000483E+03 -0.29343125222E+02 -0.11369824826E+04  0.11693276546E+04  0.75976882980E+02 0.  0.
        254    2    1    2    0    0 -0.26070000483E+03  0.29343125222E+02 -0.77641078127E+03  0.12192220345E+04  0.90269771053E+03 0.  0.
         23    2    4    4    0    0  0.11257386042E+03 -0.10138390932E+03  0.13444917582E+03  0.22234240252E+03  0.91695103255E+02 0.  0.
         23    2    4    4    0    0 -0.37327386525E+03  0.13072703454E+03 -0.91085995709E+03  0.99687963197E+03  0.87636768301E+02 0.  0.
          2    1    3    3  502    0  0.85615580286E+02 -0.27373138538E+02 -0.53107238389E+03  0.53862528091E+03  0.00000000000E+00 0. -1.
         -3    1    3    3    0  502  0.17508442455E+03 -0.19699866837E+01 -0.60591009866E+03  0.63070237373E+03  0.00000000000E+00 0.  1.
         11    1    5    5    0    0  0.30961734419E+02 -0.16722327710E+02  0.89990187662E+02  0.96625561410E+02  0.00000000000E+00 0.  1.
        -11    1    5    5    0    0  0.81612126001E+02 -0.84661581609E+02  0.44458988162E+02  0.12571684111E+03  0.00000000000E+00 0. -1.
          3    1    6    6  503    0 -0.12578512819E+03  0.88100214755E+02 -0.36718825832E+03  0.39800849660E+03  0.00000000000E+00 0. -1.
         -3    1    6    6    0  503 -0.24748873706E+03  0.42626819787E+02 -0.54367169877E+03  0.59887113537E+03  0.00000000000E+00 0.  1.
<mgrwt>
<rscale>  0 0.14297188E+04</rscale>
<asrwt>0</asrwt>
<pdfrwt beam="1">  1        2 0.33091870E+00 0.14297188E+04</pdfrwt>
<pdfrwt beam="2">  1       -1 0.36550493E-01 0.14297188E+04</pdfrwt>
<totfact> 0.43734211E+01</totfact>
</mgrwt>
</event>
<event>
12    6  0.1402540E-007  0.3478880E+04  0.7818608E-02  0.8118813E-01
         -1   -1    0    0    0  501 -0.00000000000E+00  0.00000000000E+00  0.91597019269E+03  0.91597019269E+03  0.00000000000E+00 0.  1.
          2   -1    0    0  501    0  0.00000000000E+00 -0.00000000000E+00 -0.33032206203E+04  0.33032206203E+04  0.00000000000E+00 0. -1.
         24    2    1    2    0    0  0.54869066243E+03 -0.15157316194E+04 -0.89764820427E+03  0.18467789046E+04  0.79474766455E+02 0.  0.
        254    2    1    2    0    0 -0.54869066243E+03  0.15157316194E+04 -0.14896022234E+04  0.23724119084E+04  0.90051079633E+03 0.  0.
         23    2    4    4    0    0 -0.30740227550E+03  0.98314687477E+03 -0.35636483011E+03  0.10937763128E+04  0.90976886564E+02 0.  0.
         23    2    4    4    0    0 -0.24128838693E+03  0.53258474466E+03 -0.11332373932E+04  0.12786355957E+04  0.93890367688E+02 0.  0.
          2    1    3    3  502    0  0.52236280668E+02 -0.21104600161E+03 -0.10425033466E+03  0.24111651973E+03  0.00000000000E+00 0. -1.
         -1    1    3    3    0  502  0.49645438177E+03 -0.13046856178E+04 -0.79339786961E+03  0.16056623848E+04  0.00000000000E+00 0.  1.
         11    1    5    5    0    0 -0.26196457799E+03  0.91814392539E+03 -0.32921575953E+03  0.10099488721E+04  0.00000000000E+00 0. -1.
        -11    1    5    5    0    0 -0.45437697510E+02  0.65002949386E+02 -0.27149070579E+02  0.83827440717E+02  0.00000000000E+00 0.  1.
          1    1    6    6  503    0 -0.18196804592E+03  0.30525925333E+03 -0.63185471967E+03  0.72493859619E+03  0.00000000000E+00 0. -1.
         -1    1    6    6    0  503 -0.59320341012E+02  0.22732549133E+03 -0.50138267358E+03  0.55369699948E+03  0.00000000000E+00 0.  1.
<mgrwt>
<rscale>  0 0.34788801E+04</rscale>
<asrwt>0</asrwt>
<pdfrwt beam="1">  1        2 0.50818778E+00 0.34788801E+04</pdfrwt>
<pdfrwt beam="2">  1       -1 0.14091849E+00 0.34788801E+04</pdfrwt>
<totfact> 0.42625253E-01</totfact>
</mgrwt>
</event>
<event>
12    6  0.1402540E-007  0.3169123E+04  0.7818608E-02  0.8197020E-01
         -1   -1    0    0    0  501 -0.00000000000E+00  0.00000000000E+00  0.16503684581E+04  0.16503684581E+04  0.00000000000E+00 0.  1.
          2   -1    0    0  501    0  0.00000000000E+00 -0.00000000000E+00 -0.15213783434E+04  0.15213783434E+04  0.00000000000E+00 0. -1.
         24    2    1    2    0    0  0.13627063632E+04  0.35876654611E+03  0.42363091505E+03  0.14735855734E+04  0.79430616072E+02 0.  0.
        254    2    1    2    0    0 -0.13627063632E+04 -0.35876654611E+03 -0.29464080037E+03  0.16981612282E+04  0.90069766769E+03 0.  0.
         23    2    4    4    0    0 -0.13046799921E+04 -0.10719654219E+03 -0.22787864586E+02  0.13125228896E+04  0.92282547554E+02 0.  0.
         23    2    4    4    0    0 -0.58026371145E+02 -0.25157000392E+03 -0.27185293579E+03  0.38563833854E+03  0.90323766723E+02 0.  0.
          2    1    3    3  502    0  0.90509435026E+03  0.19929479250E+03  0.27798600317E+03  0.96756933351E+03  0.00000000000E+00 0. -1.
         -1    1    3    3    0  502  0.45761201299E+03  0.15947175361E+03  0.14564491188E+03  0.50601623984E+03  0.00000000000E+00 0.  1.
         11    1    5    5    0    0 -0.11701152687E+04 -0.88573770526E+02  0.68378425109E+01  0.11734827697E+04  0.00000000000E+00 0.  1.
        -11    1    5    5    0    0 -0.13456472345E+03 -0.18622771662E+02 -0.29625707097E+02  0.13904011990E+03  0.00000000000E+00 0. -1.
          1    1    6    6  503    0  0.11572544817E+02 -0.16747669227E+01 -0.30616516584E+01  0.12087280449E+02  0.00000000000E+00 0. -1.
         -1    1    6    6    0  503 -0.69598915962E+02 -0.24989523700E+03 -0.26879128413E+03  0.37355105809E+03  0.00000000000E+00 0.  1.
<mgrwt>
<rscale>  0 0.31691228E+04</rscale>
<asrwt>0</asrwt>
<pdfrwt beam="1">  1        2 0.23405821E+00 0.31691228E+04</pdfrwt>
<pdfrwt beam="2">  1       -1 0.25390284E+00 0.31691228E+04</pdfrwt>
<totfact> 0.78013135E-01</totfact>
</mgrwt>
</event>
<event>
12    6  0.1402540E-007  0.1270870E+04  0.7818608E-02  0.9052990E-01
         -1   -1    0    0    0  501 -0.00000000000E+00  0.00000000000E+00  0.58257930774E+03  0.58257930774E+03  0.00000000000E+00 0.  1.
          2   -1    0    0  501    0  0.00000000000E+00 -0.00000000000E+00 -0.69308571275E+03  0.69308571275E+03  0.00000000000E+00 0. -1.
         24    2    1    2    0    0  0.18965379486E+03  0.15372742982E+03  0.16526346614E+03  0.30497920727E+03  0.78100057885E+02 0.  0.
        254    2    1    2    0    0 -0.18965379486E+03 -0.15372742982E+03 -0.27576987115E+03  0.97068581322E+03  0.89809868142E+03 0.  0.
         23    2    4    4    0    0 -0.24834839667E+03 -0.35148314281E+03 -0.49287290575E+03  0.66050001585E+03  0.90106847189E+02 0.  0.
         23    2    4    4    0    0  0.58694601805E+02  0.19775571300E+03  0.21710303460E+03  0.31018579737E+03  0.80802988504E+02 0.  0.
          4    1    3    3  502    0  0.22607184314E+02  0.41523214684E+02  0.46460833210E+01  0.47506296746E+02  0.00000000000E+00 0. -1.
         -3    1    3    3    0  502  0.16704661055E+03  0.11220421513E+03  0.16061738282E+03  0.25747291052E+03  0.00000000000E+00 0.  1.
         11    1    5    5    0    0 -0.44406965033E+02 -0.20175278144E+02 -0.37225302051E+02  0.61357505690E+02  0.00000000000E+00 0. -1.
        -11    1    5    5    0    0 -0.20394143163E+03 -0.33130786467E+03 -0.45564760370E+03  0.59914251016E+03  0.00000000000E+00 0.  1.
          4    1    6    6  503    0  0.66594799359E+02  0.92601005957E+02  0.91790451801E+02  0.14640799380E+03  0.00000000000E+00 0. -1.
         -4    1    6    6    0  503 -0.79001975539E+01  0.10515470704E+03  0.12531258280E+03  0.16377780357E+03  0.00000000000E+00 0.  1.
<mgrwt>
<rscale>  0 0.12708696E+04</rscale>
<asrwt>0</asrwt>
<pdfrwt beam="1">  1        2 0.10662857E+00 0.12708696E+04</pdfrwt>
<pdfrwt beam="2">  1       -1 0.89627586E-01 0.12708696E+04</pdfrwt>
<totfact> 0.56771879E+01</totfact>
</mgrwt>
</event>
<event>
12    6  0.1402540E-007  0.1806046E+04  0.7818608E-02  0.8703091E-01
          2   -1    0    0  501    0  0.00000000000E+00  0.00000000000E+00  0.17754016180E+04  0.17754016180E+04  0.00000000000E+00 0. -1.
         -1   -1    0    0    0  501 -0.00000000000E+00 -0.00000000000E+00 -0.45930478345E+03  0.45930478345E+03  0.00000000000E+00 0.  1.
         24    2    1    2    0    0 -0.47155986309E+03 -0.48277593175E+03  0.54432668796E+03  0.87093111383E+03  0.82390272828E+02 0.  0.
        254    2    1    2    0    0  0.47155986309E+03  0.48277593175E+03  0.77177014663E+03  0.13637752877E+04  0.89934007541E+03 0.  0.
         23    2    4    4    0    0  0.28847449622E+03  0.59878839937E+03  0.13395962284E+03  0.68416238883E+03  0.91476289480E+02 0.  0.
         23    2    4    4    0    0  0.18308536687E+03 -0.11601246763E+03  0.63781052378E+03  0.67961289882E+03  0.89957121982E+02 0.  0.
          4    1    3    3  502    0 -0.18749327924E+03 -0.22983853731E+03  0.27868688390E+03  0.40699614526E+03  0.00000000000E+00 0. -1.
         -3    1    3    3    0  502 -0.28406658385E+03 -0.25293739443E+03  0.26563980405E+03  0.46393496857E+03  0.00000000000E+00 0.  1.
         11    1    5    5    0    0  0.25858421399E+02  0.10061040592E+03 -0.53850967851E+01  0.10401976257E+03  0.00000000000E+00 0.  1.
        -11    1    5    5    0    0  0.26261607482E+03  0.49817799345E+03  0.13934471963E+03  0.58014262626E+03  0.00000000000E+00 0. -1.
          1    1    6    6  503    0  0.18968189671E+03 -0.94731090891E+02  0.58758354745E+03  0.62466601217E+03  0.00000000000E+00 0. -1.
         -1    1    6    6    0  503 -0.65965298483E+01 -0.21281376737E+02  0.50226976332E+02  0.54946886657E+02  0.00000000000E+00 0.  1.
<mgrwt>
<rscale>  0 0.18060459E+04</rscale>
<asrwt>0</asrwt>
<pdfrwt beam="1">  1        2 0.27313871E+00 0.18060459E+04</pdfrwt>
<pdfrwt beam="2">  1       -1 0.70662275E-01 0.18060459E+04</pdfrwt>
<totfact> 0.19365510E+01</totfact>
</mgrwt>
</event>
<event>
12    6  0.1402540E-007  0.2507908E+04  0.7818608E-02  0.8400174E-01
          2   -1    0    0  501    0  0.00000000000E+00  0.00000000000E+00  0.21728100063E+04  0.21728100063E+04  0.00000000000E+00 0. -1.
         -1   -1    0    0    0  501 -0.00000000000E+00 -0.00000000000E+00 -0.72367175174E+03  0.72367175174E+03  0.00000000000E+00 0.  1.
         24    2    1    2    0    0  0.93527592060E+03  0.27685722648E+03  0.68204610356E+02  0.98110896337E+03  0.80820527259E+02 0.  0.
        254    2    1    2    0    0 -0.93527592060E+03 -0.27685722648E+03  0.13809336442E+04  0.19153727947E+04  0.90015789801E+03 0.  0.
         23    2    4    4    0    0 -0.38612614601E-01 -0.12408982601E+03 -0.74436375747E+02  0.17621258048E+03  0.10055751128E+03 0.  0.
         23    2    4    4    0    0 -0.93523730798E+03 -0.15276740047E+03  0.14553700199E+04  0.17391602142E+04  0.92572429827E+02 0.  0.
          4    1    3    3  502    0  0.38549342904E+03  0.79224760644E+02  0.48767895452E+02  0.39656027809E+03  0.00000000000E+00 0. -1.
         -3    1    3    3    0  502  0.54978249156E+03  0.19763246584E+03  0.19436714904E+02  0.58454868528E+03  0.00000000000E+00 0.  1.
         11    1    5    5    0    0  0.28629938348E+02  0.33885275109E+01 -0.99064305666E+01  0.30484305061E+02  0.00000000000E+00 0.  1.
        -11    1    5    5    0    0 -0.28668550962E+02 -0.12747835352E+03 -0.64529945180E+02  0.14572827542E+03  0.00000000000E+00 0. -1.
          1    1    6    6  503    0 -0.43681422442E+03 -0.56672789092E+02  0.59652620701E+03  0.74152679475E+03  0.00000000000E+00 0.  1.
         -1    1    6    6    0  503 -0.49842308356E+03 -0.96094611376E+02  0.85884381293E+03  0.99763341943E+03  0.00000000000E+00 0. -1.
<mgrwt>
<rscale>  0 0.25079085E+04</rscale>
<asrwt>0</asrwt>
<pdfrwt beam="1">  1        2 0.33427846E+00 0.25079085E+04</pdfrwt>
<pdfrwt beam="2">  1       -1 0.11133412E+00 0.25079085E+04</pdfrwt>
<totfact> 0.40219287E+00</totfact>
</mgrwt>
</event>
<event>
12    6  0.1402540E-007  0.2057866E+04  0.7818608E-02  0.8580034E-01
         -1   -1    0    0    0  501 -0.00000000000E+00  0.00000000000E+00  0.30193849216E+03  0.30193849216E+03  0.00000000000E+00 0.  1.
          2   -1    0    0  501    0  0.00000000000E+00 -0.00000000000E+00 -0.35063551856E+04  0.35063551856E+04  0.00000000000E+00 0. -1.
         24    2    1    2    0    0 -0.17605655469E+03 -0.32280076254E+03 -0.26689941960E+04  0.26953985572E+04  0.80293966192E+02 0.  0.
        254    2    1    2    0    0  0.17605655469E+03  0.32280076254E+03 -0.53542249739E+03  0.11128951205E+04  0.90369356301E+03 0.  0.
         23    2    4    4    0    0  0.26261501023E+03 -0.22078624609E+03 -0.40715720515E+03  0.54042907937E+03  0.92592602640E+02 0.  0.
         23    2    4    4    0    0 -0.86558455544E+02  0.54358700863E+03 -0.12826529224E+03  0.57246604115E+03  0.91028462025E+02 0.  0.
          2    1    3    3  502    0 -0.18319943608E+03 -0.30098625337E+03 -0.25478084653E+04  0.25720580736E+04  0.00000000000E+00 0. -1.
         -1    1    3    3    0  502  0.71428813878E+01 -0.21814509174E+02 -0.12118573077E+03  0.12334048366E+03  0.00000000000E+00 0.  1.
         11    1    5    5    0    0  0.20836171487E+03 -0.12097767277E+03 -0.29359862235E+03  0.37980304446E+03  0.00000000000E+00 0.  1.
        -11    1    5    5    0    0  0.54253295364E+02 -0.99808573315E+02 -0.11355858280E+03  0.16062603491E+03  0.00000000000E+00 0. -1.
          1    1    6    6  503    0 -0.56330175398E+01  0.21241177624E+03 -0.14158672060E+02  0.21295765205E+03  0.00000000000E+00 0. -1.
         -1    1    6    6    0  503 -0.80925438004E+02  0.33117523239E+03 -0.11410662018E+03  0.35950838910E+03  0.00000000000E+00 0.  1.
<mgrwt>
<rscale>  0 0.20578665E+04</rscale>
<asrwt>0</asrwt>
<pdfrwt beam="1">  1        2 0.53943926E+00 0.20578665E+04</pdfrwt>
<pdfrwt beam="2">  1       -1 0.46452076E-01 0.20578665E+04</pdfrwt>
<totfact> 0.39273167E+00</totfact>
</mgrwt>
</event>
<event>
12    6  0.1402540E-007  0.2369017E+04  0.7818608E-02  0.8451195E-01
         -1   -1    0    0    0  501 -0.00000000000E+00  0.00000000000E+00  0.71979765067E+03  0.71979765067E+03  0.00000000000E+00 0.  1.
          2   -1    0    0  501    0  0.00000000000E+00 -0.00000000000E+00 -0.19492431481E+04  0.19492431481E+04  0.00000000000E+00 0. -1.
         24    2    1    2    0    0  0.91748322086E+03 -0.24407586262E+03 -0.13283765189E+03  0.96200392151E+03  0.80356804077E+02 0.  0.
        254    2    1    2    0    0 -0.91748322086E+03  0.24407586262E+03 -0.10966078455E+04  0.17070368772E+04  0.90004313568E+03 0.  0.
         23    2    4    4    0    0 -0.87424607790E+03  0.46307457813E+03 -0.10786660299E+04  0.14665612385E+04  0.92396929223E+02 0.  0.
         23    2    4    4    0    0 -0.43237142969E+02 -0.21899871550E+03 -0.17941815559E+02  0.24047563871E+03  0.87616985472E+02 0.  0.
          4    1    3    3  502    0  0.22992419517E+03 -0.25903420360E+02 -0.37121765739E+02  0.23433767986E+03  0.00000000000E+00 0. -1.
         -3    1    3    3    0  502  0.68755902570E+03 -0.21817244226E+03 -0.95715886149E+02  0.72766624165E+03  0.00000000000E+00 0.  1.
         11    1    5    5    0    0 -0.62280653287E+03  0.32358550576E+03 -0.70183438965E+03  0.99255582584E+03  0.00000000000E+00 0.  1.
        -11    1    5    5    0    0 -0.25143954503E+03  0.13948907237E+03 -0.37683164029E+03  0.47400541267E+03  0.00000000000E+00 0. -1.
          3    1    6    6  503    0 -0.63627458787E+02 -0.16804775989E+03  0.77989938485E+01  0.17985918776E+03  0.00000000000E+00 0. -1.
         -3    1    6    6    0  503  0.20390315818E+02 -0.50950955608E+02 -0.25740809408E+02  0.60616450948E+02  0.00000000000E+00 0.  1.
<mgrwt>
<rscale>  0 0.23690172E+04</rscale>
<asrwt>0</asrwt>
<pdfrwt beam="1">  1        2 0.29988356E+00 0.23690172E+04</pdfrwt>
<pdfrwt beam="2">  1       -1 0.11073810E+00 0.23690172E+04</pdfrwt>
<totfact> 0.54949093E+00</totfact>
</mgrwt>
</event>
<event>
12    6  0.1402540E-007  0.1425499E+04  0.7818608E-02  0.8935565E-01
         -1   -1    0    0    0  501 -0.00000000000E+00  0.00000000000E+00  0.15238986352E+03  0.15238986352E+03  0.00000000000E+00 0.  1.
          2   -1    0    0  501    0  0.00000000000E+00 -0.00000000000E+00 -0.33336320077E+04  0.33336320077E+04  0.00000000000E+00 0. -1.
         24    2    1    2    0    0  0.29515454157E+02  0.33773739226E+03 -0.15094646610E+04  0.15491270390E+04  0.79833025672E+02 0.  0.
        254    2    1    2    0    0 -0.29515454157E+02 -0.33773739226E+03 -0.16717774831E+04  0.19368948322E+04  0.91748783624E+03 0.  0.
         23    2    4    4    0    0  0.59969368405E+02 -0.35966794217E+03 -0.17462762642E+04  0.17866640662E+04  0.98642488103E+02 0.  0.
         23    2    4    4    0    0 -0.89484822562E+02  0.21930549917E+02  0.74498781095E+02  0.15023076604E+03  0.92361962899E+02 0.  0.
          4    1    3    3  502    0 -0.23574625213E+02  0.12649219342E+03 -0.48627705342E+03  0.50301233646E+03  0.00000000000E+00 0. -1.
         -3    1    3    3    0  502  0.53090079370E+02  0.21124519884E+03 -0.10231876076E+04  0.10461147025E+04  0.00000000000E+00 0.  1.
         11    1    5    5    0    0  0.72493829984E+02 -0.30809191925E+03 -0.16012540588E+04  0.16322348320E+04  0.00000000000E+00 0. -1.
        -11    1    5    5    0    0 -0.12524461579E+02 -0.51576022930E+02 -0.14502220544E+03  0.15442923411E+03  0.00000000000E+00 0.  1.
          3    1    6    6  503    0 -0.97967522497E+02  0.32835478448E+02  0.84251448320E+02  0.13331958091E+03  0.00000000000E+00 0. -1.
         -3    1    6    6    0  503  0.84826999349E+01 -0.10904928532E+02 -0.97526672254E+01  0.16911185129E+02  0.00000000000E+00 0.  1.
<mgrwt>
<rscale>  0 0.14254988E+04</rscale>
<asrwt>0</asrwt>
<pdfrwt beam="1">  1        2 0.51286644E+00 0.14254988E+04</pdfrwt>
<pdfrwt beam="2">  1       -1 0.23444595E-01 0.14254988E+04</pdfrwt>
<totfact> 0.18542112E+01</totfact>
</mgrwt>
</event>
<event>
12    6  0.1402540E-007  0.2668072E+04  0.7818608E-02  0.8345440E-01
          2   -1    0    0  501    0  0.00000000000E+00  0.00000000000E+00  0.17144338502E+04  0.17144338502E+04  0.00000000000E+00 0. -1.
         -1   -1    0    0    0  501 -0.00000000000E+00 -0.00000000000E+00 -0.10380403354E+04  0.10380403354E+04  0.00000000000E+00 0.  1.
         24    2    1    2    0    0  0.22372905276E+03  0.11062014377E+04  0.65452954837E+03  0.13071644894E+04  0.80831693990E+02 0.  0.
        254    2    1    2    0    0 -0.22372905276E+03 -0.11062014377E+04  0.21863966406E+02  0.14453096963E+04  0.90261053356E+03 0.  0.
         23    2    4    4    0    0  0.14331468423E+03 -0.10098122114E+04 -0.11384139044E+03  0.10303473214E+04  0.91629360055E+02 0.  0.
         23    2    4    4    0    0 -0.36704373699E+03 -0.96389226330E+02  0.13570535685E+03  0.41496237485E+03  0.98822268983E+02 0.  0.
          4    1    3    3  502    0  0.78816542693E+02  0.30759995120E+03  0.14708976705E+03  0.34995024925E+03  0.00000000000E+00 0. -1.
         -3    1    3    3    0  502  0.14491251007E+03  0.79860148652E+03  0.50743978132E+03  0.95721424013E+03  0.00000000000E+00 0.  1.
         11    1    5    5    0    0 -0.63531649181E+00 -0.71617717850E+02 -0.29417228544E+02  0.77426574716E+02  0.00000000000E+00 0. -1.
        -11    1    5    5    0    0  0.14395000072E+03 -0.93819449353E+03 -0.84424161899E+02  0.95292074671E+03  0.00000000000E+00 0.  1.
          1    1    6    6  503    0 -0.15376045640E+02 -0.30260704764E+02  0.67772906930E+01  0.34613071252E+02  0.00000000000E+00 0. -1.
         -1    1    6    6    0  503 -0.35166769135E+03 -0.66128521566E+02  0.12892806616E+03  0.38034930360E+03  0.00000000000E+00 0.  1.
<mgrwt>
<rscale>  0 0.26680716E+04</rscale>
<asrwt>0</asrwt>
<pdfrwt beam="1">  1        2 0.26375905E+00 0.26680716E+04</pdfrwt>
<pdfrwt beam="2">  1       -1 0.15969851E+00 0.26680716E+04</pdfrwt>
<totfact> 0.28320767E+00</totfact>
</mgrwt>
</event>
<event>
12    6  0.1402540E-007  0.1836645E+04  0.7818608E-02  0.8687051E-01
         -1   -1    0    0    0  501 -0.00000000000E+00  0.00000000000E+00  0.51864626933E+03  0.51864626933E+03  0.00000000000E+00 0.  1.
          2   -1    0    0  501    0  0.00000000000E+00 -0.00000000000E+00 -0.16259951104E+04  0.16259951104E+04  0.00000000000E+00 0. -1.
         24    2    1    2    0    0  0.14904382862E+03  0.61956794568E+03 -0.74282133096E+03  0.98177664545E+03  0.77610241893E+02 0.  0.
        254    2    1    2    0    0 -0.14904382862E+03 -0.61956794568E+03 -0.36452751011E+03  0.11628647343E+04  0.90182902063E+03 0.  0.
         23    2    4    4    0    0 -0.82368820815E+02 -0.79563750729E+03 -0.46877259149E+03  0.93154477139E+03  0.90577331195E+02 0.  0.
         23    2    4    4    0    0 -0.66675007809E+02  0.17606956160E+03  0.10424508138E+03  0.23131996290E+03  0.84828303378E+02 0.  0.
          4    1    3    3  502    0  0.47967465851E+02  0.10574219618E+03 -0.16753156704E+03  0.20383600219E+03  0.00000000000E+00 0. -1.
         -3    1    3    3    0  502  0.10107636277E+03  0.51382574950E+03 -0.57528976393E+03  0.77794064326E+03  0.00000000000E+00 0.  1.
         11    1    5    5    0    0 -0.29057449174E+02 -0.83509936159E+02 -0.75658869449E+02  0.11637228758E+03  0.00000000000E+00 0. -1.
        -11    1    5    5    0    0 -0.53311371641E+02 -0.71212757113E+03 -0.39311372204E+03  0.81517248381E+03  0.00000000000E+00 0.  1.
          2    1    6    6  503    0  0.99130148228E+01  0.64882927118E+02  0.60856872125E+02  0.89507658773E+02  0.00000000000E+00 0. -1.
         -2    1    6    6    0  503 -0.76588022632E+02  0.11118663448E+03  0.43388209252E+02  0.14181230412E+03  0.00000000000E+00 0.  1.
<mgrwt>
<rscale>  0 0.18366451E+04</rscale>
<asrwt>0</asrwt>
<pdfrwt beam="1">  1        2 0.25015309E+00 0.18366451E+04</pdfrwt>
<pdfrwt beam="2">  1       -1 0.79791734E-01 0.18366451E+04</pdfrwt>
<totfact> 0.18139774E+01</totfact>
</mgrwt>
</event>
<event>
12    6  0.1402540E-007  0.2613591E+04  0.7818608E-02  0.8363599E-01
         -1   -1    0    0    0  501 -0.00000000000E+00  0.00000000000E+00  0.15068773956E+04  0.15068773956E+04  0.00000000000E+00 0.  1.
          2   -1    0    0  501    0  0.00000000000E+00 -0.00000000000E+00 -0.11332801541E+04  0.11332801541E+04  0.00000000000E+00 0. -1.
         24    2    1    2    0    0 -0.89450033447E+03  0.39497002244E+03 -0.44775194278E+03  0.10783835326E+04  0.79354106598E+02 0.  0.
        254    2    1    2    0    0  0.89450033447E+03 -0.39497002244E+03  0.82134918419E+03  0.15617740171E+04  0.89910590644E+03 0.  0.
         23    2    4    4    0    0  0.97487741854E+03 -0.54297835497E+03  0.77970173785E+03  0.13644511669E+04  0.92632131049E+02 0.  0.
         23    2    4    4    0    0 -0.80377084071E+02  0.14800833253E+03  0.41647446339E+02  0.19732285016E+03  0.93993910789E+02 0.  0.
          4    1    3    3  502    0 -0.61831871477E+03  0.26517888638E+03 -0.34716392393E+03  0.75707375130E+03  0.00000000000E+00 0. -1.
         -3    1    3    3    0  502 -0.27618161969E+03  0.12979113606E+03 -0.10058801884E+03  0.32130978135E+03  0.00000000000E+00 0.  1.
         11    1    5    5    0    0  0.88130317861E+03 -0.52009400587E+03  0.71692309843E+03  0.12494686057E+04  0.00000000000E+00 0.  1.
        -11    1    5    5    0    0  0.93574239929E+02 -0.22884349095E+02  0.62778639425E+02  0.11498256120E+03  0.00000000000E+00 0. -1.
          3    1    6    6  503    0 -0.91539120915E+02  0.73914001114E+02  0.20134323158E+02  0.11936532657E+03  0.00000000000E+00 0. -1.
         -3    1    6    6    0  503  0.11162036844E+02  0.74094331417E+02  0.21513123181E+02  0.77957523586E+02  0.00000000000E+00 0.  1.
<mgrwt>
<rscale>  0 0.26135908E+04</rscale>
<asrwt>0</asrwt>
<pdfrwt beam="1">  1        2 0.17435079E+00 0.26135908E+04</pdfrwt>
<pdfrwt beam="2">  1       -1 0.23182729E+00 0.26135908E+04</pdfrwt>
<totfact> 0.19212152E+00</totfact>
</mgrwt>
</event>
<event>
12    6  0.1402540E-007  0.2938957E+04  0.7818608E-02  0.8261380E-01
         -1   -1    0    0    0  501 -0.00000000000E+00  0.00000000000E+00  0.18607274963E+04  0.18607274963E+04  0.00000000000E+00 0.  1.
          2   -1    0    0  501    0  0.00000000000E+00 -0.00000000000E+00 -0.11604960299E+04  0.11604960299E+04  0.00000000000E+00 0. -1.
         24    2    1    2    0    0  0.13612332283E+03  0.11915000765E+04  0.91076232142E+03  0.15078708288E+04  0.77359155157E+02 0.  0.
        254    2    1    2    0    0 -0.13612332283E+03 -0.11915000765E+04 -0.21053085501E+03  0.15133526974E+04  0.89872751959E+03 0.  0.
         23    2    4    4    0    0  0.65106776066E+02 -0.11878478334E+04 -0.36168556215E+03  0.12462495392E+04  0.84262093914E+02 0.  0.
         23    2    4    4    0    0 -0.20123009890E+03 -0.36522430531E+01  0.15115470713E+03  0.26710315815E+03  0.89383779431E+02 0.  0.
          2    1    3    3  502    0  0.67602045571E+02  0.64999338108E+03  0.44848078521E+03  0.79258844725E+03  0.00000000000E+00 0. -1.
         -1    1    3    3    0  502  0.68521277259E+02  0.54150669541E+03  0.46228153621E+03  0.71528238153E+03  0.00000000000E+00 0.  1.
         11    1    5    5    0    0  0.43907446091E+02 -0.23387817664E+03 -0.85838897847E+02  0.25297268966E+03  0.00000000000E+00 0. -1.
        -11    1    5    5    0    0  0.21199329974E+02 -0.95396965680E+03 -0.27584666430E+03  0.99327684957E+03  0.00000000000E+00 0.  1.
          3    1    6    6  503    0 -0.28691110554E+02 -0.19041879957E+02 -0.38545592840E+01  0.34650117524E+02  0.00000000000E+00 0. -1.
         -3    1    6    6    0  503 -0.17253898834E+03  0.15389636904E+02  0.15500926642E+03  0.23245304063E+03  0.00000000000E+00 0.  1.
<mgrwt>
<rscale>  0 0.29389569E+04</rscale>
<asrwt>0</asrwt>
<pdfrwt beam="1">  1        2 0.17853785E+00 0.29389569E+04</pdfrwt>
<pdfrwt beam="2">  1       -1 0.28626577E+00 0.29389569E+04</pdfrwt>
<totfact> 0.79492422E-01</totfact>
</mgrwt>
</event>
<event>
12    6  0.1402540E-007  0.1581550E+04  0.7818608E-02  0.8831964E-01
          2   -1    0    0  501    0  0.00000000000E+00  0.00000000000E+00  0.10944288553E+04  0.10944288553E+04  0.00000000000E+00 0. -1.
         -1   -1    0    0    0  501 -0.00000000000E+00 -0.00000000000E+00 -0.57137093640E+03  0.57137093640E+03  0.00000000000E+00 0.  1.
         24    2    1    2    0    0 -0.31015457268E+03  0.41875625550E+03  0.66761304452E+02  0.53127562448E+03  0.79019345187E+02 0.  0.
        254    2    1    2    0    0  0.31015457268E+03 -0.41875625550E+03  0.45629661448E+03  0.11345241673E+04  0.89854650698E+03 0.  0.
         23    2    4    4    0    0 -0.85863265458E+02 -0.33542647657E+03  0.59696165177E+03  0.69640232551E+03  0.93432134473E+02 0.  0.
         23    2    4    4    0    0  0.39601783814E+03 -0.83329778938E+02 -0.14066503730E+03  0.43812184174E+03  0.91597572612E+02 0.  0.
          2    1    3    3  502    0 -0.53858628048E+02  0.97729436814E+02  0.43708283289E+02  0.11984243265E+03  0.00000000000E+00 0. -1.
         -1    1    3    3    0  502 -0.25629594464E+03  0.32102681869E+03  0.23053021162E+02  0.41143319183E+03  0.00000000000E+00 0.  1.
         11    1    5    5    0    0  0.14608656816E+02 -0.11329063917E+03  0.17209429324E+03  0.20655417581E+03  0.00000000000E+00 0.  1.
        -11    1    5    5    0    0 -0.10047192227E+03 -0.22213583739E+03  0.42486735853E+03  0.48984814970E+03  0.00000000000E+00 0. -1.
          1    1    6    6  503    0  0.95647682806E+02 -0.48585066461E+02 -0.69568280853E+01  0.10750528064E+03  0.00000000000E+00 0. -1.
         -1    1    6    6    0  503  0.30037015533E+03 -0.34744712477E+02 -0.13370820921E+03  0.33061656110E+03  0.00000000000E+00 0.  1.
<mgrwt>
<rscale>  0 0.15815497E+04</rscale>
<asrwt>0</asrwt>
<pdfrwt beam="1">  1        2 0.16837367E+00 0.15815497E+04</pdfrwt>
<pdfrwt beam="2">  1       -1 0.87903221E-01 0.15815497E+04</pdfrwt>
<totfact> 0.30607694E+01</totfact>
</mgrwt>
</event>
<event>
12    6  0.1402540E-007  0.3499337E+04  0.7818608E-02  0.8113947E-01
         -1   -1    0    0    0  501 -0.00000000000E+00  0.00000000000E+00  0.13649510929E+04  0.13649510929E+04  0.00000000000E+00 0.  1.
          2   -1    0    0  501    0  0.00000000000E+00 -0.00000000000E+00 -0.22428195576E+04  0.22428195576E+04  0.00000000000E+00 0. -1.
         24    2    1    2    0    0 -0.15808004544E+04  0.41786341144E+03 -0.33913352588E+03  0.16717834549E+04  0.79425841827E+02 0.  0.
        254    2    1    2    0    0  0.15808004544E+04 -0.41786341144E+03 -0.53873493884E+03  0.19359871956E+04  0.88559086487E+03 0.  0.
         23    2    4    4    0    0  0.74551750306E+03 -0.89542624966E+02  0.18573902916E+03  0.77874187319E+03  0.90142603998E+02 0.  0.
         23    2    4    4    0    0  0.83528295138E+03 -0.32832078647E+03 -0.72447396800E+03  0.11572453224E+04  0.94138505860E+02 0.  0.
          2    1    3    3  502    0 -0.96600868975E+03  0.24547360475E+03 -0.16827688438E+03  0.10108151112E+04  0.00000000000E+00 0. -1.
         -1    1    3    3    0  502 -0.61479176468E+03  0.17238980669E+03 -0.17085664150E+03  0.66096834366E+03  0.00000000000E+00 0.  1.
         11    1    5    5    0    0  0.58610522371E+03 -0.98114001841E+02  0.12089879130E+03  0.60643400989E+03  0.00000000000E+00 0.  1.
        -11    1    5    5    0    0  0.15941227935E+03  0.85713768749E+01  0.64840237860E+02  0.17230786330E+03  0.00000000000E+00 0. -1.
          1    1    6    6  503    0  0.73676307575E+02 -0.49203138446E+02 -0.46374030808E+02  0.99998489310E+02  0.00000000000E+00 0. -1.
         -1    1    6    6    0  503  0.76160664380E+03 -0.27911764803E+03 -0.67809993719E+03  0.10572468331E+04  0.00000000000E+00 0.  1.
<mgrwt>
<rscale>  0 0.34993365E+04</rscale>
<asrwt>0</asrwt>
<pdfrwt beam="1">  1        2 0.34504916E+00 0.34993365E+04</pdfrwt>
<pdfrwt beam="2">  1       -1 0.20999248E+00 0.34993365E+04</pdfrwt>
<totfact> 0.58675757E-01</totfact>
</mgrwt>
</event>
<event>
12    6  0.1402540E-007  0.3961710E+04  0.7818608E-02  0.8012316E-01
          2   -1    0    0  501    0  0.00000000000E+00  0.00000000000E+00  0.32247596203E+04  0.32247596203E+04  0.00000000000E+00 0. -1.
         -1   -1    0    0    0  501 -0.00000000000E+00 -0.00000000000E+00 -0.12167687046E+04  0.12167687046E+04  0.00000000000E+00 0.  1.
         24    2    1    2    0    0  0.70948269903E+03  0.28750632005E+03  0.28742882700E+04  0.29756232116E+04  0.82309500246E+02 0.  0.
        254    2    1    2    0    0 -0.70948269903E+03 -0.28750632005E+03 -0.86629735437E+03  0.14659051133E+04  0.90132186852E+03 0.  0.
         23    2    4    4    0    0 -0.66533077808E+03  0.34592720467E+02 -0.17275437936E+03  0.69436838414E+03  0.91878597742E+02 0.  0.
         23    2    4    4    0    0 -0.44151920941E+02 -0.32209904052E+03 -0.69354297501E+03  0.77153672915E+03  0.92573658312E+02 0.  0.
          4    1    3    3  502    0  0.25996030511E+03  0.86240655893E+02  0.11671956662E+04  0.11989005522E+04  0.00000000000E+00 0. -1.
         -3    1    3    3    0  502  0.44952239392E+03  0.20126566416E+03  0.17070926039E+04  0.17767226594E+04  0.00000000000E+00 0.  1.
         11    1    5    5    0    0 -0.61618687105E+02 -0.15123785864E+02 -0.37483933659E+02  0.73692854348E+02  0.00000000000E+00 0. -1.
        -11    1    5    5    0    0 -0.60371209098E+03  0.49716506331E+02 -0.13527044570E+03  0.62067552979E+03  0.00000000000E+00 0.  1.
          2    1    6    6  503    0  0.97518993965E+00  0.55233849614E+01 -0.25561210796E+02  0.26169338437E+02  0.00000000000E+00 0. -1.
         -2    1    6    6    0  503 -0.45127110881E+02 -0.32762242548E+03 -0.66798176421E+03  0.74536739071E+03  0.00000000000E+00 0.  1.
<mgrwt>
<rscale>  0 0.39617100E+04</rscale>
<asrwt>0</asrwt>
<pdfrwt beam="1">  1        2 0.49611686E+00 0.39617100E+04</pdfrwt>
<pdfrwt beam="2">  1       -1 0.18719519E+00 0.39617100E+04</pdfrwt>
<totfact> 0.20731449E-01</totfact>
</mgrwt>
</event>
<event>
12    6  0.1402540E-007  0.2232099E+04  0.7818608E-02  0.8505185E-01
         -1   -1    0    0    0  501 -0.00000000000E+00  0.00000000000E+00  0.93582768430E+03  0.93582768430E+03  0.00000000000E+00 0.  1.
          2   -1    0    0  501    0  0.00000000000E+00 -0.00000000000E+00 -0.13309783915E+04  0.13309783915E+04  0.00000000000E+00 0. -1.
         24    2    1    2    0    0 -0.76353670629E+03 -0.51498451828E+03 -0.30808815946E+03  0.97444785746E+03  0.80205716617E+02 0.  0.
        254    2    1    2    0    0  0.76353670629E+03  0.51498451828E+03 -0.87062547749E+02  0.12923582184E+04  0.90244807131E+03 0.  0.
         23    2    4    4    0    0  0.36552815041E+01  0.42585293872E+03 -0.25343218846E+03  0.50397309319E+03  0.91634698734E+02 0.  0.
         23    2    4    4    0    0  0.75988142479E+03  0.89131579562E+02  0.16636964071E+03  0.78838512517E+03  0.92238983192E+02 0.  0.
          4    1    3    3  502    0 -0.12452689422E+03 -0.81637019812E+02 -0.81745880804E+02  0.16986447368E+03  0.00000000000E+00 0. -1.
         -3    1    3    3    0  502 -0.63900981207E+03 -0.43334749847E+03 -0.22634227866E+03  0.80458338378E+03  0.00000000000E+00 0.  1.
         11    1    5    5    0    0  0.38205404670E+02  0.20247061497E+03 -0.15294368834E+03  0.25660431539E+03  0.00000000000E+00 0. -1.
        -11    1    5    5    0    0 -0.34550123166E+02  0.22338232375E+03 -0.10048850012E+03  0.24736877780E+03  0.00000000000E+00 0.  1.
          1    1    6    6  503    0 -0.34236916787E+00  0.32361725205E+01  0.58077436846E+01  0.66573204771E+01  0.00000000000E+00 0. -1.
         -1    1    6    6    0  503  0.76022379396E+03  0.85895407041E+02  0.16056189702E+03  0.78172780469E+03  0.00000000000E+00 0.  1.
<mgrwt>
<rscale>  0 0.22320989E+04</rscale>
<asrwt>0</asrwt>
<pdfrwt beam="1">  1        2 0.20476591E+00 0.22320989E+04</pdfrwt>
<pdfrwt beam="2">  1       -1 0.14397349E+00 0.22320989E+04</pdfrwt>
<totfact> 0.64156343E+00</totfact>
</mgrwt>
</event>
<event>
12    6  0.1402540E-007  0.1817591E+04  0.7818608E-02  0.8697000E-01
         -1   -1    0    0    0  501 -0.00000000000E+00  0.00000000000E+00  0.11140098438E+04  0.11140098438E+04  0.00000000000E+00 0.  1.
          2   -1    0    0  501    0  0.00000000000E+00 -0.00000000000E+00 -0.74138453806E+03  0.74138453806E+03  0.00000000000E+00 0. -1.
         24    2    1    2    0    0 -0.27489072887E+03 -0.43507700815E+03  0.59858367251E+03  0.79342491126E+03  0.79773184558E+02 0.  0.
        254    2    1    2    0    0  0.27489072887E+03  0.43507700815E+03 -0.22595836680E+03  0.10619694706E+04  0.90103554705E+03 0.  0.
         23    2    4    4    0    0  0.22587940896E+03 -0.22394413192E+02 -0.47235140778E+03  0.53208407885E+03  0.92057576549E+02 0.  0.
         23    2    4    4    0    0  0.49011319912E+02  0.45747142134E+03  0.24639304098E+03  0.52988539172E+03  0.91579402104E+02 0.  0.
          2    1    3    3  502    0 -0.17353602789E+03 -0.21009710223E+03  0.28365885560E+03  0.39334195263E+03  0.00000000000E+00 0. -1.
         -1    1    3    3    0  502 -0.10135470098E+03 -0.22497990592E+03  0.31492481691E+03  0.40008295863E+03  0.00000000000E+00 0.  1.
         11    1    5    5    0    0  0.38333553933E+02 -0.38471883566E+02 -0.13942199060E+03  0.14962633005E+03  0.00000000000E+00 0. -1.
        -11    1    5    5    0    0  0.18754585503E+03  0.16077470374E+02 -0.33292941718E+03  0.38245774879E+03  0.00000000000E+00 0.  1.
          1    1    6    6  503    0  0.73964742244E+02  0.39439205346E+03  0.21206938004E+03  0.45386043767E+03  0.00000000000E+00 0. -1.
         -1    1    6    6    0  503 -0.24953422332E+02  0.63079367883E+02  0.34323660936E+02  0.76024954052E+02  0.00000000000E+00 0.  1.
<mgrwt>
<rscale>  0 0.18175915E+04</rscale>
<asrwt>0</asrwt>
<pdfrwt beam="1">  1        2 0.11405916E+00 0.18175915E+04</pdfrwt>
<pdfrwt beam="2">  1       -1 0.17138613E+00 0.18175915E+04</pdfrwt>
<totfact> 0.98473462E+00</totfact>
</mgrwt>
</event>
<event>
12    6  0.1402540E-007  0.1419833E+04  0.7818608E-02  0.8939586E-01
          2   -1    0    0  501    0  0.00000000000E+00  0.00000000000E+00  0.99022044452E+03  0.99022044452E+03  0.00000000000E+00 0. -1.
         -1   -1    0    0    0  501 -0.00000000000E+00 -0.00000000000E+00 -0.50895892662E+03  0.50895892662E+03  0.00000000000E+00 0.  1.
         24    2    1    2    0    0 -0.31381727730E+03 -0.89755101648E+02 -0.13323829628E+03  0.36133698574E+03  0.79213078895E+02 0.  0.
        254    2    1    2    0    0  0.31381727730E+03  0.89755101648E+02  0.61449981418E+03  0.11378423854E+04  0.90029884515E+03 0.  0.
         23    2    4    4    0    0  0.51627608096E+03  0.31066363695E+03  0.25900119366E+03  0.66219998023E+03  0.91511247421E+02 0.  0.
         23    2    4    4    0    0 -0.20245880366E+03 -0.22090853530E+03  0.35549862052E+03  0.47564240516E+03  0.10033085393E+03 0.  0.
          2    1    3    3  502    0 -0.17606115263E+03 -0.14312882553E+02 -0.90954163776E+02  0.19868328561E+03  0.00000000000E+00 0. -1.
         -1    1    3    3    0  502 -0.13775612467E+03 -0.75442219095E+02 -0.42284132500E+02  0.16265370013E+03  0.00000000000E+00 0.  1.
         11    1    5    5    0    0  0.29173650575E+03  0.15559060786E+03  0.18752330742E+03  0.38011000627E+03  0.00000000000E+00 0. -1.
        -11    1    5    5    0    0  0.22453957521E+03  0.15507302910E+03  0.71477886241E+02  0.28208997396E+03  0.00000000000E+00 0.  1.
          2    1    6    6  503    0 -0.31168768386E+02 -0.17275866828E+02  0.56264441359E+01  0.36077757289E+02  0.00000000000E+00 0. -1.
         -2    1    6    6    0  503 -0.17129003528E+03 -0.20363266848E+03  0.34987217638E+03  0.43956464788E+03  0.00000000000E+00 0.  1.
<mgrwt>
<rscale>  0 0.14198331E+04</rscale>
<asrwt>0</asrwt>
<pdfrwt beam="1">  1        2 0.15234161E+00 0.14198331E+04</pdfrwt>
<pdfrwt beam="2">  1       -1 0.78301374E-01 0.14198331E+04</pdfrwt>
<totfact> 0.46282863E+01</totfact>
</mgrwt>
</event>
<event>
12    6  0.1402540E-007  0.1800843E+04  0.7818608E-02  0.8705851E-01
          2   -1    0    0  501    0  0.00000000000E+00  0.00000000000E+00  0.13094597779E+04  0.13094597779E+04  0.00000000000E+00 0. -1.
         -1   -1    0    0    0  501 -0.00000000000E+00 -0.00000000000E+00 -0.61915504237E+03  0.61915504237E+03  0.00000000000E+00 0.  1.
         24    2    1    2    0    0  0.44527600620E+03  0.43611934558E+03  0.53006612868E+03  0.82173165423E+03  0.76170896814E+02 0.  0.
        254    2    1    2    0    0 -0.44527600620E+03 -0.43611934558E+03  0.16023860688E+03  0.11068831661E+04  0.90057932849E+03 0.  0.
         23    2    4    4    0    0 -0.46319196463E+03 -0.52460488710E+03  0.41707741204E+03  0.82015604455E+03  0.94579522673E+02 0.  0.
         23    2    4    4    0    0  0.17915958435E+02  0.88485541518E+02 -0.25683880516E+03  0.28672712152E+03  0.89975539749E+02 0.  0.
          4    1    3    3  502    0  0.30491491301E+03  0.34559276814E+03  0.38674666429E+03  0.60164810970E+03  0.00000000000E+00 0. -1.
         -3    1    3    3    0  502  0.14036109319E+03  0.90526577440E+02  0.14331946439E+03  0.22008354454E+03  0.00000000000E+00 0.  1.
         11    1    5    5    0    0 -0.31305069598E+03 -0.32364639879E+03  0.21999191303E+03  0.50114286536E+03  0.00000000000E+00 0. -1.
        -11    1    5    5    0    0 -0.15014126865E+03 -0.20095848831E+03  0.19708549901E+03  0.31901317919E+03  0.00000000000E+00 0.  1.
          3    1    6    6  503    0  0.48960869796E+02  0.29275635338E+02 -0.85266282608E+02  0.10258931984E+03  0.00000000000E+00 0. -1.
         -3    1    6    6    0  503 -0.31044911361E+02  0.59209906180E+02 -0.17157252255E+03  0.18413780168E+03  0.00000000000E+00 0.  1.
<mgrwt>
<rscale>  0 0.18008427E+04</rscale>
<asrwt>0</asrwt>
<pdfrwt beam="1">  1        2 0.20145535E+00 0.18008427E+04</pdfrwt>
<pdfrwt beam="2">  1       -1 0.95254622E-01 0.18008427E+04</pdfrwt>
<totfact> 0.18696315E+01</totfact>
</mgrwt>
</event>
<event>
12    6  0.1402540E-007  0.4328837E+04  0.7818608E-02  0.7941307E-01
          2   -1    0    0  501    0  0.00000000000E+00  0.00000000000E+00  0.20317195158E+04  0.20317195158E+04  0.00000000000E+00 0. -1.
         -1   -1    0    0    0  501 -0.00000000000E+00 -0.00000000000E+00 -0.23057844519E+04  0.23057844519E+04  0.00000000000E+00 0.  1.
         24    2    1    2    0    0  0.29013646697E+03  0.20255463770E+04  0.18553714810E+03  0.20561503901E+04  0.79455008892E+02 0.  0.
        254    2    1    2    0    0 -0.29013646697E+03 -0.20255463770E+04 -0.45960208423E+03  0.22813535777E+04  0.89795477366E+03 0.  0.
         23    2    4    4    0    0 -0.39892079386E+03 -0.14391185883E+04 -0.67320602655E+03  0.16406581933E+04  0.91393883804E+02 0.  0.
         23    2    4    4    0    0  0.10878432690E+03 -0.58642778869E+03  0.21360394233E+03  0.64069538436E+03  0.95563331002E+02 0.  0.
          4    1    3    3  502    0  0.17936384838E+03  0.14160560593E+04  0.15762197684E+03  0.14360469494E+04  0.00000000000E+00 0. -1.
         -3    1    3    3    0  502  0.11077261859E+03  0.60949031770E+03  0.27915171263E+02  0.62010344072E+03  0.00000000000E+00 0.  1.
         11    1    5    5    0    0 -0.30298688582E+02 -0.10154226881E+03 -0.74600318915E+02  0.12959186111E+03  0.00000000000E+00 0. -1.
        -11    1    5    5    0    0 -0.36862210528E+03 -0.13375763195E+04 -0.59860570764E+03  0.15110663322E+04  0.00000000000E+00 0.  1.
          4    1    6    6  503    0  0.29919099941E+02 -0.35554418272E+03  0.15928166700E+03  0.39073964202E+03  0.00000000000E+00 0. -1.
         -4    1    6    6    0  503  0.78865226955E+02 -0.23088360597E+03  0.54322275331E+02  0.24995574233E+03  0.00000000000E+00 0.  1.
<mgrwt>
<rscale>  0 0.43288369E+04</rscale>
<asrwt>0</asrwt>
<pdfrwt beam="1">  1        2 0.31257223E+00 0.43288369E+04</pdfrwt>
<pdfrwt beam="2">  1       -1 0.35473607E+00 0.43288369E+04</pdfrwt>
<totfact> 0.81036967E-02</totfact>
</mgrwt>
</event>
<event>
12    6  0.1402540E-007  0.3999728E+04  0.7818608E-02  0.8004601E-01
         -1   -1    0    0    0  501 -0.00000000000E+00  0.00000000000E+00  0.25210656273E+04  0.25210656273E+04  0.00000000000E+00 0.  1.
          2   -1    0    0  501    0  0.00000000000E+00 -0.00000000000E+00 -0.15864150241E+04  0.15864150241E+04  0.00000000000E+00 0. -1.
         24    2    1    2    0    0  0.10709555363E+04 -0.14077954048E+04  0.11492868789E+04  0.21109455977E+04  0.79983271808E+02 0.  0.
        254    2    1    2    0    0 -0.10709555363E+04  0.14077954048E+04 -0.21463627562E+03  0.19965350537E+04  0.90069408092E+03 0.  0.
         23    2    4    4    0    0 -0.44312966326E+03  0.11367391558E+04  0.12013699980E+03  0.12293186484E+04  0.90838504709E+02 0.  0.
         23    2    4    4    0    0 -0.62782587306E+03  0.27105624904E+03 -0.33477327542E+03  0.76721640530E+03  0.94398355934E+02 0.  0.
          4    1    3    3  502    0  0.28737131429E+03 -0.34638299447E+03  0.32755898632E+03  0.55664920790E+03  0.00000000000E+00 0. -1.
         -3    1    3    3    0  502  0.78358422202E+03 -0.10614124104E+04  0.82172789254E+03  0.15542963898E+04  0.00000000000E+00 0.  1.
         11    1    5    5    0    0 -0.27826693800E+03  0.67608683981E+03  0.11447704642E+03  0.74002087667E+03  0.00000000000E+00 0.  1.
        -11    1    5    5    0    0 -0.16486272526E+03  0.46065231598E+03  0.56599533796E+01  0.48929777178E+03  0.00000000000E+00 0. -1.
          2    1    6    6  503    0 -0.48273717078E+02  0.42956279953E+02 -0.12001930824E+02  0.65723968926E+02  0.00000000000E+00 0. -1.
         -2    1    6    6    0  503 -0.57955215598E+03  0.22809996909E+03 -0.32277134460E+03  0.70149243637E+03  0.00000000000E+00 0.  1.
<mgrwt>
<rscale>  0 0.39997282E+04</rscale>
<asrwt>0</asrwt>
<pdfrwt beam="1">  1        2 0.24406385E+00 0.39997282E+04</pdfrwt>
<pdfrwt beam="2">  1       -1 0.38785625E+00 0.39997282E+04</pdfrwt>
<totfact> 0.88191725E-02</totfact>
</mgrwt>
</event>
<event>
12    6  0.1402540E-007  0.3394930E+04  0.7818608E-02  0.8139152E-01
         -1   -1    0    0    0  501 -0.00000000000E+00  0.00000000000E+00  0.18658410417E+04  0.18658410417E+04  0.00000000000E+00 0.  1.
          2   -1    0    0  501    0  0.00000000000E+00 -0.00000000000E+00 -0.15442833084E+04  0.15442833084E+04  0.00000000000E+00 0. -1.
         24    2    1    2    0    0  0.86521723393E+03 -0.11151236348E+04 -0.55900322473E+03  0.15201360539E+04  0.78914094340E+02 0.  0.
        254    2    1    2    0    0 -0.86521723393E+03  0.11151236348E+04  0.88056095803E+03  0.18899882962E+04  0.89697635213E+03 0.  0.
         23    2    4    4    0    0 -0.55103714321E+03  0.10455871931E+04  0.30451567681E+03  0.12238998562E+04  0.91140271339E+02 0.  0.
         23    2    4    4    0    0 -0.31418009072E+03  0.69536441690E+02  0.57604528122E+03  0.66608844000E+03  0.91110909060E+02 0.  0.
          4    1    3    3  502    0  0.32949811557E+03 -0.38831165625E+03 -0.23470645148E+03  0.56075134321E+03  0.00000000000E+00 0. -1.
         -3    1    3    3    0  502  0.53571911836E+03 -0.72681197856E+03 -0.32429677325E+03  0.95938471068E+03  0.00000000000E+00 0.  1.
         11    1    5    5    0    0 -0.61498882097E+02  0.16482036420E+03  0.69756454219E+02  0.18924541701E+03  0.00000000000E+00 0. -1.
        -11    1    5    5    0    0 -0.48953826111E+03  0.88076682891E+03  0.23475922259E+03  0.10346544392E+04  0.00000000000E+00 0.  1.
          1    1    6    6  503    0 -0.26307949063E+03  0.22479424837E+02  0.43495787875E+03  0.50882659052E+03  0.00000000000E+00 0. -1.
         -1    1    6    6    0  503 -0.51100600088E+02  0.47057016854E+02  0.14108740248E+03  0.15726184948E+03  0.00000000000E+00 0.  1.
<mgrwt>
<rscale>  0 0.33949299E+04</rscale>
<asrwt>0</asrwt>
<pdfrwt beam="1">  1        2 0.23758205E+00 0.33949299E+04</pdfrwt>
<pdfrwt beam="2">  1       -1 0.28705247E+00 0.33949299E+04</pdfrwt>
<totfact> 0.45298833E-01</totfact>
</mgrwt>
</event>
<event>
12    6  0.1402540E-007  0.2133999E+04  0.7818608E-02  0.8546413E-01
          2   -1    0    0  501    0  0.00000000000E+00  0.00000000000E+00  0.16383076112E+04  0.16383076112E+04  0.00000000000E+00 0. -1.
         -1   -1    0    0    0  501 -0.00000000000E+00 -0.00000000000E+00 -0.69491685157E+03  0.69491685157E+03  0.00000000000E+00 0.  1.
         24    2    1    2    0    0  0.14261889243E+03 -0.85104919981E+03  0.55144375532E+03  0.10271250578E+04  0.79188257067E+02 0.  0.
        254    2    1    2    0    0 -0.14261889243E+03  0.85104919981E+03  0.39194700428E+03  0.13060994050E+04  0.89869255728E+03 0.  0.
         23    2    4    4    0    0  0.29083294178E+03  0.24894821043E+03 -0.10687100000E+03  0.40799184538E+03  0.92070211032E+02 0.  0.
         23    2    4    4    0    0 -0.43345183422E+03  0.60210098939E+03  0.49881800427E+03  0.89810755958E+03  0.85858564994E+02 0.  0.
          4    1    3    3  502    0  0.84157778620E+02 -0.52808436217E+03  0.38646261356E+03  0.65977949116E+03  0.00000000000E+00 0. -1.
         -3    1    3    3    0  502  0.58461113814E+02 -0.32296483764E+03  0.16498114176E+03  0.36734556662E+03  0.00000000000E+00 0.  1.
         11    1    5    5    0    0  0.19032501531E+03  0.12900046182E+03 -0.10171233700E+03  0.25141624868E+03  0.00000000000E+00 0. -1.
        -11    1    5    5    0    0  0.10050792647E+03  0.11994774861E+03 -0.51586629992E+01  0.15657559671E+03  0.00000000000E+00 0.  1.
          4    1    6    6  503    0 -0.35917677875E+03  0.54625461927E+03  0.44274623875E+03  0.78957349208E+03  0.00000000000E+00 0. -1.
         -4    1    6    6    0  503 -0.74275055464E+02  0.55846370120E+02  0.56071765525E+02  0.10853406750E+03  0.00000000000E+00 0.  1.
<mgrwt>
<rscale>  0 0.21339987E+04</rscale>
<asrwt>0</asrwt>
<pdfrwt beam="1">  1        2 0.25204732E+00 0.21339987E+04</pdfrwt>
<pdfrwt beam="2">  1       -1 0.10691029E+00 0.21339987E+04</pdfrwt>
<totfact> 0.90685461E+00</totfact>
</mgrwt>
</event>
<event>
12    6  0.1402540E-007  0.1886948E+04  0.7818608E-02  0.8661381E-01
          4   -1    0    0  501    0  0.00000000000E+00  0.00000000000E+00  0.24585706823E+03  0.24585706823E+03  0.00000000000E+00 0. -1.
         -3   -1    0    0    0  501 -0.00000000000E+00 -0.00000000000E+00 -0.36205706774E+04  0.36205706774E+04  0.00000000000E+00 0.  1.
         24    2    1    2    0    0 -0.21969320962E+03  0.32987850014E+03 -0.60306439155E+02  0.40883427445E+03  0.80147777010E+02 0.  0.
        254    2    1    2    0    0  0.21969320962E+03 -0.32987850014E+03 -0.33144071700E+04  0.34575934712E+04  0.90142819575E+03 0.  0.
         23    2    4    4    0    0  0.42747897870E+03  0.50059345811E+01 -0.80603354257E+03  0.91681444503E+03  0.89973986544E+02 0.  0.
         23    2    4    4    0    0 -0.20778576908E+03 -0.33488443472E+03 -0.25083736274E+04  0.25407790261E+04  0.91089485729E+02 0.  0.
          4    1    3    3  502    0 -0.11527997504E+03  0.23867208929E+03 -0.28402241144E+02  0.26657180300E+03  0.00000000000E+00 0. -1.
         -3    1    3    3    0  502 -0.10441323457E+03  0.91206410849E+02 -0.31904198010E+02  0.14226247146E+03  0.00000000000E+00 0.  1.
         11    1    5    5    0    0  0.29177764686E+03 -0.10898835152E+02 -0.62654992316E+03  0.69124365170E+03  0.00000000000E+00 0.  1.
        -11    1    5    5    0    0  0.13570133184E+03  0.15904769733E+02 -0.17948361942E+03  0.22557079333E+03  0.00000000000E+00 0. -1.
          1    1    6    6  503    0 -0.81004160336E+02 -0.82351811439E+02 -0.94965451292E+03  0.95665416361E+03  0.00000000000E+00 0. -1.
         -1    1    6    6    0  503 -0.12678160875E+03 -0.25253262328E+03 -0.15587191145E+04  0.15841248625E+04  0.00000000000E+00 0.  1.
<mgrwt>
<rscale>  0 0.18869477E+04</rscale>
<asrwt>0</asrwt>
<pdfrwt beam="1">  1        4 0.37824167E-01 0.18869477E+04</pdfrwt>
<pdfrwt beam="2">  1       -3 0.55701083E+00 0.18869477E+04</pdfrwt>
<totfact> 0.22584064E-02</totfact>
</mgrwt>
</event>
<event>
12    6  0.1402540E-007  0.1127528E+04  0.7818608E-02  0.9178769E-01
         -1   -1    0    0    0  501 -0.00000000000E+00  0.00000000000E+00  0.22462891095E+03  0.22462891095E+03  0.00000000000E+00 0.  1.
          2   -1    0    0  501    0  0.00000000000E+00 -0.00000000000E+00 -0.14149115129E+04  0.14149115129E+04  0.00000000000E+00 0. -1.
         24    2    1    2    0    0  0.13931907302E+03  0.11494249137E+03 -0.28712413250E+03  0.34928134281E+03  0.83280301045E+02 0.  0.
        254    2    1    2    0    0 -0.13931907302E+03 -0.11494249137E+03 -0.90315846945E+03  0.12902590810E+04  0.90357716596E+03 0.  0.
         23    2    4    4    0    0 -0.10033916194E+03  0.34818951056E+03 -0.15353665803E+03  0.40362896979E+03  0.89660232034E+02 0.  0.
         23    2    4    4    0    0 -0.38979911087E+02 -0.46313200193E+03 -0.74962181142E+03  0.88663011126E+03  0.90384784936E+02 0.  0.
          2    1    3    3  502    0  0.82807227029E+02  0.11520375396E+03 -0.19383585746E+03  0.24021091027E+03  0.00000000000E+00 0. -1.
         -1    1    3    3    0  502  0.56511845993E+02 -0.26126258498E+00 -0.93288275039E+02  0.10907043254E+03  0.00000000000E+00 0.  1.
         11    1    5    5    0    0  0.23919243226E-01  0.35092856070E+02  0.98949824089E+01  0.36461209472E+02  0.00000000000E+00 0. -1.
        -11    1    5    5    0    0 -0.10036308118E+03  0.31309665449E+03 -0.16343164044E+03  0.36716776032E+03  0.00000000000E+00 0.  1.
          3    1    6    6  503    0 -0.18286673993E+02 -0.21095158839E+02 -0.24498010899E+02  0.37142438129E+02  0.00000000000E+00 0. -1.
         -3    1    6    6    0  503 -0.20693237094E+02 -0.44203684310E+03 -0.72512380052E+03  0.84948767313E+03  0.00000000000E+00 0.  1.
<mgrwt>
<rscale>  0 0.11275283E+04</rscale>
<asrwt>0</asrwt>
<pdfrwt beam="1">  1        2 0.21767870E+00 0.11275283E+04</pdfrwt>
<pdfrwt beam="2">  1       -1 0.34558294E-01 0.11275283E+04</pdfrwt>
<totfact> 0.12713142E+02</totfact>
</mgrwt>
</event>
<event>
12    6  0.1402540E-007  0.1128408E+04  0.7818608E-02  0.9177937E-01
         -1   -1    0    0    0  501 -0.00000000000E+00  0.00000000000E+00  0.15988223852E+04  0.15988223852E+04  0.00000000000E+00 0.  1.
          2   -1    0    0  501    0  0.00000000000E+00 -0.00000000000E+00 -0.19910039176E+03  0.19910039176E+03  0.00000000000E+00 0. -1.
         24    2    1    2    0    0 -0.16496897686E+03  0.34702648036E+01  0.41396224911E+03  0.45275569089E+03  0.79976033185E+02 0.  0.
        254    2    1    2    0    0  0.16496897686E+03 -0.34702648036E+01  0.98575974436E+03  0.13451670861E+04  0.90029184704E+03 0.  0.
         23    2    4    4    0    0 -0.10385319128E+03  0.20536557899E+03  0.96007821942E+03  0.99141915239E+03  0.90560708653E+02 0.  0.
         23    2    4    4    0    0  0.26882216815E+03 -0.20883584379E+03  0.25681524942E+02  0.35374793370E+03  0.92737760033E+02 0.  0.
          4    1    3    3  502    0 -0.13659283896E+03  0.18533267953E+02  0.24820056958E+03  0.28390950745E+03  0.00000000000E+00 0. -1.
         -3    1    3    3    0  502 -0.28376137905E+02 -0.15063003150E+02  0.16576167952E+03  0.16884618345E+03  0.00000000000E+00 0.  1.
         11    1    5    5    0    0 -0.63931002508E+02  0.77748748553E+02  0.26242987732E+03  0.28107202189E+03  0.00000000000E+00 0.  1.
        -11    1    5    5    0    0 -0.39922188777E+02  0.12761683044E+03  0.69764834210E+03  0.71034713050E+03  0.00000000000E+00 0. -1.
          1    1    6    6  503    0  0.20368100996E+03 -0.13637750399E+03 -0.20392070633E+02  0.24596872557E+03  0.00000000000E+00 0. -1.
         -1    1    6    6    0  503  0.65141158185E+02 -0.72458339803E+02  0.46073595575E+02  0.10777920813E+03  0.00000000000E+00 0.  1.
<mgrwt>
<rscale>  0 0.11284080E+04</rscale>
<asrwt>0</asrwt>
<pdfrwt beam="1">  1        2 0.30630831E-01 0.11284080E+04</pdfrwt>
<pdfrwt beam="2">  1       -1 0.24597267E+00 0.11284080E+04</pdfrwt>
<totfact> 0.14702948E+01</totfact>
</mgrwt>
</event>
<event>
12    6  0.1402540E-007  0.3409848E+04  0.7818608E-02  0.8135493E-01
          2   -1    0    0  501    0  0.00000000000E+00  0.00000000000E+00  0.20302676653E+04  0.20302676653E+04  0.00000000000E+00 0. -1.
         -1   -1    0    0    0  501 -0.00000000000E+00 -0.00000000000E+00 -0.14317158290E+04  0.14317158290E+04  0.00000000000E+00 0.  1.
         24    2    1    2    0    0  0.54947316980E+03 -0.14353592049E+04  0.67457083331E+03  0.16803948853E+04  0.80649550214E+02 0.  0.
        254    2    1    2    0    0 -0.54947316980E+03  0.14353592049E+04 -0.76018997000E+02  0.17815886091E+04  0.89783198465E+03 0.  0.
         23    2    4    4    0    0 -0.58885440909E+03  0.36555092459E+03 -0.99549133706E+02  0.70710084581E+03  0.98511839626E+02 0.  0.
         23    2    4    4    0    0  0.39381239293E+02  0.10698082803E+04  0.23530136706E+02  0.10744877633E+04  0.89048567893E+02 0.  0.
          4    1    3    3  502    0  0.19392017878E+03 -0.59377722243E+03  0.24732342457E+03  0.67182237382E+03  0.00000000000E+00 0. -1.
         -3    1    3    3    0  502  0.35555299102E+03 -0.84158198248E+03  0.42724740874E+03  0.10085725115E+04  0.00000000000E+00 0.  1.
         11    1    5    5    0    0 -0.87870553245E+02  0.52599476674E+02 -0.51013122492E+02  0.11441275165E+03  0.00000000000E+00 0.  1.
        -11    1    5    5    0    0 -0.50098385585E+03  0.31295144792E+03 -0.48536011214E+02  0.59268809416E+03  0.00000000000E+00 0. -1.
          4    1    6    6  503    0  0.62723083417E+02  0.55489544300E+03  0.26118523008E+02  0.55903963643E+03  0.00000000000E+00 0. -1.
         -4    1    6    6    0  503 -0.23341844124E+02  0.51491283731E+03 -0.25883863019E+01  0.51544812684E+03  0.00000000000E+00 0.  1.
<mgrwt>
<rscale>  0 0.34098483E+04</rscale>
<asrwt>0</asrwt>
<pdfrwt beam="1">  1        2 0.31234887E+00 0.34098483E+04</pdfrwt>
<pdfrwt beam="2">  1       -1 0.22026397E+00 0.34098483E+04</pdfrwt>
<totfact> 0.66320990E-01</totfact>
</mgrwt>
</event>
<event>
12    6  0.1402540E-007  0.1458300E+04  0.7818608E-02  0.8912666E-01
          2   -1    0    0  501    0  0.00000000000E+00  0.00000000000E+00  0.21641744982E+04  0.21641744982E+04  0.00000000000E+00 0. -1.
         -1   -1    0    0    0  501 -0.00000000000E+00 -0.00000000000E+00 -0.24566402300E+03  0.24566402300E+03  0.00000000000E+00 0.  1.
         24    2    1    2    0    0 -0.41011314327E+03  0.92646834724E+02  0.34603567296E+03  0.55044917715E+03  0.80482193025E+02 0.  0.
        254    2    1    2    0    0  0.41011314327E+03 -0.92646834724E+02  0.15724748023E+04  0.18593893441E+04  0.89881894886E+03 0.  0.
         23    2    4    4    0    0  0.13466560147E+03 -0.44496281224E+03  0.11262968789E+04  0.12210167667E+04  0.78807085468E+02 0.  0.
         23    2    4    4    0    0  0.27544754181E+03  0.35231597751E+03  0.44617792338E+03  0.63837257736E+03  0.91907083030E+02 0.  0.
          4    1    3    3  502    0 -0.73613506496E+02  0.22090047966E+02  0.10683896373E+03  0.13161110413E+03  0.00000000000E+00 0. -1.
         -3    1    3    3    0  502 -0.33649963678E+03  0.70556786758E+02  0.23919670923E+03  0.41883807302E+03  0.00000000000E+00 0.  1.
         11    1    5    5    0    0 -0.46624862555E+01 -0.25890428838E+02  0.10652660400E+03  0.10972679911E+03  0.00000000000E+00 0. -1.
        -11    1    5    5    0    0  0.13932808772E+03 -0.41907238340E+03  0.10197702749E+04  0.11112899676E+04  0.00000000000E+00 0.  1.
          3    1    6    6  503    0  0.13392767696E+03  0.17731502619E+03  0.15767996158E+03  0.27247056988E+03  0.00000000000E+00 0. -1.
         -3    1    6    6    0  503  0.14151986484E+03  0.17500095133E+03  0.28849796180E+03  0.36590200748E+03  0.00000000000E+00 0.  1.
<mgrwt>
<rscale>  0 0.14583001E+04</rscale>
<asrwt>0</asrwt>
<pdfrwt beam="1">  1        2 0.33294991E+00 0.14583001E+04</pdfrwt>
<pdfrwt beam="2">  1       -1 0.37794466E-01 0.14583001E+04</pdfrwt>
<totfact> 0.40377972E+01</totfact>
</mgrwt>
</event>
<event>
12    6  0.1402540E-007  0.1655193E+04  0.7818608E-02  0.8787340E-01
          2   -1    0    0  501    0  0.00000000000E+00  0.00000000000E+00  0.23109985248E+04  0.23109985248E+04  0.00000000000E+00 0. -1.
         -1   -1    0    0    0  501 -0.00000000000E+00 -0.00000000000E+00 -0.29637225913E+03  0.29637225913E+03  0.00000000000E+00 0.  1.
         24    2    1    2    0    0 -0.51692785864E+03  0.70251404654E+02  0.31457207902E+03  0.61421107129E+03  0.78421784611E+02 0.  0.
        254    2    1    2    0    0  0.51692785864E+03 -0.70251404654E+02  0.17000541866E+04  0.19931597126E+04  0.90019538526E+03 0.  0.
         23    2    4    4    0    0  0.81774313979E+02  0.10806447456E+02  0.14920986752E+04  0.14971992564E+04  0.91887644087E+02 0.  0.
         23    2    4    4    0    0  0.43515354466E+03 -0.81057852109E+02  0.20795551148E+03  0.49596045626E+03  0.82476036508E+02 0.  0.
          4    1    3    3  502    0 -0.19269690985E+03  0.34652585021E+02  0.75677313635E+02  0.20990463671E+03  0.00000000000E+00 0. -1.
         -3    1    3    3    0  502 -0.32423094879E+03  0.35598819633E+02  0.23889476538E+03  0.40430643458E+03  0.00000000000E+00 0.  1.
         11    1    5    5    0    0  0.18750680864E+02 -0.34021545278E+02  0.76803177540E+03  0.76901356399E+03  0.00000000000E+00 0.  1.
        -11    1    5    5    0    0  0.63023633115E+02  0.44827992734E+02  0.72406689975E+03  0.72818569238E+03  0.00000000000E+00 0. -1.
          4    1    6    6  503    0  0.12048482370E+03 -0.15339706159E+02  0.18587950094E+02  0.12287152321E+03  0.00000000000E+00 0. -1.
         -4    1    6    6    0  503  0.31466872096E+03 -0.65718145951E+02  0.18936756139E+03  0.37308893305E+03  0.00000000000E+00 0.  1.
<mgrwt>
<rscale>  0 0.16551929E+04</rscale>
<asrwt>0</asrwt>
<pdfrwt beam="1">  1        2 0.35553822E+00 0.16551929E+04</pdfrwt>
<pdfrwt beam="2">  1       -1 0.45595734E-01 0.16551929E+04</pdfrwt>
<totfact> 0.23243798E+01</totfact>
</mgrwt>
</event>
<event>
12    6  0.1402540E-007  0.1627719E+04  0.7818608E-02  0.8803698E-01
          2   -1    0    0  501    0  0.00000000000E+00  0.00000000000E+00  0.11355061964E+04  0.11355061964E+04  0.00000000000E+00 0. -1.
         -1   -1    0    0    0  501 -0.00000000000E+00 -0.00000000000E+00 -0.58332317995E+03  0.58332317995E+03  0.00000000000E+00 0.  1.
         24    2    1    2    0    0 -0.40641182839E+03 -0.29875222756E+03 -0.67349360553E+02  0.51505724554E+03  0.79527115445E+02 0.  0.
        254    2    1    2    0    0  0.40641182839E+03  0.29875222756E+03  0.61953237698E+03  0.12037721308E+04  0.90045738878E+03 0.  0.
         23    2    4    4    0    0  0.53899805609E+02  0.44477945955E+03 -0.15326384957E+02  0.45736361415E+03  0.90623511257E+02 0.  0.
         23    2    4    4    0    0  0.35251202278E+03 -0.14602723198E+03  0.63485876194E+03  0.74640851664E+03  0.92148507415E+02 0.  0.
          4    1    3    3  502    0 -0.22676559224E+03 -0.19317282817E+03 -0.72630053269E+02  0.30661620963E+03  0.00000000000E+00 0. -1.
         -3    1    3    3    0  502 -0.17964623615E+03 -0.10557939939E+03  0.52806927158E+01  0.20844103592E+03  0.00000000000E+00 0.  1.
         11    1    5    5    0    0  0.18382233611E+02  0.13746470387E+02 -0.94689851356E+01  0.24830095451E+02  0.00000000000E+00 0.  1.
        -11    1    5    5    0    0  0.35517571998E+02  0.43103298916E+03 -0.58573998213E+01  0.43253351870E+03  0.00000000000E+00 0. -1.
          2    1    6    6  503    0  0.15751808404E+03 -0.70075913728E+02  0.37525721410E+03  0.41296556421E+03  0.00000000000E+00 0. -1.
         -2    1    6    6    0  503  0.19499393873E+03 -0.75951318255E+02  0.25960154784E+03  0.33344295243E+03  0.00000000000E+00 0.  1.
<mgrwt>
<rscale>  0 0.16277188E+04</rscale>
<asrwt>0</asrwt>
<pdfrwt beam="1">  1        2 0.17469326E+00 0.16277188E+04</pdfrwt>
<pdfrwt beam="2">  1       -1 0.89742028E-01 0.16277188E+04</pdfrwt>
<totfact> 0.27491201E+01</totfact>
</mgrwt>
</event>
<event>
12    6  0.1402540E-007  0.2706137E+04  0.7818608E-02  0.8333016E-01
          2   -1    0    0  501    0  0.00000000000E+00  0.00000000000E+00  0.21451791274E+04  0.21451791274E+04  0.00000000000E+00 0. -1.
         -3   -1    0    0    0  501 -0.00000000000E+00 -0.00000000000E+00 -0.85344589683E+03  0.85344589683E+03  0.00000000000E+00 0.  1.
         24    2    1    2    0    0  0.24171924674E+03  0.73657135058E+03 -0.44328135142E+03  0.89631151161E+03  0.76879259708E+02 0.  0.
        254    2    1    2    0    0 -0.24171924674E+03 -0.73657135058E+03  0.17350145820E+04  0.21023135126E+04  0.89915569114E+03 0.  0.
         23    2    4    4    0    0 -0.41360290204E+03 -0.80578950938E+03  0.10601293682E+04  0.13974267427E+04  0.92537181700E+02 0.  0.
         23    2    4    4    0    0  0.17188365529E+03  0.69218158796E+02  0.67488521376E+03  0.70488676987E+03  0.84024770850E+02 0.  0.
          4    1    3    3  502    0  0.20818757530E+03  0.69325522982E+03 -0.40450742882E+03  0.82919909560E+03  0.00000000000E+00 0. -1.
         -3    1    3    3    0  502  0.33531671439E+02  0.43316120766E+02 -0.38773922601E+02  0.67112416002E+02  0.00000000000E+00 0.  1.
         11    1    5    5    0    0 -0.25334474377E+03 -0.58617437811E+03  0.74156840542E+03  0.97862539343E+03  0.00000000000E+00 0. -1.
        -11    1    5    5    0    0 -0.16025815827E+03 -0.21961513127E+03  0.31856096279E+03  0.41880134932E+03  0.00000000000E+00 0.  1.
          2    1    6    6  503    0  0.28314536900E+02  0.30029672735E+02  0.27742557765E+03  0.28047895710E+03  0.00000000000E+00 0. -1.
         -2    1    6    6    0  503  0.14356911839E+03  0.39188486061E+02  0.39745963612E+03  0.42440781277E+03  0.00000000000E+00 0.  1.
<mgrwt>
<rscale>  0 0.27061370E+04</rscale>
<asrwt>0</asrwt>
<pdfrwt beam="1">  1        2 0.33002756E+00 0.27061370E+04</pdfrwt>
<pdfrwt beam="2">  1       -3 0.13129937E+00 0.27061370E+04</pdfrwt>
<totfact> 0.14000769E+00</totfact>
</mgrwt>
</event>
<event>
12    6  0.1402540E-007  0.1937893E+04  0.7818608E-02  0.8636221E-01
          2   -1    0    0  501    0  0.00000000000E+00  0.00000000000E+00  0.18253841147E+04  0.18253841147E+04  0.00000000000E+00 0. -1.
         -1   -1    0    0    0  501 -0.00000000000E+00 -0.00000000000E+00 -0.51433407733E+03  0.51433407733E+03  0.00000000000E+00 0.  1.
         24    2    1    2    0    0  0.74313837852E+02 -0.63179718362E+03  0.10160975016E+04  0.12013160337E+04  0.77561925640E+02 0.  0.
        254    2    1    2    0    0 -0.74313837852E+02  0.63179718362E+03  0.29495253578E+03  0.11384021584E+04  0.89681227024E+03 0.  0.
         23    2    4    4    0    0 -0.44460965914E+03  0.14166202704E+03  0.14722362093E+03  0.50011746535E+03  0.10342536283E+03 0.  0.
         23    2    4    4    0    0  0.37029582129E+03  0.49013515658E+03  0.14772891485E+03  0.63828469300E+03  0.90730645663E+02 0.  0.
          2    1    3    3  502    0  0.87278600841E+02 -0.43734276072E+03  0.71029377103E+03  0.83869153190E+03  0.00000000000E+00 0. -1.
         -1    1    3    3    0  502 -0.12964762989E+02 -0.19445442290E+03  0.30580373058E+03  0.36262450179E+03  0.00000000000E+00 0.  1.
         11    1    5    5    0    0 -0.27651135261E+03  0.57363382535E+02  0.44638776016E+02  0.28590506484E+03  0.00000000000E+00 0. -1.
        -11    1    5    5    0    0 -0.16809830654E+03  0.84298644506E+02  0.10258484491E+03  0.21421240051E+03  0.00000000000E+00 0.  1.
          3    1    6    6  503    0  0.15583995387E+03  0.22212061659E+03  0.11066207878E+03  0.29303541632E+03  0.00000000000E+00 0. -1.
         -3    1    6    6    0  503  0.21445586743E+03  0.26801453998E+03  0.37066836068E+02  0.34524927668E+03  0.00000000000E+00 0.  1.
<mgrwt>
<rscale>  0 0.19378929E+04</rscale>
<asrwt>0</asrwt>
<pdfrwt beam="1">  1        2 0.28082832E+00 0.19378929E+04</pdfrwt>
<pdfrwt beam="2">  1       -1 0.79128320E-01 0.19378929E+04</pdfrwt>
<totfact> 0.14181941E+01</totfact>
</mgrwt>
</event>
<event>
12    6  0.1402540E-007  0.2532611E+04  0.7818608E-02  0.8391459E-01
          2   -1    0    0  501    0  0.00000000000E+00  0.00000000000E+00  0.24498317786E+04  0.24498317786E+04  0.00000000000E+00 0. -1.
         -1   -1    0    0    0  501 -0.00000000000E+00 -0.00000000000E+00 -0.65454679640E+03  0.65454679640E+03  0.00000000000E+00 0.  1.
         24    2    1    2    0    0 -0.49643134574E+03  0.69434021129E+03  0.16440275909E+04  0.18548460022E+04  0.95260495148E+02 0.  0.
        254    2    1    2    0    0  0.49643134574E+03 -0.69434021129E+03  0.15125739124E+03  0.12495325728E+04  0.89994468834E+03 0.  0.
         23    2    4    4    0    0  0.52026578144E+03 -0.79168536915E+03  0.34557981667E+03  0.10125004387E+04  0.91046809904E+02 0.  0.
         23    2    4    4    0    0 -0.23834435693E+02  0.97345157858E+02 -0.19432242543E+03  0.23703213413E+03  0.91536154063E+02 0.  0.
          4    1    3    3  502    0 -0.37269202842E+03  0.54621910971E+03  0.13480841079E+04  0.15015276973E+04  0.00000000000E+00 0. -1.
         -3    1    3    3    0  502 -0.12373931732E+03  0.14812110158E+03  0.29594348306E+03  0.35331830486E+03  0.00000000000E+00 0.  1.
         11    1    5    5    0    0  0.78500526326E+02 -0.15151235666E+03  0.30715477078E+02  0.17338329615E+03  0.00000000000E+00 0.  1.
        -11    1    5    5    0    0  0.44176525511E+03 -0.64017301249E+03  0.31486433959E+03  0.83911714253E+03  0.00000000000E+00 0. -1.
          2    1    6    6  503    0  0.33581797745E+02  0.54789571798E+02 -0.92602000634E+02  0.11271541527E+03  0.00000000000E+00 0. -1.
         -2    1    6    6    0  503 -0.57416233439E+02  0.42555586060E+02 -0.10172042480E+03  0.12431671886E+03  0.00000000000E+00 0.  1.
<mgrwt>
<rscale>  0 0.25326109E+04</rscale>
<asrwt>0</asrwt>
<pdfrwt beam="1">  1        2 0.37689719E+00 0.25326109E+04</pdfrwt>
<pdfrwt beam="2">  1       -1 0.10069951E+00 0.25326109E+04</pdfrwt>
<totfact> 0.35308211E+00</totfact>
</mgrwt>
</event>
<event>
12    6  0.1402540E-007  0.1536290E+04  0.7818608E-02  0.8860673E-01
          2   -1    0    0  501    0  0.00000000000E+00  0.00000000000E+00  0.20207654335E+04  0.20207654335E+04  0.00000000000E+00 0. -1.
         -1   -1    0    0    0  501 -0.00000000000E+00 -0.00000000000E+00 -0.29199171699E+03  0.29199171699E+03  0.00000000000E+00 0.  1.
         24    2    1    2    0    0  0.32657334403E+03  0.23655390003E+03  0.12506922741E+03  0.42965450461E+03  0.79704360204E+02 0.  0.
        254    2    1    2    0    0 -0.32657334403E+03 -0.23655390003E+03  0.16037044891E+04  0.18831026459E+04  0.90088822276E+03 0.  0.
         23    2    4    4    0    0  0.29230592707E+03  0.27807881371E+02  0.51009298426E+03  0.59564859531E+03  0.91577089010E+02 0.  0.
         23    2    4    4    0    0 -0.61887927111E+03 -0.26436178140E+03  0.10936115048E+04  0.12874540506E+04  0.93022068051E+02 0.  0.
          4    1    3    3  502    0 -0.18976558616E+01  0.34721958292E+01 -0.50282830366E+01  0.63985054460E+01  0.00000000000E+00 0. -1.
         -3    1    3    3    0  502  0.32847099990E+03  0.23308170420E+03  0.13009751045E+03  0.42325599917E+03  0.00000000000E+00 0.  1.
         11    1    5    5    0    0  0.15953948111E+03  0.41204262510E+02  0.35277231492E+03  0.38935708990E+03  0.00000000000E+00 0.  1.
        -11    1    5    5    0    0  0.13276644597E+03 -0.13396381139E+02  0.15732066935E+03  0.20629150541E+03  0.00000000000E+00 0. -1.
          1    1    6    6  503    0 -0.16643209810E+03 -0.86679396673E+02  0.38295421696E+03  0.42645854825E+03  0.00000000000E+00 0. -1.
         -1    1    6    6    0  503 -0.45244717301E+03 -0.17768238472E+03  0.71065728787E+03  0.86099550231E+03  0.00000000000E+00 0.  1.
<mgrwt>
<rscale>  0 0.15362900E+04</rscale>
<asrwt>0</asrwt>
<pdfrwt beam="1">  1        2 0.31088698E+00 0.15362900E+04</pdfrwt>
<pdfrwt beam="2">  1       -1 0.44921804E-01 0.15362900E+04</pdfrwt>
<totfact> 0.35095957E+01</totfact>
</mgrwt>
</event>
<event>
12    6  0.1402540E-007  0.1747950E+04  0.7818608E-02  0.8734480E-01
          2   -1    0    0  501    0  0.00000000000E+00  0.00000000000E+00  0.19516142684E+04  0.19516142684E+04  0.00000000000E+00 0. -1.
         -1   -1    0    0    0  501 -0.00000000000E+00 -0.00000000000E+00 -0.39138477198E+03  0.39138477198E+03  0.00000000000E+00 0.  1.
         24    2    1    2    0    0  0.61264539244E+03  0.32527693936E+02  0.81496824885E+03  0.10231813944E+04  0.79589518704E+02 0.  0.
        254    2    1    2    0    0 -0.61264539244E+03 -0.32527693936E+02  0.74526124755E+03  0.13198176459E+04  0.90006214436E+03 0.  0.
         23    2    4    4    0    0 -0.74378511722E+03 -0.22849940794E+03  0.72260402516E+03  0.10658719048E+04  0.92184924461E+02 0.  0.
         23    2    4    4    0    0  0.13113972478E+03  0.19597171400E+03  0.22657222396E+02  0.25394574112E+03  0.91501637146E+02 0.  0.
          2    1    3    3  502    0  0.56121521689E+03  0.75946155894E+01  0.74744409941E+03  0.93471540033E+03  0.00000000000E+00 0. -1.
         -1    1    3    3    0  502  0.51430175546E+02  0.24933078347E+02  0.67524149440E+02  0.88465994089E+02  0.00000000000E+00 0.  1.
         11    1    5    5    0    0 -0.65283202113E+03 -0.20837954192E+03  0.59280812876E+03  0.90610880077E+03  0.00000000000E+00 0. -1.
        -11    1    5    5    0    0 -0.90953096087E+02 -0.20119866022E+02  0.12979589640E+03  0.15976310406E+03  0.00000000000E+00 0.  1.
          1    1    6    6  503    0  0.44167944376E+02  0.66713905194E+02 -0.35657705154E+02  0.87595801232E+02  0.00000000000E+00 0.  1.
         -1    1    6    6    0  503  0.86971780407E+02  0.12925780881E+03  0.58314927550E+02  0.16634993989E+03  0.00000000000E+00 0. -1.
<mgrwt>
<rscale>  0 0.17479498E+04</rscale>
<asrwt>0</asrwt>
<pdfrwt beam="1">  1        2 0.30024834E+00 0.17479498E+04</pdfrwt>
<pdfrwt beam="2">  1       -1 0.60213043E-01 0.17479498E+04</pdfrwt>
<totfact> 0.21464868E+01</totfact>
</mgrwt>
</event>
<event>
12    6  0.1402540E-007  0.3862150E+04  0.7818608E-02  0.8032948E-01
          2   -1    0    0  501    0  0.00000000000E+00  0.00000000000E+00  0.29285811209E+04  0.29285811209E+04  0.00000000000E+00 0. -1.
         -1   -1    0    0    0  501 -0.00000000000E+00 -0.00000000000E+00 -0.12733302757E+04  0.12733302757E+04  0.00000000000E+00 0.  1.
         24    2    1    2    0    0 -0.42627638238E+03  0.15310130273E+04  0.17616852517E+04  0.23739038599E+04  0.78563132469E+02 0.  0.
        254    2    1    2    0    0  0.42627638238E+03 -0.15310130273E+04 -0.10643440649E+03  0.18280075367E+04  0.89697872171E+03 0.  0.
         23    2    4    4    0    0  0.15142563104E+03 -0.74773278898E+03 -0.48777737765E+03  0.90993167532E+03  0.89525628496E+02 0.  0.
         23    2    4    4    0    0  0.27485075134E+03 -0.78328023837E+03  0.38134297116E+03  0.91807586135E+03  0.91487475768E+02 0.  0.
          4    1    3    3  502    0 -0.40525703355E+03  0.14815539570E+04  0.17191608591E+04  0.23053740369E+04  0.00000000000E+00 0. -1.
         -3    1    3    3    0  502 -0.21019348831E+02  0.49459070384E+02  0.42524392613E+02  0.68529822965E+02  0.00000000000E+00 0.  1.
         11    1    5    5    0    0  0.15112007294E+03 -0.67385143784E+03 -0.46526054527E+03  0.83269466895E+03  0.00000000000E+00 0.  1.
        -11    1    5    5    0    0  0.30555809746E+00 -0.73881351140E+02 -0.22516832383E+02  0.77237006367E+02  0.00000000000E+00 0. -1.
          3    1    6    6  503    0  0.37603804277E+01 -0.31799082758E+02 -0.17905254832E+01  0.32070673624E+02  0.00000000000E+00 0. -1.
         -3    1    6    6    0  503  0.27109037091E+03 -0.75148115561E+03  0.38313349665E+03  0.88600518773E+03  0.00000000000E+00 0.  1.
<mgrwt>
<rscale>  0 0.38621502E+04</rscale>
<asrwt>0</asrwt>
<pdfrwt beam="1">  1        2 0.45055094E+00 0.38621502E+04</pdfrwt>
<pdfrwt beam="2">  1       -1 0.19589697E+00 0.38621502E+04</pdfrwt>
<totfact> 0.28070020E-01</totfact>
</mgrwt>
</event>
<event>
12    6  0.1402540E-007  0.1919413E+04  0.7818608E-02  0.8645253E-01
         -1   -1    0    0    0  501 -0.00000000000E+00  0.00000000000E+00  0.31487072173E+03  0.31487072173E+03  0.00000000000E+00 0.  1.
          2   -1    0    0  501    0  0.00000000000E+00 -0.00000000000E+00 -0.29251266105E+04  0.29251266105E+04  0.00000000000E+00 0. -1.
         24    2    1    2    0    0 -0.64791818571E+03 -0.54840079713E+02 -0.39047240217E+03  0.76137042647E+03  0.66414002417E+02 0.  0.
        254    2    1    2    0    0  0.64791818571E+03  0.54840079713E+02 -0.22197834866E+04  0.24786269058E+04  0.89070039907E+03 0.  0.
         23    2    4    4    0    0  0.16239765107E+03  0.42538664916E+03 -0.12009152630E+04  0.12874494553E+04  0.89452963899E+02 0.  0.
         23    2    4    4    0    0  0.48552053464E+03 -0.37054656945E+03 -0.10188682236E+04  0.11911774505E+04  0.88183398114E+02 0.  0.
          4    1    3    3  502    0 -0.26719019291E+03  0.35307909344E+01 -0.13712752259E+03  0.30034484035E+03  0.00000000000E+00 0. -1.
         -3    1    3    3    0  502 -0.38072799280E+03 -0.58370870647E+02 -0.25334487959E+03  0.46102558612E+03  0.00000000000E+00 0.  1.
         11    1    5    5    0    0  0.49791134343E+02  0.57134926416E+02 -0.14700646679E+03  0.16539183219E+03  0.00000000000E+00 0. -1.
        -11    1    5    5    0    0  0.11260651673E+03  0.36825172274E+03 -0.10539087962E+04  0.11220576231E+04  0.00000000000E+00 0.  1.
          1    1    6    6  503    0  0.26160185260E+03 -0.24725622559E+03 -0.63656311332E+03  0.73128911356E+03  0.00000000000E+00 0. -1.
         -1    1    6    6    0  503  0.22391868205E+03 -0.12329034386E+03 -0.38230511032E+03  0.45988833692E+03  0.00000000000E+00 0.  1.
<mgrwt>
<rscale>  0 0.19194132E+04</rscale>
<asrwt>0</asrwt>
<pdfrwt beam="1">  1        2 0.45001950E+00 0.19194132E+04</pdfrwt>
<pdfrwt beam="2">  1       -1 0.48441647E-01 0.19194132E+04</pdfrwt>
<totfact> 0.88189835E+00</totfact>
</mgrwt>
</event>
<event>
12    6  0.1402540E-007  0.1797824E+04  0.7818608E-02  0.8707457E-01
         -1   -1    0    0    0  501 -0.00000000000E+00  0.00000000000E+00  0.22447736964E+03  0.22447736964E+03  0.00000000000E+00 0.  1.
          2   -1    0    0  501    0  0.00000000000E+00 -0.00000000000E+00 -0.35996630254E+04  0.35996630254E+04  0.00000000000E+00 0. -1.
         24    2    1    2    0    0 -0.36592208361E+03  0.56415338251E+03 -0.11835482962E+04  0.13636173006E+04  0.80607460882E+02 0.  0.
        254    2    1    2    0    0  0.36592208361E+03 -0.56415338251E+03 -0.21916373596E+04  0.24605230945E+04  0.89371783706E+03 0.  0.
         23    2    4    4    0    0 -0.75761086101E+02  0.11698738290E+03 -0.56740191436E+02  0.17439555562E+03  0.88139494945E+02 0.  0.
         23    2    4    4    0    0  0.44168316971E+03 -0.68114076541E+03 -0.21348971682E+04  0.22861275389E+04  0.97757049205E+02 0.  0.
          2    1    3    3  502    0 -0.25304805475E+03  0.33690462465E+03 -0.79047082747E+03  0.89575787644E+03  0.00000000000E+00 0. -1.
         -1    1    3    3    0  502 -0.11287402886E+03  0.22724875785E+03 -0.39307746872E+03  0.46785942414E+03  0.00000000000E+00 0.  1.
         11    1    5    5    0    0 -0.94011116409E+02  0.79142740221E+02 -0.41820176548E+02  0.12980982438E+03  0.00000000000E+00 0. -1.
        -11    1    5    5    0    0  0.18250030308E+02  0.37844642683E+02 -0.14920014888E+02  0.44585731241E+02  0.00000000000E+00 0.  1.
          1    1    6    6  503    0  0.18224712928E+03 -0.24864440633E+03 -0.93624614037E+03  0.98569513151E+03  0.00000000000E+00 0. -1.
         -1    1    6    6    0  503  0.25943604043E+03 -0.43249635908E+03 -0.11986510278E+04  0.13004324074E+04  0.00000000000E+00 0.  1.
<mgrwt>
<rscale>  0 0.17978241E+04</rscale>
<asrwt>0</asrwt>
<pdfrwt beam="1">  1        2 0.55379426E+00 0.17978241E+04</pdfrwt>
<pdfrwt beam="2">  1       -1 0.34534983E-01 0.17978241E+04</pdfrwt>
<totfact> 0.59576883E+00</totfact>
</mgrwt>
</event>
<event>
12    6  0.1402540E-007  0.1860390E+04  0.7818608E-02  0.8674828E-01
         -1   -1    0    0    0  501 -0.00000000000E+00  0.00000000000E+00  0.33090097729E+03  0.33090097729E+03  0.00000000000E+00 0.  1.
          2   -1    0    0  501    0  0.00000000000E+00 -0.00000000000E+00 -0.26148703829E+04  0.26148703829E+04  0.00000000000E+00 0. -1.
         24    2    1    2    0    0  0.63079250108E+03 -0.37698001473E+02 -0.13846126034E+04  0.15241132372E+04  0.80304293689E+02 0.  0.
        254    2    1    2    0    0 -0.63079250108E+03  0.37698001473E+02 -0.89935680221E+03  0.14216581230E+04  0.90163675739E+03 0.  0.
         23    2    4    4    0    0 -0.75766916832E+03  0.13996270041E+03 -0.95245540422E+03  0.12280495890E+04  0.85336802652E+02 0.  0.
         23    2    4    4    0    0  0.12687666724E+03 -0.10226469894E+03  0.53098602005E+02  0.19360853400E+03  0.90050239117E+02 0.  0.
          4    1    3    3  502    0  0.16535568345E+03  0.10322814859E+02 -0.43496564195E+03  0.46545050460E+03  0.00000000000E+00 0. -1.
         -1    1    3    3    0  502  0.46543681763E+03 -0.48020816332E+02 -0.94964696146E+03  0.10586627326E+04  0.00000000000E+00 0.  1.
         11    1    5    5    0    0 -0.60861505028E+03  0.79810204900E+02 -0.77458435172E+03  0.98831314175E+03  0.00000000000E+00 0. -1.
        -11    1    5    5    0    0 -0.14905411804E+03  0.60152495511E+02 -0.17787105250E+03  0.23973644725E+03  0.00000000000E+00 0.  1.
          1    1    6    6  503    0  0.61555341374E+02 -0.29382990992E+02  0.65974257632E+02  0.94894799022E+02  0.00000000000E+00 0. -1.
         -1    1    6    6    0  503  0.65321325867E+02 -0.72881707946E+02 -0.12875655628E+02  0.98713734981E+02  0.00000000000E+00 0.  1.
<mgrwt>
<rscale>  0 0.18603905E+04</rscale>
<asrwt>0</asrwt>
<pdfrwt beam="1">  1        2 0.40228774E+00 0.18603905E+04</pdfrwt>
<pdfrwt beam="2">  1       -1 0.50907844E-01 0.18603905E+04</pdfrwt>
<totfact> 0.12389646E+01</totfact>
</mgrwt>
</event>
<event>
12    6  0.1402540E-007  0.2668426E+04  0.7818608E-02  0.8345323E-01
          2   -1    0    0  501    0  0.00000000000E+00  0.00000000000E+00  0.96418147001E+03  0.96418147001E+03  0.00000000000E+00 0. -1.
         -1   -1    0    0    0  501 -0.00000000000E+00 -0.00000000000E+00 -0.18462540728E+04  0.18462540728E+04  0.00000000000E+00 0.  1.
         24    2    1    2    0    0 -0.54684774816E+03 -0.81540271898E+03  0.29955112466E+03  0.10295263205E+04  0.79180266000E+02 0.  0.
        254    2    1    2    0    0  0.54684774816E+03  0.81540271898E+03 -0.11816237274E+04  0.17809092223E+04  0.90082127586E+03 0.  0.
         23    2    4    4    0    0  0.78450859198E+03  0.55492306498E+03 -0.90692140659E+03  0.13246563466E+04  0.93886420235E+02 0.  0.
         23    2    4    4    0    0 -0.23766084382E+03  0.26047965400E+03 -0.27470232081E+03  0.45625287568E+03  0.91504069163E+02 0.  0.
          2    1    3    3  502    0 -0.42537357544E+03 -0.62834836897E+03  0.26553240427E+03  0.80391032410E+03  0.00000000000E+00 0. -1.
         -1    1    3    3    0  502 -0.12147417272E+03 -0.18705435000E+03  0.34018720391E+02  0.22561599640E+03  0.00000000000E+00 0.  1.
         11    1    5    5    0    0  0.58649391863E+03  0.45025149995E+03 -0.65773505341E+03  0.98960443122E+03  0.00000000000E+00 0. -1.
        -11    1    5    5    0    0  0.19801467335E+03  0.10467156502E+03 -0.24918635318E+03  0.33505191538E+03  0.00000000000E+00 0.  1.
          4    1    6    6  503    0 -0.10630561921E+03  0.65362386550E+02 -0.62971507283E+02  0.13978031686E+03  0.00000000000E+00 0. -1.
         -4    1    6    6    0  503 -0.13135522461E+03  0.19511726745E+03 -0.21173081353E+03  0.31647255882E+03  0.00000000000E+00 0.  1.
<mgrwt>
<rscale>  0 0.26684257E+04</rscale>
<asrwt>0</asrwt>
<pdfrwt beam="1">  1        2 0.14833561E+00 0.26684257E+04</pdfrwt>
<pdfrwt beam="2">  1       -1 0.28403909E+00 0.26684257E+04</pdfrwt>
<totfact> 0.11165848E+00</totfact>
</mgrwt>
</event>
<event>
12    6  0.1402540E-007  0.1282122E+04  0.7818608E-02  0.9043864E-01
         -1   -1    0    0    0  501 -0.00000000000E+00  0.00000000000E+00  0.15803832139E+03  0.15803832139E+03  0.00000000000E+00 0.  1.
          2   -1    0    0  501    0  0.00000000000E+00 -0.00000000000E+00 -0.26003779901E+04  0.26003779901E+04  0.00000000000E+00 0. -1.
         24    2    1    2    0    0  0.79864930271E+02 -0.30418263558E+03 -0.52363715551E+03  0.61609712776E+03  0.80463142689E+02 0.  0.
        254    2    1    2    0    0 -0.79864930271E+02  0.30418263558E+03 -0.19187025132E+04  0.21423191837E+04  0.89955915199E+03 0.  0.
         23    2    4    4    0    0 -0.15158474190E+03  0.56952544079E+03 -0.87236147494E+03  0.10567042580E+04  0.90951548598E+02 0.  0.
         23    2    4    4    0    0  0.71719811627E+02 -0.26534280521E+03 -0.10463410382E+04  0.10856149257E+04  0.90441489343E+02 0.  0.
          2    1    3    3  502    0  0.58731542960E+01 -0.81358027603E+02 -0.20227836741E+03  0.21810584705E+03  0.00000000000E+00 0. -1.
         -1    1    3    3    0  502  0.73991775975E+02 -0.22282460797E+03 -0.32135878811E+03  0.39799128071E+03  0.00000000000E+00 0.  1.
         11    1    5    5    0    0 -0.69746309862E+02  0.11625453779E+03 -0.18828840441E+03  0.23201764703E+03  0.00000000000E+00 0.  1.
        -11    1    5    5    0    0 -0.81838432036E+02  0.45327090300E+03 -0.68407307053E+03  0.82468661095E+03  0.00000000000E+00 0. -1.
          1    1    6    6  503    0  0.60772781889E+02 -0.25644713160E+03 -0.87846520751E+03  0.91714752528E+03  0.00000000000E+00 0. -1.
         -1    1    6    6    0  503  0.10947029738E+02 -0.88956736147E+01 -0.16787583074E+03  0.16846740045E+03  0.00000000000E+00 0.  1.
<mgrwt>
<rscale>  0 0.12821223E+04</rscale>
<asrwt>0</asrwt>
<pdfrwt beam="1">  1        2 0.40005817E+00 0.12821223E+04</pdfrwt>
<pdfrwt beam="2">  1       -1 0.24313587E-01 0.12821223E+04</pdfrwt>
<totfact> 0.50260329E+01</totfact>
</mgrwt>
</event>
<event>
12    6  0.1402540E-007  0.1879590E+04  0.7818608E-02  0.8665083E-01
          2   -1    0    0  501    0  0.00000000000E+00  0.00000000000E+00  0.19201357798E+04  0.19201357798E+04  0.00000000000E+00 0. -1.
         -1   -1    0    0    0  501 -0.00000000000E+00 -0.00000000000E+00 -0.45997495931E+03  0.45997495931E+03  0.00000000000E+00 0.  1.
         24    2    1    2    0    0 -0.54827098824E+03 -0.10542711418E+03  0.11408186127E+04  0.12726699636E+04  0.80658392283E+02 0.  0.
        254    2    1    2    0    0  0.54827098824E+03  0.10542711418E+03  0.31934220774E+03  0.11074407754E+04  0.90151520926E+03 0.  0.
         23    2    4    4    0    0  0.55090368648E+03  0.21760967941E+03 -0.14914072979E+03  0.61735981557E+03  0.89673520325E+02 0.  0.
         23    2    4    4    0    0 -0.26326982337E+01 -0.11218256523E+03  0.46848293753E+03  0.49008095988E+03  0.90062341955E+02 0.  0.
          4    1    3    3  502    0 -0.18177755554E+03 -0.73911666321E+02  0.40373464206E+03  0.44889606293E+03  0.00000000000E+00 0. -1.
         -3    1    3    3    0  502 -0.36649343270E+03 -0.31515447855E+02  0.73708397065E+03  0.82377390069E+03  0.00000000000E+00 0.  1.
         11    1    5    5    0    0  0.47511370057E+03  0.15202594677E+03 -0.12506909191E+03  0.51428318533E+03  0.00000000000E+00 0. -1.
        -11    1    5    5    0    0  0.75789985904E+02  0.65583732641E+02 -0.24071637879E+02  0.10307663023E+03  0.00000000000E+00 0.  1.
          3    1    6    6  503    0 -0.12122413603E+02 -0.29330223955E+02  0.30412657455E+03  0.30577800492E+03  0.00000000000E+00 0. -1.
         -3    1    6    6    0  503  0.94897153693E+01 -0.82852341278E+02  0.16435636298E+03  0.18430295495E+03  0.00000000000E+00 0.  1.
<mgrwt>
<rscale>  0 0.18795897E+04</rscale>
<asrwt>0</asrwt>
<pdfrwt beam="1">  1        2 0.29540550E+00 0.18795897E+04</pdfrwt>
<pdfrwt beam="2">  1       -1 0.70765380E-01 0.18795897E+04</pdfrwt>
<totfact> 0.15949271E+01</totfact>
</mgrwt>
</event>
<event>
12    6  0.1402540E-007  0.2208250E+04  0.7818608E-02  0.8515002E-01
          2   -1    0    0  501    0  0.00000000000E+00  0.00000000000E+00  0.15387921211E+04  0.15387921211E+04  0.00000000000E+00 0. -1.
         -1   -1    0    0    0  501 -0.00000000000E+00 -0.00000000000E+00 -0.79223956687E+03  0.79223956687E+03  0.00000000000E+00 0.  1.
         24    2    1    2    0    0  0.82000575473E+01 -0.75883415945E+03 -0.23509357763E+03  0.79831480023E+03  0.78364580857E+02 0.  0.
        254    2    1    2    0    0 -0.82000575473E+01  0.75883415945E+03  0.98164613186E+03  0.15327168877E+04  0.89983076589E+03 0.  0.
         23    2    4    4    0    0  0.19735950914E+03  0.59482115817E+03  0.10682693240E+04  0.12419641483E+04  0.92263811366E+02 0.  0.
         23    2    4    4    0    0 -0.20555956669E+03  0.16401300127E+03 -0.86623192154E+02  0.29075273946E+03  0.88761354449E+02 0.  0.
          2    1    3    3  502    0 -0.19622871787E+01 -0.68206224375E+03 -0.18730850452E+03  0.70731692386E+03  0.00000000000E+00 0. -1.
         -1    1    3    3    0  502  0.10162344726E+02 -0.76771915698E+02 -0.47785073118E+02  0.90997876366E+02  0.00000000000E+00 0.  1.
         11    1    5    5    0    0  0.19482525319E+03  0.52360141671E+03  0.98461704981E+03  0.11320715780E+04  0.00000000000E+00 0. -1.
        -11    1    5    5    0    0  0.25342559465E+01  0.71219741465E+02  0.83652274204E+02  0.10989257030E+03  0.00000000000E+00 0.  1.
          4    1    6    6  503    0 -0.16851967136E+03  0.11450542211E+03 -0.10080847335E+03  0.22731634263E+03  0.00000000000E+00 0. -1.
         -4    1    6    6    0  503 -0.37039895326E+02  0.49507579168E+02  0.14185281196E+02  0.63436396835E+02  0.00000000000E+00 0.  1.
<mgrwt>
<rscale>  0 0.22082500E+04</rscale>
<asrwt>0</asrwt>
<pdfrwt beam="1">  1        2 0.23673725E+00 0.22082500E+04</pdfrwt>
<pdfrwt beam="2">  1       -1 0.12188301E+00 0.22082500E+04</pdfrwt>
<totfact> 0.74828549E+00</totfact>
</mgrwt>
</event>
<event>
12    6  0.1402540E-007  0.1930657E+04  0.7818608E-02  0.8639745E-01
          2   -1    0    0  501    0  0.00000000000E+00  0.00000000000E+00  0.23925657976E+04  0.23925657976E+04  0.00000000000E+00 0. -1.
         -1   -1    0    0    0  501 -0.00000000000E+00 -0.00000000000E+00 -0.38948103941E+03  0.38948103941E+03  0.00000000000E+00 0.  1.
         24    2    1    2    0    0 -0.35658138215E+03  0.17557351854E+02 -0.17065742326E+03  0.40393314427E+03  0.81114032229E+02 0.  0.
        254    2    1    2    0    0  0.35658138215E+03 -0.17557351854E+02  0.21737421814E+04  0.23781136927E+04  0.89599727762E+03 0.  0.
         23    2    4    4    0    0  0.20352258754E+03  0.11145737905E+03  0.21398286359E+04  0.21542657447E+04  0.90277995812E+02 0.  0.
         23    2    4    4    0    0  0.15305879461E+03 -0.12901473090E+03  0.33913545522E+02  0.22384794808E+03  0.94265475603E+02 0.  0.
          2    1    3    3  502    0 -0.22989535497E+03 -0.27750853247E+02 -0.10878970674E+03  0.25584601694E+03  0.00000000000E+00 0. -1.
         -1    1    3    3    0  502 -0.12668602718E+03  0.45308205102E+02 -0.61867716525E+02  0.14808712733E+03  0.00000000000E+00 0.  1.
         11    1    5    5    0    0  0.14596734580E+03  0.10671799693E+03  0.18446455914E+04  0.18534865942E+04  0.00000000000E+00 0. -1.
        -11    1    5    5    0    0  0.57555241746E+02  0.47393821195E+01  0.29518304448E+03  0.30077915045E+03  0.00000000000E+00 0.  1.
          3    1    6    6  503    0  0.13614457523E+03 -0.81343951494E+02 -0.70614445523E+01  0.15875152853E+03  0.00000000000E+00 0. -1.
         -3    1    6    6    0  503  0.16914219375E+02 -0.47670779410E+02  0.40974990075E+02  0.65096419550E+02  0.00000000000E+00 0.  1.
<mgrwt>
<rscale>  0 0.19306569E+04</rscale>
<asrwt>0</asrwt>
<pdfrwt beam="1">  1        2 0.36808704E+00 0.19306569E+04</pdfrwt>
<pdfrwt beam="2">  1       -1 0.59920162E-01 0.19306569E+04</pdfrwt>
<totfact> 0.12064350E+01</totfact>
</mgrwt>
</event>
<event>
12    6  0.1402540E-007  0.2331614E+04  0.7818608E-02  0.8465559E-01
          2   -1    0    0  501    0  0.00000000000E+00  0.00000000000E+00  0.16642071890E+04  0.16642071890E+04  0.00000000000E+00 0. -1.
         -1   -1    0    0    0  501 -0.00000000000E+00 -0.00000000000E+00 -0.81666878436E+03  0.81666878436E+03  0.00000000000E+00 0.  1.
         24    2    1    2    0    0  0.56350753858E+03 -0.57189506598E+03 -0.25347903949E+03  0.84473914153E+03  0.68759590150E+02 0.  0.
        254    2    1    2    0    0 -0.56350753858E+03  0.57189506598E+03  0.11010174441E+04  0.16361368318E+04  0.90559351129E+03 0.  0.
         23    2    4    4    0    0 -0.42121910314E+03  0.56002588693E+03  0.22199478372E+03  0.74101861917E+03  0.93661000782E+02 0.  0.
         23    2    4    4    0    0 -0.14228843544E+03  0.11869179053E+02  0.87902266043E+03  0.89511821268E+03  0.90381972026E+02 0.  0.
          4    1    3    3  502    0  0.12692175193E+03 -0.10337674758E+03 -0.74119123783E+02  0.17969287010E+03  0.00000000000E+00 0. -1.
         -3    1    3    3    0  502  0.43658578665E+03 -0.46851831840E+03 -0.17935991571E+03  0.66504627143E+03  0.00000000000E+00 0.  1.
         11    1    5    5    0    0 -0.42499274281E+03  0.55355187399E+03  0.21376033318E+03  0.72988491468E+03  0.00000000000E+00 0. -1.
        -11    1    5    5    0    0  0.37736396625E+01  0.64740129385E+01  0.82344505448E+01  0.11133704487E+02  0.00000000000E+00 0.  1.
          2    1    6    6  503    0 -0.47229542336E+02 -0.38918094150E+02  0.32321892375E+03  0.32896157889E+03  0.00000000000E+00 0. -1.
         -2    1    6    6    0  503 -0.95058893099E+02  0.50787273202E+02  0.55580373668E+03  0.56615663379E+03  0.00000000000E+00 0.  1.
<mgrwt>
<rscale>  0 0.23316141E+04</rscale>
<asrwt>0</asrwt>
<pdfrwt beam="1">  1        2 0.25603187E+00 0.23316141E+04</pdfrwt>
<pdfrwt beam="2">  1       -1 0.12564135E+00 0.23316141E+04</pdfrwt>
<totfact> 0.58419189E+00</totfact>
</mgrwt>
</event>
<event>
12    6  0.1402540E-007  0.1501250E+04  0.7818608E-02  0.8883622E-01
          4   -1    0    0  501    0  0.00000000000E+00  0.00000000000E+00  0.77132748834E+03  0.77132748834E+03  0.00000000000E+00 0. -1.
         -3   -1    0    0    0  501 -0.00000000000E+00 -0.00000000000E+00 -0.73047823188E+03  0.73047823188E+03  0.00000000000E+00 0.  1.
         24    2    1    2    0    0 -0.43916850591E+03  0.18161625666E+03  0.41312534615E+02  0.48359698982E+03  0.79409582377E+02 0.  0.
        254    2    1    2    0    0  0.43916850591E+03 -0.18161625666E+03 -0.46327814852E+00  0.10182087304E+04  0.90049728638E+03 0.  0.
         23    2    4    4    0    0  0.47622666162E+03 -0.47724379084E+03  0.10384279132E+03  0.68882085948E+03  0.95589654306E+02 0.  0.
         23    2    4    4    0    0 -0.37058155709E+02  0.29562753418E+03 -0.10430606947E+03  0.32938787092E+03  0.94062040770E+02 0.  0.
          2    1    3    3  502    0 -0.29542618278E+03  0.13470917661E+03  0.63306596854E+02  0.33080344155E+03  0.00000000000E+00 0. -1.
         -1    1    3    3    0  502 -0.14374232313E+03  0.46907080054E+02 -0.21994062239E+02  0.15279354827E+03  0.00000000000E+00 0.  1.
         11    1    5    5    0    0  0.21764441960E+03 -0.28413777748E+03  0.64864175027E+02  0.36374542083E+03  0.00000000000E+00 0. -1.
        -11    1    5    5    0    0  0.25858224202E+03 -0.19310601337E+03  0.38978616292E+02  0.32507543865E+03  0.00000000000E+00 0.  1.
          2    1    6    6  503    0 -0.64818373830E+02  0.23600156599E+03 -0.96802254987E+02  0.26318973632E+03  0.00000000000E+00 0.  1.
         -2    1    6    6    0  503  0.27760218121E+02  0.59625968187E+02 -0.75038144814E+01  0.66198134597E+02  0.00000000000E+00 0. -1.
<mgrwt>
<rscale>  0 0.15012501E+04</rscale>
<asrwt>0</asrwt>
<pdfrwt beam="1">  1        4 0.11866577E+00 0.15012501E+04</pdfrwt>
<pdfrwt beam="2">  1       -3 0.11238127E+00 0.15012501E+04</pdfrwt>
<totfact> 0.79702455E-01</totfact>
</mgrwt>
</event>
<event>
12    6  0.1402540E-007  0.3124312E+04  0.7818608E-02  0.8209097E-01
          2   -1    0    0  501    0  0.00000000000E+00  0.00000000000E+00  0.11664184016E+04  0.11664184016E+04  0.00000000000E+00 0. -1.
         -1   -1    0    0    0  501 -0.00000000000E+00 -0.00000000000E+00 -0.20921576650E+04  0.20921576650E+04  0.00000000000E+00 0.  1.
         24    2    1    2    0    0  0.11596505324E+04  0.69167252399E+03  0.71162743845E+02  0.13544052155E+04  0.78416284795E+02 0.  0.
        254    2    1    2    0    0 -0.11596505324E+04 -0.69167252399E+03 -0.99690200724E+03  0.19041708512E+04  0.89936243013E+03 0.  0.
         23    2    4    4    0    0 -0.14302978099E+03 -0.46757423458E+03 -0.61579129871E+03  0.79203793130E+03  0.95089315688E+02 0.  0.
         23    2    4    4    0    0 -0.10166207515E+04 -0.22409828941E+03 -0.38111070853E+03  0.11121329199E+04  0.88636695474E+02 0.  0.
          2    1    3    3  502    0  0.77303834935E+03  0.43469480676E+03  0.76285149269E+02  0.89015014946E+03  0.00000000000E+00 0. -1.
         -1    1    3    3    0  502  0.38661218309E+03  0.25697771723E+03 -0.51224054242E+01  0.46425506600E+03  0.00000000000E+00 0.  1.
         11    1    5    5    0    0 -0.55869312371E+02 -0.15191816409E+03 -0.13749528972E+03  0.21238046836E+03  0.00000000000E+00 0. -1.
        -11    1    5    5    0    0 -0.87160468615E+02 -0.31565607049E+03 -0.47829600899E+03  0.57965746294E+03  0.00000000000E+00 0.  1.
          2    1    6    6  503    0 -0.91992462792E+03 -0.17899717953E+03 -0.35604273087E+03  0.10025306666E+04  0.00000000000E+00 0.  1.
         -2    1    6    6    0  503 -0.96696123533E+02 -0.45101109881E+02 -0.25067977653E+02  0.10960225327E+03  0.00000000000E+00 0. -1.
<mgrwt>
<rscale>  0 0.31243119E+04</rscale>
<asrwt>0</asrwt>
<pdfrwt beam="1">  1        2 0.17944899E+00 0.31243119E+04</pdfrwt>
<pdfrwt beam="2">  1       -1 0.32187041E+00 0.31243119E+04</pdfrwt>
<totfact> 0.45571119E-01</totfact>
</mgrwt>
</event>
<event>
12    6  0.1402540E-007  0.2355188E+04  0.7818608E-02  0.8456474E-01
         -1   -1    0    0    0  501 -0.00000000000E+00  0.00000000000E+00  0.92544230742E+03  0.92544230742E+03  0.00000000000E+00 0.  1.
          2   -1    0    0  501    0  0.00000000000E+00 -0.00000000000E+00 -0.14984480810E+04  0.14984480810E+04  0.00000000000E+00 0. -1.
         24    2    1    2    0    0  0.19768122397E+03  0.62833323355E+03 -0.10215092321E+04  0.12180452211E+04  0.79199309808E+02 0.  0.
        254    2    1    2    0    0 -0.19768122397E+03 -0.62833323355E+03  0.44850345846E+03  0.12058451674E+04  0.90500093742E+03 0.  0.
         23    2    4    4    0    0  0.52832358274E+02  0.88215684349E+02  0.41863093401E+03  0.44066261432E+03  0.91424371492E+02 0.  0.
         23    2    4    4    0    0 -0.25051358224E+03 -0.71654891790E+03  0.29872524451E+02  0.76518255305E+03  0.91720036789E+02 0.  0.
          4    1    3    3  502    0  0.15075099321E+02  0.23171615085E+02 -0.74402339565E+02  0.79371849531E+02  0.00000000000E+00 0. -1.
         -3    1    3    3    0  502  0.18260612465E+03  0.60516161846E+03 -0.94710689250E+03  0.11386733715E+04  0.00000000000E+00 0.  1.
         11    1    5    5    0    0  0.28618264967E+02  0.60392914042E+01  0.24814061426E+03  0.24985844508E+03  0.00000000000E+00 0. -1.
        -11    1    5    5    0    0  0.24214093307E+02  0.82176392945E+02  0.17049031975E+03  0.19080416924E+03  0.00000000000E+00 0.  1.
          1    1    6    6  503    0 -0.11852477993E+03 -0.23505655628E+03  0.37262173731E+02  0.26587248391E+03  0.00000000000E+00 0. -1.
         -1    1    6    6    0  503 -0.13198880231E+03 -0.48149236162E+03 -0.73896492800E+01  0.49931006915E+03  0.00000000000E+00 0.  1.
<mgrwt>
<rscale>  0 0.23551877E+04</rscale>
<asrwt>0</asrwt>
<pdfrwt beam="1">  1        2 0.23053047E+00 0.23551877E+04</pdfrwt>
<pdfrwt beam="2">  1       -1 0.14237574E+00 0.23551877E+04</pdfrwt>
<totfact> 0.52442738E+00</totfact>
</mgrwt>
</event>
<event>
12    6  0.1402540E-007  0.2677281E+04  0.7818608E-02  0.8342414E-01
          2   -1    0    0  501    0  0.00000000000E+00  0.00000000000E+00  0.11718594530E+04  0.11718594530E+04  0.00000000000E+00 0. -1.
         -1   -1    0    0    0  501 -0.00000000000E+00 -0.00000000000E+00 -0.15291576452E+04  0.15291576452E+04  0.00000000000E+00 0.  1.
         24    2    1    2    0    0  0.81848058761E+03  0.85105898409E+03 -0.48672301500E+02  0.11844042384E+04  0.78946439118E+02 0.  0.
        254    2    1    2    0    0 -0.81848058761E+03 -0.85105898409E+03 -0.30862589074E+03  0.15166128598E+04  0.90036257101E+03 0.  0.
         23    2    4    4    0    0 -0.79746928187E+03 -0.42480010963E+03  0.10644813022E+03  0.91451853079E+03  0.92739150645E+02 0.  0.
         23    2    4    4    0    0 -0.21011305746E+02 -0.42625887446E+03 -0.41507402097E+03  0.60209432898E+03  0.89961297716E+02 0.  0.
          2    1    3    3  502    0  0.41748336925E+03  0.39829198325E+03 -0.54469156209E+02  0.57956514431E+03  0.00000000000E+00 0. -1.
         -1    1    3    3    0  502  0.40099721836E+03  0.45276700085E+03  0.57968547089E+01  0.60483909407E+03  0.00000000000E+00 0.  1.
         11    1    5    5    0    0 -0.28335090505E+03 -0.10178487774E+03  0.30620627001E+02  0.30263099565E+03  0.00000000000E+00 0.  1.
        -11    1    5    5    0    0 -0.51411837681E+03 -0.32301523189E+03  0.75827503221E+02  0.61188753514E+03  0.00000000000E+00 0. -1.
          1    1    6    6  503    0  0.28478001667E+02 -0.62605692181E+02 -0.56688852546E+02  0.89129654299E+02  0.00000000000E+00 0. -1.
         -1    1    6    6    0  503 -0.49489307413E+02 -0.36365318228E+03 -0.35838516842E+03  0.51296467469E+03  0.00000000000E+00 0.  1.
<mgrwt>
<rscale>  0 0.26772806E+04</rscale>
<asrwt>0</asrwt>
<pdfrwt beam="1">  1        2 0.18028607E+00 0.26772806E+04</pdfrwt>
<pdfrwt beam="2">  1       -1 0.23525502E+00 0.26772806E+04</pdfrwt>
<totfact> 0.17184740E+00</totfact>
</mgrwt>
</event>
<event>
12    6  0.1402540E-007  0.1519018E+04  0.7818608E-02  0.8871904E-01
          2   -1    0    0  501    0  0.00000000000E+00  0.00000000000E+00  0.55450039871E+03  0.55450039871E+03  0.00000000000E+00 0. -1.
         -1   -1    0    0    0  501 -0.00000000000E+00 -0.00000000000E+00 -0.10403130647E+04  0.10403130647E+04  0.00000000000E+00 0.  1.
         24    2    1    2    0    0  0.32776007021E+03  0.17898268927E+03  0.17399362397E+03  0.41966885625E+03  0.79916838278E+02 0.  0.
        254    2    1    2    0    0 -0.32776007021E+03 -0.17898268927E+03 -0.65980628999E+03  0.11751446072E+04  0.89786359811E+03 0.  0.
         23    2    4    4    0    0 -0.26581181010E+03 -0.68029310766E+02  0.16674449697E+03  0.33397371131E+03  0.91928271282E+02 0.  0.
         23    2    4    4    0    0 -0.61948260109E+02 -0.11095337850E+03 -0.82655078697E+03  0.84117089588E+03  0.90741575429E+02 0.  0.
          2    1    3    3  502    0  0.32727920801E+03  0.17831482375E+03  0.17979849487E+03  0.41380593897E+03  0.00000000000E+00 0. -1.
         -1    1    3    3    0  502  0.48086219443E+00  0.66786551878E+00 -0.58048709034E+01  0.58629172778E+01  0.00000000000E+00 0.  1.
         11    1    5    5    0    0 -0.21658191121E+03 -0.70571280614E+02  0.94726812895E+02  0.24670062625E+03  0.00000000000E+00 0. -1.
        -11    1    5    5    0    0 -0.49229898893E+02  0.25419698480E+01  0.72017684078E+02  0.87273085059E+02  0.00000000000E+00 0.  1.
          1    1    6    6  503    0  0.17929188978E+02 -0.97260783354E+01 -0.22676865037E+03  0.22768415230E+03  0.00000000000E+00 0. -1.
         -1    1    6    6    0  503 -0.79877449086E+02 -0.10122730017E+03 -0.59978213659E+03  0.61348674358E+03  0.00000000000E+00 0.  1.
<mgrwt>
<rscale>  0 0.15190181E+04</rscale>
<asrwt>0</asrwt>
<pdfrwt beam="1">  1        2 0.85307755E-01 0.15190181E+04</pdfrwt>
<pdfrwt beam="2">  1       -1 0.16004816E+00 0.15190181E+04</pdfrwt>
<totfact> 0.17554547E+01</totfact>
</mgrwt>
</event>
<event>
12    6  0.1402540E-007  0.2110083E+04  0.7818608E-02  0.8556815E-01
          2   -1    0    0  501    0  0.00000000000E+00  0.00000000000E+00  0.38070148862E+04  0.38070148862E+04  0.00000000000E+00 0. -1.
         -1   -1    0    0    0  501 -0.00000000000E+00 -0.00000000000E+00 -0.29238448282E+03  0.29238448282E+03  0.00000000000E+00 0.  1.
         24    2    1    2    0    0 -0.29794566175E+03  0.73753109566E+03  0.20771170758E+04  0.22256443745E+04  0.79710730037E+02 0.  0.
        254    2    1    2    0    0  0.29794566175E+03 -0.73753109566E+03  0.14375133275E+04  0.18737549946E+04  0.90099360614E+03 0.  0.
         23    2    4    4    0    0 -0.85069511019E+02 -0.74857770160E+03  0.67639927263E+03  0.10165226813E+04  0.90537221992E+02 0.  0.
         23    2    4    4    0    0  0.38301517277E+03  0.11046605939E+02  0.76111405492E+03  0.85723231324E+03  0.93434384472E+02 0.  0.
          4    1    3    3  502    0 -0.51953239926E+02  0.21656904361E+03  0.54142531732E+03  0.58544228069E+03  0.00000000000E+00 0. -1.
         -3    1    3    3    0  502 -0.24599242182E+03  0.52096205205E+03  0.15356917585E+04  0.16402020938E+04  0.00000000000E+00 0.  1.
         11    1    5    5    0    0 -0.70958571319E+02 -0.53735300234E+03  0.43145423244E+03  0.69277422200E+03  0.00000000000E+00 0. -1.
        -11    1    5    5    0    0 -0.14110939700E+02 -0.21122469926E+03  0.24494504019E+03  0.32374845931E+03  0.00000000000E+00 0.  1.
          4    1    6    6  503    0  0.26192592920E+03 -0.31034085660E+02  0.55535194171E+03  0.61480410378E+03  0.00000000000E+00 0. -1.
         -4    1    6    6    0  503  0.12108924357E+03  0.42080691599E+02  0.20576211321E+03  0.24242820946E+03  0.00000000000E+00 0.  1.
<mgrwt>
<rscale>  0 0.21100825E+04</rscale>
<asrwt>0</asrwt>
<pdfrwt beam="1">  1        2 0.58569456E+00 0.21100825E+04</pdfrwt>
<pdfrwt beam="2">  1       -1 0.44982231E-01 0.21100825E+04</pdfrwt>
<totfact> 0.25084711E+00</totfact>
</mgrwt>
</event>
<event>
12    6  0.1402540E-007  0.2499698E+04  0.7818608E-02  0.8403093E-01
         -1   -1    0    0    0  501 -0.00000000000E+00  0.00000000000E+00  0.15982370660E+04  0.15982370660E+04  0.00000000000E+00 0.  1.
          2   -1    0    0  501    0  0.00000000000E+00 -0.00000000000E+00 -0.97740356721E+03  0.97740356721E+03  0.00000000000E+00 0. -1.
         24    2    1    2    0    0 -0.93691787581E+02 -0.10778481514E+04  0.17217758407E+03  0.10983883250E+04  0.79227541634E+02 0.  0.
        254    2    1    2    0    0  0.93691787581E+02  0.10778481514E+04  0.44865591470E+03  0.14772523082E+04  0.90024855670E+03 0.  0.
         23    2    4    4    0    0 -0.67607410643E+02 -0.10113086267E+03 -0.76691262035E+02  0.17323584558E+03  0.96596558749E+02 0.  0.
         23    2    4    4    0    0  0.16129919822E+03  0.11789790141E+04  0.52534717673E+03  0.13040164627E+04  0.91980062009E+02 0.  0.
          4    1    3    3  502    0 -0.44932878541E+02 -0.21677897513E+03  0.16488431547E+02  0.22199990092E+03  0.00000000000E+00 0. -1.
         -3    1    3    3    0  502 -0.48758909039E+02 -0.86106917629E+03  0.15568915252E+03  0.87638842403E+03  0.00000000000E+00 0.  1.
         11    1    5    5    0    0  0.99731073835E+00 -0.19691845914E+02 -0.62832368445E+02  0.65853397396E+02  0.00000000000E+00 0.  1.
        -11    1    5    5    0    0 -0.68604721382E+02 -0.81439016752E+02 -0.13858893590E+02  0.10738244818E+03  0.00000000000E+00 0. -1.
          4    1    6    6  503    0  0.13176658778E+03  0.10388390461E+04  0.43027792221E+03  0.11321166405E+04  0.00000000000E+00 0. -1.
         -4    1    6    6    0  503  0.29532610440E+02  0.14013996801E+03  0.95069254527E+02  0.17189982220E+03  0.00000000000E+00 0.  1.
<mgrwt>
<rscale>  0 0.24996981E+04</rscale>
<asrwt>0</asrwt>
<pdfrwt beam="1">  1        2 0.15036978E+00 0.24996981E+04</pdfrwt>
<pdfrwt beam="2">  1       -1 0.24588263E+00 0.24996981E+04</pdfrwt>
<totfact> 0.19650573E+00</totfact>
</mgrwt>
</event>
<event>
12    6  0.1402540E-007  0.2713519E+04  0.7818608E-02  0.8330632E-01
          4   -1    0    0  501    0  0.00000000000E+00  0.00000000000E+00  0.10686217143E+04  0.10686217143E+04  0.00000000000E+00 0. -1.
         -3   -1    0    0    0  501 -0.00000000000E+00 -0.00000000000E+00 -0.17225891505E+04  0.17225891505E+04  0.00000000000E+00 0.  1.
         24    2    1    2    0    0 -0.16733176671E+03  0.56010617751E+03  0.79399053080E+03  0.98918253114E+03  0.79638349265E+02 0.  0.
        254    2    1    2    0    0  0.16733176671E+03 -0.56010617751E+03 -0.14479579670E+04  0.18020283336E+04  0.89944704725E+03 0.  0.
         23    2    4    4    0    0  0.50523915547E+03 -0.31647829061E+03 -0.59074071418E+03  0.84455745473E+03  0.94220965317E+02 0.  0.
         23    2    4    4    0    0 -0.33790738876E+03 -0.24362788690E+03 -0.85721725283E+03  0.95747087892E+03  0.91613944172E+02 0.  0.
          2    1    3    3  502    0 -0.11409550460E+03  0.46913764356E+03  0.67949261246E+03  0.83355751041E+03  0.00000000000E+00 0. -1.
         -1    1    3    3    0  502 -0.53236262106E+02  0.90968533947E+02  0.11449791834E+03  0.15562502073E+03  0.00000000000E+00 0.  1.
         11    1    5    5    0    0  0.34556355996E+03 -0.17201181193E+03 -0.41342718311E+03  0.56561848728E+03  0.00000000000E+00 0.  1.
        -11    1    5    5    0    0  0.15967559551E+03 -0.14446647868E+03 -0.17731353107E+03  0.27893896746E+03  0.00000000000E+00 0. -1.
          3    1    6    6  503    0 -0.61903474976E+01 -0.30536054294E+02 -0.82791798170E+02  0.88460459292E+02  0.00000000000E+00 0. -1.
         -3    1    6    6    0  503 -0.33171704126E+03 -0.21309183261E+03 -0.77442545466E+03  0.86901041962E+03  0.00000000000E+00 0.  1.
<mgrwt>
<rscale>  0 0.27135189E+04</rscale>
<asrwt>0</asrwt>
<pdfrwt beam="1">  1        4 0.16440334E+00 0.27135189E+04</pdfrwt>
<pdfrwt beam="2">  1       -3 0.26501371E+00 0.27135189E+04</pdfrwt>
<totfact> 0.27762859E-02</totfact>
</mgrwt>
</event>
<event>
12    6  0.1402540E-007  0.1379629E+04  0.7818608E-02  0.8968698E-01
          2   -1    0    0  501    0  0.00000000000E+00  0.00000000000E+00  0.11042866541E+04  0.11042866541E+04  0.00000000000E+00 0. -1.
         -1   -1    0    0    0  501 -0.00000000000E+00 -0.00000000000E+00 -0.43090623439E+03  0.43090623439E+03  0.00000000000E+00 0.  1.
         24    2    1    2    0    0 -0.32953134530E+03  0.19180337243E+03  0.29382254710E+03  0.48703161460E+03  0.74085512925E+02 0.  0.
        254    2    1    2    0    0  0.32953134530E+03 -0.19180337243E+03  0.37955787264E+03  0.10481612739E+04  0.89955457659E+03 0.  0.
         23    2    4    4    0    0  0.38767475897E+02  0.22643463321E+03  0.46228922031E+03  0.52428192730E+03  0.91567765993E+02 0.  0.
         23    2    4    4    0    0  0.29076386940E+03 -0.41823800564E+03 -0.82731347667E+02  0.52387934663E+03  0.90213285203E+02 0.  0.
          4    1    3    3  502    0 -0.19862669431E+03  0.89040213945E+02  0.20199834282E+03  0.29695800022E+03  0.00000000000E+00 0. -1.
         -3    1    3    3    0  502 -0.13090465098E+03  0.10276315849E+03  0.91824204283E+02  0.19007361438E+03  0.00000000000E+00 0.  1.
         11    1    5    5    0    0  0.69073746965E+02  0.15734926539E+03  0.31797451089E+03  0.36143846422E+03  0.00000000000E+00 0.  1.
        -11    1    5    5    0    0 -0.30306271068E+02  0.69085367824E+02  0.14431470942E+03  0.16284346308E+03  0.00000000000E+00 0. -1.
          2    1    6    6  503    0  0.17773246349E+03 -0.18160891233E+03 -0.24777584080E+02  0.25531265987E+03  0.00000000000E+00 0. -1.
         -2    1    6    6    0  503  0.11303140591E+03 -0.23662909332E+03 -0.57953763587E+02  0.26856668676E+03  0.00000000000E+00 0.  1.
<mgrwt>
<rscale>  0 0.13796289E+04</rscale>
<asrwt>0</asrwt>
<pdfrwt beam="1">  1        2 0.16989025E+00 0.13796289E+04</pdfrwt>
<pdfrwt beam="2">  1       -1 0.66293267E-01 0.13796289E+04</pdfrwt>
<totfact> 0.55510979E+01</totfact>
</mgrwt>
</event>
<event>
12    6  0.1402540E-007  0.1680136E+04  0.7818608E-02  0.8772775E-01
         -1   -1    0    0    0  501 -0.00000000000E+00  0.00000000000E+00  0.23989168141E+03  0.23989168141E+03  0.00000000000E+00 0.  1.
          2   -1    0    0  501    0  0.00000000000E+00 -0.00000000000E+00 -0.29418048289E+04  0.29418048289E+04  0.00000000000E+00 0. -1.
         24    2    1    2    0    0 -0.10948236790E+03  0.58503577548E+03 -0.99468960155E+03  0.11618407990E+04  0.78825067300E+02 0.  0.
        254    2    1    2    0    0  0.10948236790E+03 -0.58503577548E+03 -0.17072235459E+04  0.20198557113E+04  0.90052851779E+03 0.  0.
         23    2    4    4    0    0  0.61382514480E+02  0.15304781457E+03 -0.41281380223E+02  0.19483686949E+03  0.95214530038E+02 0.  0.
         23    2    4    4    0    0  0.48099853419E+02 -0.73808359004E+03 -0.16659421657E+04  0.18250188418E+04  0.90826713157E+02 0.  0.
          2    1    3    3  502    0 -0.56750011487E+02  0.19918558655E+03 -0.40977497754E+03  0.45914158373E+03  0.00000000000E+00 0. -1.
         -1    1    3    3    0  502 -0.52732356413E+02  0.38585018892E+03 -0.58491462401E+03  0.70269921523E+03  0.00000000000E+00 0.  1.
         11    1    5    5    0    0  0.34137288096E+02  0.15754626401E+03 -0.43972162658E+02  0.16709198315E+03  0.00000000000E+00 0.  1.
        -11    1    5    5    0    0  0.27245226384E+02 -0.44984494416E+01  0.26907824350E+01  0.27744886343E+02  0.00000000000E+00 0. -1.
          1    1    6    6  503    0  0.58935573253E+02 -0.25607750980E+03 -0.61283688622E+03  0.66679692706E+03  0.00000000000E+00 0. -1.
         -1    1    6    6    0  503 -0.10835719834E+02 -0.48200608024E+03 -0.10531052795E+04  0.11582219148E+04  0.00000000000E+00 0.  1.
<mgrwt>
<rscale>  0 0.16801363E+04</rscale>
<asrwt>0</asrwt>
<pdfrwt beam="1">  1        2 0.45258534E+00 0.16801363E+04</pdfrwt>
<pdfrwt beam="2">  1       -1 0.36906414E-01 0.16801363E+04</pdfrwt>
<totfact> 0.14553102E+01</totfact>
</mgrwt>
</event>
<event>
12    6  0.1402540E-007  0.4481814E+04  0.7818608E-02  0.7913828E-01
         -1   -1    0    0    0  501 -0.00000000000E+00  0.00000000000E+00  0.27389808340E+04  0.27389808340E+04  0.00000000000E+00 0.  1.
          2   -1    0    0  501    0  0.00000000000E+00 -0.00000000000E+00 -0.18334059320E+04  0.18334059320E+04  0.00000000000E+00 0. -1.
         24    2    1    2    0    0 -0.17675618347E+04  0.10966992940E+04 -0.11914171633E+03  0.20850304639E+04  0.78314147933E+02 0.  0.
        254    2    1    2    0    0  0.17675618347E+04 -0.10966992940E+04  0.10247166183E+04  0.24873563021E+04  0.89992946650E+03 0.  0.
         23    2    4    4    0    0  0.79496833086E+03 -0.10045205331E+04  0.54252964621E+03  0.13941306890E+04  0.90696264293E+02 0.  0.
         23    2    4    4    0    0  0.97259350387E+03 -0.92178760896E+02  0.48218697204E+03  0.10932256131E+04  0.90569958763E+02 0.  0.
          2    1    3    3  502    0 -0.10508991535E+04  0.60692009053E+03 -0.74056301122E+02  0.12158229159E+04  0.00000000000E+00 0. -1.
         -1    1    3    3    0  502 -0.71666268128E+03  0.48977920349E+03 -0.45085415208E+02  0.86920754804E+03  0.00000000000E+00 0.  1.
         11    1    5    5    0    0  0.46327606860E+03 -0.64105449912E+03  0.30457031471E+03  0.84754861995E+03  0.00000000000E+00 0.  1.
        -11    1    5    5    0    0  0.33169226226E+03 -0.36346603401E+03  0.23795933151E+03  0.54658206902E+03  0.00000000000E+00 0. -1.
          3    1    6    6  503    0  0.12427498445E+02  0.61396315804E+01  0.16555887825E+02  0.21592480525E+02  0.00000000000E+00 0. -1.
         -3    1    6    6    0  503  0.96016600543E+03 -0.98318392476E+02  0.46563108421E+03  0.10716331326E+04  0.00000000000E+00 0.  1.
<mgrwt>
<rscale>  0 0.44818138E+04</rscale>
<asrwt>0</asrwt>
<pdfrwt beam="1">  1        2 0.28206245E+00 0.44818138E+04</pdfrwt>
<pdfrwt beam="2">  1       -1 0.42138167E+00 0.44818138E+04</pdfrwt>
<totfact> 0.36445006E-02</totfact>
</mgrwt>
</event>
<event>
12    6  0.1402540E-007  0.1405162E+04  0.7818608E-02  0.8950090E-01
          4   -1    0    0  501    0  0.00000000000E+00  0.00000000000E+00  0.19748916111E+03  0.19748916111E+03  0.00000000000E+00 0. -1.
         -3   -1    0    0    0  501 -0.00000000000E+00 -0.00000000000E+00 -0.24994806496E+04  0.24994806496E+04  0.00000000000E+00 0.  1.
         24    2    1    2    0    0  0.25182536518E+03  0.15305818124E+03 -0.12272408772E+04  0.12647554817E+04  0.81507278904E+02 0.  0.
        254    2    1    2    0    0 -0.25182536518E+03 -0.15305818124E+03 -0.10747506112E+04  0.14322143289E+04  0.89961446534E+03 0.  0.
         23    2    4    4    0    0  0.29497063173E+03 -0.11044513004E+03 -0.16751767588E+03  0.36826794601E+03  0.91396433158E+02 0.  0.
         23    2    4    4    0    0 -0.54679599691E+03 -0.42613051197E+02 -0.90723293536E+03  0.10639463829E+04  0.90047611585E+02 0.  0.
          4    1    3    3  502    0  0.25210405124E+03  0.13303290983E+03 -0.11233494976E+04  0.11589513801E+04  0.00000000000E+00 0. -1.
         -3    1    3    3    0  502 -0.27868605822E+00  0.20025271408E+02 -0.10389137963E+03  0.10580410163E+03  0.00000000000E+00 0.  1.
         11    1    5    5    0    0  0.12436205268E+03 -0.36842712321E+01 -0.85371699656E+02  0.15089009611E+03  0.00000000000E+00 0.  1.
        -11    1    5    5    0    0  0.17060857905E+03 -0.10676085881E+03 -0.82145976229E+02  0.21737784991E+03  0.00000000000E+00 0. -1.
          1    1    6    6  503    0 -0.29121547949E+03  0.21199240452E+02 -0.45714767431E+03  0.54243880707E+03  0.00000000000E+00 0. -1.
         -1    1    6    6    0  503 -0.25558051742E+03 -0.63812291649E+02 -0.45008526106E+03  0.52150757585E+03  0.00000000000E+00 0.  1.
<mgrwt>
<rscale>  0 0.14051624E+04</rscale>
<asrwt>0</asrwt>
<pdfrwt beam="1">  1        4 0.30382948E-01 0.14051624E+04</pdfrwt>
<pdfrwt beam="2">  1       -3 0.38453549E+00 0.14051624E+04</pdfrwt>
<totfact> 0.30539138E-01</totfact>
</mgrwt>
</event>
<event>
12    6  0.1402540E-007  0.2296449E+04  0.7818608E-02  0.8479322E-01
         -3   -1    0    0    0  501 -0.00000000000E+00  0.00000000000E+00  0.12232164386E+04  0.12232164386E+04  0.00000000000E+00 0.  1.
          4   -1    0    0  501    0  0.00000000000E+00 -0.00000000000E+00 -0.10778304428E+04  0.10778304428E+04  0.00000000000E+00 0. -1.
         24    2    1    2    0    0  0.68756136157E+03 -0.67991951041E+03  0.13809997744E+03  0.97998363188E+03  0.79152690656E+02 0.  0.
        254    2    1    2    0    0 -0.68756136157E+03  0.67991951041E+03  0.72860183615E+01  0.13210632496E+04  0.90006880673E+03 0.  0.
         23    2    4    4    0    0  0.14047287520E+02  0.28598982185E+03  0.33202641035E+03  0.44864798234E+03  0.95162862461E+02 0.  0.
         23    2    4    4    0    0 -0.70160864909E+03  0.39392968855E+03 -0.32474039199E+03  0.87241526727E+03  0.90646458167E+02 0.  0.
          2    1    3    3  502    0  0.34375406826E+03 -0.38310190374E+03  0.48240705039E+02  0.51697301063E+03  0.00000000000E+00 0. -1.
         -1    1    3    3    0  502  0.34380729331E+03 -0.29681760666E+03  0.89859272403E+02  0.46301062126E+03  0.00000000000E+00 0.  1.
         11    1    5    5    0    0 -0.13690794994E+02  0.48377330333E+01  0.38972556251E+02  0.41589682244E+02  0.00000000000E+00 0.  1.
        -11    1    5    5    0    0  0.27738082513E+02  0.28115208882E+03  0.29305385410E+03  0.40705830009E+03  0.00000000000E+00 0. -1.
          4    1    6    6  503    0 -0.32665799492E+03  0.14751532624E+03 -0.10943450937E+03  0.37475609262E+03  0.00000000000E+00 0.  1.
         -4    1    6    6    0  503 -0.37495065417E+03  0.24641436232E+03 -0.21530588262E+03  0.49765917465E+03  0.00000000000E+00 0. -1.
<mgrwt>
<rscale>  0 0.22964494E+04</rscale>
<asrwt>0</asrwt>
<pdfrwt beam="1">  1        4 0.16582007E+00 0.22964494E+04</pdfrwt>
<pdfrwt beam="2">  1       -3 0.18818714E+00 0.22964494E+04</pdfrwt>
<totfact> 0.81850604E-02</totfact>
</mgrwt>
</event>
<event>
12    6  0.1402540E-007  0.1789240E+04  0.7818608E-02  0.8712043E-01
         -1   -1    0    0    0  501 -0.00000000000E+00  0.00000000000E+00  0.31193918395E+03  0.31193918395E+03  0.00000000000E+00 0.  1.
          2   -1    0    0  501    0  0.00000000000E+00 -0.00000000000E+00 -0.25657077016E+04  0.25657077016E+04  0.00000000000E+00 0. -1.
         24    2    1    2    0    0 -0.63994016188E+02  0.64865898859E+03 -0.10446335242E+04  0.12335859069E+04  0.74975144326E+02 0.  0.
        254    2    1    2    0    0  0.63994016188E+02 -0.64865898859E+03 -0.12091349934E+04  0.16440609786E+04  0.90336889003E+03 0.  0.
         23    2    4    4    0    0  0.23428069927E+03 -0.44745036783E+03 -0.13067698236E+03  0.52987109039E+03  0.92669417803E+02 0.  0.
         23    2    4    4    0    0 -0.17028668308E+03 -0.20120862077E+03 -0.10784580111E+04  0.11141898882E+04  0.94153926489E+02 0.  0.
          4    1    3    3  502    0 -0.14477117804E+02  0.24504943869E+03 -0.46066861554E+03  0.52199079272E+03  0.00000000000E+00 0. -1.
         -3    1    3    3    0  502 -0.49516898385E+02  0.40360954990E+03 -0.58396490866E+03  0.71159511419E+03  0.00000000000E+00 0.  1.
         11    1    5    5    0    0  0.11128789749E+01  0.22498959695E+01  0.48838853928E+01  0.54911627200E+01  0.00000000000E+00 0.  1.
        -11    1    5    5    0    0  0.23316782030E+03 -0.44970026380E+03 -0.13556086776E+03  0.52437992767E+03  0.00000000000E+00 0. -1.
          4    1    6    6  503    0 -0.12903567218E+03 -0.16845218696E+03 -0.97805085308E+03  0.10008045839E+04  0.00000000000E+00 0. -1.
         -4    1    6    6    0  503 -0.41251010903E+02 -0.32756433802E+02 -0.10040715798E+03  0.11338530429E+03  0.00000000000E+00 0.  1.
<mgrwt>
<rscale>  0 0.17892398E+04</rscale>
<asrwt>0</asrwt>
<pdfrwt beam="1">  1        2 0.39472426E+00 0.17892398E+04</pdfrwt>
<pdfrwt beam="2">  1       -1 0.47990644E-01 0.17892398E+04</pdfrwt>
<totfact> 0.14901726E+01</totfact>
</mgrwt>
</event>
<event>
12    6  0.1402540E-007  0.2207307E+04  0.7818608E-02  0.8515393E-01
          2   -1    0    0  501    0  0.00000000000E+00  0.00000000000E+00  0.22512771769E+04  0.22512771769E+04  0.00000000000E+00 0. -1.
         -1   -1    0    0    0  501 -0.00000000000E+00 -0.00000000000E+00 -0.54104872847E+03  0.54104872847E+03  0.00000000000E+00 0.  1.
         24    2    1    2    0    0  0.19493824389E+03 -0.82417526675E+03  0.11588501526E+04  0.14392733627E+04  0.10634071314E+03 0.  0.
        254    2    1    2    0    0 -0.19493824389E+03  0.82417526675E+03  0.55137829591E+03  0.13530525427E+04  0.89970404516E+03 0.  0.
         23    2    4    4    0    0 -0.32937275786E+03  0.28901575070E+03  0.64591019529E+03  0.78570919936E+03  0.90124623747E+02 0.  0.
         23    2    4    4    0    0  0.13443451397E+03  0.53515951605E+03 -0.94531899388E+02  0.56734334334E+03  0.92053479386E+02 0.  0.
          4    1    3    3  502    0  0.62197846315E+01 -0.18283695913E+03  0.29204512419E+03  0.34461339775E+03  0.00000000000E+00 0. -1.
         -3    1    3    3    0  502  0.18871845926E+03 -0.64133830762E+03  0.86680502836E+03  0.10946599650E+04  0.00000000000E+00 0.  1.
         11    1    5    5    0    0 -0.91798790801E+01  0.34375450472E+02  0.31271689550E+02  0.47369403019E+02  0.00000000000E+00 0. -1.
        -11    1    5    5    0    0 -0.32019287878E+03  0.25464030023E+03  0.61463850574E+03  0.73833979634E+03  0.00000000000E+00 0.  1.
          1    1    6    6  503    0  0.22977505544E+01  0.19174477156E+02  0.13885703100E+02  0.23785562478E+02  0.00000000000E+00 0. -1.
         -1    1    6    6    0  503  0.13213676342E+03  0.51598503889E+03 -0.10841760249E+03  0.54355778086E+03  0.00000000000E+00 0.  1.
<mgrwt>
<rscale>  0 0.22073066E+04</rscale>
<asrwt>0</asrwt>
<pdfrwt beam="1">  1        2 0.34635033E+00 0.22073066E+04</pdfrwt>
<pdfrwt beam="2">  1       -1 0.83238267E-01 0.22073066E+04</pdfrwt>
<totfact> 0.71944232E+00</totfact>
</mgrwt>
</event>
<event>
12    6  0.1402540E-007  0.1758200E+04  0.7818608E-02  0.8728850E-01
          2   -1    0    0  501    0  0.00000000000E+00  0.00000000000E+00  0.22267908644E+04  0.22267908644E+04  0.00000000000E+00 0. -1.
         -3   -1    0    0    0  501 -0.00000000000E+00 -0.00000000000E+00 -0.34705396001E+03  0.34705396001E+03  0.00000000000E+00 0.  1.
         24    2    1    2    0    0 -0.60905473287E+03 -0.19896115347E+03  0.77812531431E+03  0.10110882056E+04  0.79291528509E+02 0.  0.
        254    2    1    2    0    0  0.60905473287E+03  0.19896115347E+03  0.11016115901E+04  0.15627566188E+04  0.90450370153E+03 0.  0.
         23    2    4    4    0    0 -0.25274416788E+01  0.14363814999E+03  0.89120937012E+03  0.90728139984E+03  0.90923544862E+02 0.  0.
         23    2    4    4    0    0  0.61158217455E+03  0.55323003475E+02  0.21040221995E+03  0.65547521898E+03  0.91023500268E+02 0.  0.
          4    1    3    3  502    0 -0.55475839702E+03 -0.20302649084E+03  0.70181505893E+03  0.91734454377E+03  0.00000000000E+00 0. -1.
         -3    1    3    3    0  502 -0.54296335844E+02  0.40653373769E+01  0.76310255385E+02  0.93743661817E+02  0.00000000000E+00 0.  1.
         11    1    5    5    0    0  0.43384638757E+02  0.81259149819E+02  0.45119093090E+03  0.46049813510E+03  0.00000000000E+00 0.  1.
        -11    1    5    5    0    0 -0.45912080436E+02  0.62379000173E+02  0.44001843923E+03  0.44678326474E+03  0.00000000000E+00 0. -1.
          2    1    6    6  503    0  0.51873381930E+03  0.38969307995E+02  0.21056887783E+03  0.56119750049E+03  0.00000000000E+00 0. -1.
         -2    1    6    6    0  503  0.92848355247E+02  0.16353695481E+02 -0.16665788217E+00  0.94277718485E+02  0.00000000000E+00 0.  1.
<mgrwt>
<rscale>  0 0.17581997E+04</rscale>
<asrwt>0</asrwt>
<pdfrwt beam="1">  1        2 0.34258320E+00 0.17581997E+04</pdfrwt>
<pdfrwt beam="2">  1       -3 0.53392918E-01 0.17581997E+04</pdfrwt>
<totfact> 0.10529358E+01</totfact>
</mgrwt>
</event>
<event>
12    6  0.1402540E-007  0.1902064E+04  0.7818608E-02  0.8653830E-01
          2   -1    0    0  501    0  0.00000000000E+00  0.00000000000E+00  0.15042985871E+04  0.15042985871E+04  0.00000000000E+00 0. -1.
         -1   -1    0    0    0  501 -0.00000000000E+00 -0.00000000000E+00 -0.60125138465E+03  0.60125138465E+03  0.00000000000E+00 0.  1.
         24    2    1    2    0    0  0.21206519071E+03  0.58262972939E+03 -0.85887773925E+02  0.63357912720E+03  0.98065049980E+02 0.  0.
        254    2    1    2    0    0 -0.21206519071E+03 -0.58262972939E+03  0.98893497633E+03  0.14719708445E+04  0.89681477071E+03 0.  0.
         23    2    4    4    0    0  0.19165153443E+03 -0.26373138879E+02 -0.52422394764E+02  0.22100287654E+03  0.93103763959E+02 0.  0.
         23    2    4    4    0    0 -0.40371672513E+03 -0.55625659052E+03  0.10413573711E+04  0.12509679680E+04  0.89928270798E+02 0.  0.
          4    1    3    3  502    0  0.50373331993E+02  0.85333789958E+02  0.17250572739E+02  0.10058285413E+03  0.00000000000E+00 0. -1.
         -3    1    3    3    0  502  0.16169185872E+03  0.49729593944E+03 -0.10313834666E+03  0.53299627307E+03  0.00000000000E+00 0.  1.
         11    1    5    5    0    0  0.78313824743E+02 -0.42228749230E+02 -0.58362753806E+02  0.10640739373E+03  0.00000000000E+00 0. -1.
        -11    1    5    5    0    0  0.11333770968E+03  0.15855610352E+02  0.59403590420E+01  0.11459548281E+03  0.00000000000E+00 0.  1.
          1    1    6    6  503    0 -0.35770479163E+03 -0.48017122159E+03  0.95388174412E+03  0.11262359885E+04  0.00000000000E+00 0. -1.
         -1    1    6    6    0  503 -0.46011933503E+02 -0.76085368925E+02  0.87475626979E+02  0.12473197948E+03  0.00000000000E+00 0.  1.
<mgrwt>
<rscale>  0 0.19020637E+04</rscale>
<asrwt>0</asrwt>
<pdfrwt beam="1">  1        2 0.23143055E+00 0.19020637E+04</pdfrwt>
<pdfrwt beam="2">  1       -1 0.92500213E-01 0.19020637E+04</pdfrwt>
<totfact> 0.15308804E+01</totfact>
</mgrwt>
</event>
<event>
12    6  0.1402540E-007  0.3094959E+04  0.7818608E-02  0.8217123E-01
          2   -1    0    0  501    0  0.00000000000E+00  0.00000000000E+00  0.27410036408E+04  0.27410036408E+04  0.00000000000E+00 0. -1.
         -1   -1    0    0    0  501 -0.00000000000E+00 -0.00000000000E+00 -0.87365537232E+03  0.87365537232E+03  0.00000000000E+00 0.  1.
         24    2    1    2    0    0  0.63029527001E+03  0.12668066838E+04  0.88837392328E+03  0.16725555286E+04  0.78501383922E+02 0.  0.
        254    2    1    2    0    0 -0.63029527001E+03 -0.12668066838E+04  0.97897434515E+03  0.19421034845E+04  0.90072408345E+03 0.  0.
         23    2    4    4    0    0 -0.34057401681E+02 -0.16474867518E+03  0.59997716881E+03  0.63004804502E+03  0.93198194004E+02 0.  0.
         23    2    4    4    0    0 -0.59623786833E+03 -0.11020580086E+04  0.37899717635E+03  0.13120554394E+04  0.88426051570E+02 0.  0.
          2    1    3    3  502    0  0.98737529358E+02  0.25894134328E+03  0.15561405493E+03  0.31782928288E+03  0.00000000000E+00 0. -1.
         -1    1    3    3    0  502  0.53155774065E+03  0.10078653405E+04  0.73275986835E+03  0.13547262457E+04  0.00000000000E+00 0.  1.
         11    1    5    5    0    0 -0.19652634198E+02 -0.42448201385E+02  0.33015840700E+03  0.33345561855E+03  0.00000000000E+00 0. -1.
        -11    1    5    5    0    0 -0.14404767483E+02 -0.12230047380E+03  0.26981876181E+03  0.29659242647E+03  0.00000000000E+00 0.  1.
          3    1    6    6  503    0 -0.38179230916E+03 -0.74817473328E+03  0.21570834591E+03  0.86721444254E+03  0.00000000000E+00 0. -1.
         -3    1    6    6    0  503 -0.21444555917E+03 -0.35388327530E+03  0.16328883044E+03  0.44484099691E+03  0.00000000000E+00 0.  1.
<mgrwt>
<rscale>  0 0.30949588E+04</rscale>
<asrwt>0</asrwt>
<pdfrwt beam="1">  1        2 0.42169286E+00 0.30949588E+04</pdfrwt>
<pdfrwt beam="2">  1       -1 0.13440852E+00 0.30949588E+04</pdfrwt>
<totfact> 0.11278884E+00</totfact>
</mgrwt>
</event>
<event>
12    6  0.1402540E-007  0.2672628E+04  0.7818608E-02  0.8343941E-01
          2   -1    0    0  501    0  0.00000000000E+00  0.00000000000E+00  0.17009349788E+04  0.17009349788E+04  0.00000000000E+00 0. -1.
         -1   -1    0    0    0  501 -0.00000000000E+00 -0.00000000000E+00 -0.10498549294E+04  0.10498549294E+04  0.00000000000E+00 0.  1.
         24    2    1    2    0    0 -0.11620449047E+04  0.19932537287E+03  0.39729365836E+03  0.12467653968E+04  0.80639561284E+02 0.  0.
        254    2    1    2    0    0  0.11620449047E+04 -0.19932537287E+03  0.25378639110E+03  0.15040245114E+04  0.89866747665E+03 0.  0.
         23    2    4    4    0    0  0.37593326528E+03 -0.19909065560E+03  0.51118344021E+03  0.67155263044E+03  0.93335506767E+02 0.  0.
         23    2    4    4    0    0  0.78611163946E+03 -0.23471727366E+00 -0.25739704910E+03  0.83247188093E+03  0.93726340246E+02 0.  0.
          4    1    3    3  502    0 -0.31618810226E+03  0.89606677709E+02  0.10057916675E+03  0.34368654540E+03  0.00000000000E+00 0. -1.
         -3    1    3    3    0  502 -0.84585680249E+03  0.10971869516E+03  0.29671449161E+03  0.90307885144E+03  0.00000000000E+00 0.  1.
         11    1    5    5    0    0  0.33081259181E+03 -0.19619679617E+03  0.48606615802E+03  0.61983099608E+03  0.00000000000E+00 0.  1.
        -11    1    5    5    0    0  0.45120673468E+02 -0.28938594213E+01  0.25117282185E+02  0.51721634361E+02  0.00000000000E+00 0. -1.
          3    1    6    6  503    0  0.24724533819E+02 -0.76377107304E+01  0.63820168062E+01  0.26652717240E+02  0.00000000000E+00 0. -1.
         -3    1    6    6    0  503  0.76138710564E+03  0.74029934568E+01 -0.26377906591E+03  0.80581916369E+03  0.00000000000E+00 0.  1.
<mgrwt>
<rscale>  0 0.26726279E+04</rscale>
<asrwt>0</asrwt>
<pdfrwt beam="1">  1        2 0.26168230E+00 0.26726279E+04</pdfrwt>
<pdfrwt beam="2">  1       -1 0.16151614E+00 0.26726279E+04</pdfrwt>
<totfact> 0.27906592E+00</totfact>
</mgrwt>
</event>
<event>
12    6  0.1402540E-007  0.1544903E+04  0.7818608E-02  0.8855130E-01
         -1   -1    0    0    0  501 -0.00000000000E+00  0.00000000000E+00  0.35912230746E+03  0.35912230746E+03  0.00000000000E+00 0.  1.
          2   -1    0    0  501    0  0.00000000000E+00 -0.00000000000E+00 -0.16614998624E+04  0.16614998624E+04  0.00000000000E+00 0. -1.
         24    2    1    2    0    0  0.38734223085E+03 -0.29197211386E+03 -0.24339133096E+03  0.54848005896E+03  0.79431203076E+02 0.  0.
        254    2    1    2    0    0 -0.38734223085E+03  0.29197211386E+03 -0.10589862239E+04  0.14721421109E+04  0.90026043620E+03 0.  0.
         23    2    4    4    0    0  0.25890749328E+03  0.60180219282E+02 -0.12032126806E+03  0.30583944669E+03  0.91683208592E+02 0.  0.
         23    2    4    4    0    0 -0.64624972413E+03  0.23179189458E+03 -0.93866495588E+03  0.11663026642E+04  0.88339213858E+02 0.  0.
          4    1    3    3  502    0  0.15267442936E+03 -0.14111527261E+03 -0.14147555770E+03  0.25147233440E+03  0.00000000000E+00 0. -1.
         -1    1    3    3    0  502  0.23466780149E+03 -0.15085684125E+03 -0.10191577326E+03  0.29700772456E+03  0.00000000000E+00 0.  1.
         11    1    5    5    0    0  0.12517851711E+03  0.29559595927E+02 -0.10826433195E+03  0.16812077930E+03  0.00000000000E+00 0.  1.
        -11    1    5    5    0    0  0.13372897617E+03  0.30620623356E+02 -0.12056936105E+02  0.13771866740E+03  0.00000000000E+00 0. -1.
          3    1    6    6  503    0 -0.19286249512E+03  0.11058462271E+03 -0.27943694470E+03  0.35708529354E+03  0.00000000000E+00 0. -1.
         -3    1    6    6    0  503 -0.45338722901E+03  0.12120727187E+03 -0.65922801118E+03  0.80921737062E+03  0.00000000000E+00 0.  1.
<mgrwt>
<rscale>  0 0.15449034E+04</rscale>
<asrwt>0</asrwt>
<pdfrwt beam="1">  1        2 0.25561536E+00 0.15449034E+04</pdfrwt>
<pdfrwt beam="2">  1       -1 0.55249586E-01 0.15449034E+04</pdfrwt>
<totfact> 0.37432883E+01</totfact>
</mgrwt>
</event>
<event>
12    6  0.1402540E-007  0.1697164E+04  0.7818608E-02  0.8762984E-01
         -1   -1    0    0    0  501 -0.00000000000E+00  0.00000000000E+00  0.13281392692E+04  0.13281392692E+04  0.00000000000E+00 0.  1.
          2   -1    0    0  501    0  0.00000000000E+00 -0.00000000000E+00 -0.54218055116E+03  0.54218055116E+03  0.00000000000E+00 0. -1.
         24    2    1    2    0    0 -0.45346904744E+03 -0.37430582415E+03  0.44665210874E+03  0.74259999382E+03  0.78851871256E+02 0.  0.
        254    2    1    2    0    0  0.45346904744E+03  0.37430582415E+03  0.33930660931E+03  0.11277198265E+04  0.90049098002E+03 0.  0.
         23    2    4    4    0    0  0.27795788607E+03  0.18831063535E+03 -0.28327248790E+03  0.44862577705E+03  0.91106002101E+02 0.  0.
         23    2    4    4    0    0  0.17551116137E+03  0.18599518880E+03  0.62257909720E+03  0.67909404950E+03  0.90363807885E+02 0.  0.
          4    1    3    3  502    0 -0.15861675916E+03 -0.10652995763E+03  0.10605107580E+03  0.21852857670E+03  0.00000000000E+00 0. -1.
         -3    1    3    3    0  502 -0.29485228828E+03 -0.26777586652E+03  0.34060103295E+03  0.52407141712E+03  0.00000000000E+00 0.  1.
         11    1    5    5    0    0  0.14992906018E+03  0.10704098494E+03 -0.21263467017E+03  0.28133609527E+03  0.00000000000E+00 0. -1.
        -11    1    5    5    0    0  0.12802882589E+03  0.81269650408E+02 -0.70637817725E+02  0.16728968178E+03  0.00000000000E+00 0.  1.
          1    1    6    6  503    0  0.15927956267E+03  0.11561840907E+03  0.41494084416E+03  0.45925319786E+03  0.00000000000E+00 0. -1.
         -1    1    6    6    0  503  0.16231598705E+02  0.70376779729E+02  0.20763825305E+03  0.21984085164E+03  0.00000000000E+00 0.  1.
<mgrwt>
<rscale>  0 0.16971638E+04</rscale>
<asrwt>0</asrwt>
<pdfrwt beam="1">  1        2 0.83412393E-01 0.16971638E+04</pdfrwt>
<pdfrwt beam="2">  1       -1 0.20432912E+00 0.16971638E+04</pdfrwt>
<totfact> 0.85566989E+00</totfact>
</mgrwt>
</event>
<event>
12    6  0.1402540E-007  0.1855695E+04  0.7818608E-02  0.8677229E-01
          2   -1    0    0  501    0  0.00000000000E+00  0.00000000000E+00  0.11566355692E+04  0.11566355692E+04  0.00000000000E+00 0. -1.
         -1   -1    0    0    0  501 -0.00000000000E+00 -0.00000000000E+00 -0.74431513707E+03  0.74431513707E+03  0.00000000000E+00 0.  1.
         24    2    1    2    0    0  0.21685213778E+03  0.43639159327E+03  0.68262972075E+03  0.84185475185E+03  0.72619661452E+02 0.  0.
        254    2    1    2    0    0 -0.21685213778E+03 -0.43639159327E+03 -0.27030928857E+03  0.10590959545E+04  0.90064124764E+03 0.  0.
         23    2    4    4    0    0  0.75342568080E+02 -0.63321978395E+03 -0.26090123953E+03  0.69511251753E+03  0.92022594427E+02 0.  0.
         23    2    4    4    0    0 -0.29219470586E+03  0.19682819069E+03 -0.94080490440E+01  0.36398343694E+03  0.90974437072E+02 0.  0.
          4    1    3    3  502    0  0.13715811662E+03  0.32257583339E+03  0.53029087121E+03  0.63566966684E+03  0.00000000000E+00 0. -1.
         -3    1    3    3    0  502  0.79694021160E+02  0.11381575987E+03  0.15233884954E+03  0.20618508501E+03  0.00000000000E+00 0.  1.
         11    1    5    5    0    0  0.15795484103E+01 -0.11306892308E+03 -0.11804738204E+02  0.11369445099E+03  0.00000000000E+00 0.  1.
        -11    1    5    5    0    0  0.73763019670E+02 -0.52015086087E+03 -0.24909650132E+03  0.58141806654E+03  0.00000000000E+00 0. -1.
          3    1    6    6  503    0 -0.15095390305E+03  0.15406658252E+03  0.46488383748E+01  0.21574337625E+03  0.00000000000E+00 0. -1.
         -3    1    6    6    0  503 -0.14124080281E+03  0.42761608161E+02 -0.14056887419E+02  0.14824006069E+03  0.00000000000E+00 0.  1.
<mgrwt>
<rscale>  0 0.18556954E+04</rscale>
<asrwt>0</asrwt>
<pdfrwt beam="1">  1        2 0.17794393E+00 0.18556954E+04</pdfrwt>
<pdfrwt beam="2">  1       -1 0.11451002E+00 0.18556954E+04</pdfrwt>
<totfact> 0.14952523E+01</totfact>
</mgrwt>
</event>
<event>
12    6  0.1402540E-007  0.1876072E+04  0.7818608E-02  0.8666859E-01
          2   -1    0    0  501    0  0.00000000000E+00  0.00000000000E+00  0.43482153771E+03  0.43482153771E+03  0.00000000000E+00 0. -1.
         -1   -1    0    0    0  501 -0.00000000000E+00 -0.00000000000E+00 -0.20236161046E+04  0.20236161046E+04  0.00000000000E+00 0.  1.
         24    2    1    2    0    0 -0.69261538182E+03  0.15478117968E+03 -0.46103161817E+03  0.84998128008E+03  0.79023685206E+02 0.  0.
        254    2    1    2    0    0  0.69261538182E+03 -0.15478117968E+03 -0.11277629487E+04  0.16084563622E+04  0.90089362298E+03 0.  0.
         23    2    4    4    0    0 -0.66186218929E+02  0.11595279864E+03  0.58579044083E+02  0.17147701625E+03  0.90261817004E+02 0.  0.
         23    2    4    4    0    0  0.75880160075E+03 -0.27073397833E+03 -0.11863419928E+04  0.14369793459E+04  0.91790852066E+02 0.  0.
          2    1    3    3  502    0 -0.50839466155E+03  0.14643665994E+03 -0.32627591459E+03  0.62158249630E+03  0.00000000000E+00 0. -1.
         -1    1    3    3    0  502 -0.18422072027E+03  0.83445197465E+01 -0.13475570357E+03  0.22839878378E+03  0.00000000000E+00 0.  1.
         11    1    5    5    0    0 -0.45346494776E+02  0.51338832178E+02  0.75056786105E+02  0.10161447445E+03  0.00000000000E+00 0. -1.
        -11    1    5    5    0    0 -0.20839724154E+02  0.64613966463E+02 -0.16477742022E+02  0.69862541802E+02  0.00000000000E+00 0.  1.
          3    1    6    6  503    0  0.67986351701E+03 -0.21112367813E+03 -0.10359296070E+04  0.12569557510E+04  0.00000000000E+00 0. -1.
         -3    1    6    6    0  503  0.78938083741E+02 -0.59610300194E+02 -0.15041238571E+03  0.18002359492E+03  0.00000000000E+00 0.  1.
<mgrwt>
<rscale>  0 0.18760724E+04</rscale>
<asrwt>0</asrwt>
<pdfrwt beam="1">  1        2 0.66895623E-01 0.18760724E+04</pdfrwt>
<pdfrwt beam="2">  1       -1 0.31132555E+00 0.18760724E+04</pdfrwt>
<totfact> 0.21652311E+00</totfact>
</mgrwt>
</event>
<event>
12    6  0.1402540E-007  0.1558116E+04  0.7818608E-02  0.8846700E-01
          2   -1    0    0  501    0  0.00000000000E+00  0.00000000000E+00  0.26150974158E+04  0.26150974158E+04  0.00000000000E+00 0. -1.
         -1   -1    0    0    0  501 -0.00000000000E+00 -0.00000000000E+00 -0.23208750915E+03  0.23208750915E+03  0.00000000000E+00 0.  1.
         24    2    1    2    0    0 -0.18509473782E+03  0.16098170380E+03  0.16141467176E+04  0.16346294166E+04  0.79803088695E+02 0.  0.
        254    2    1    2    0    0  0.18509473782E+03 -0.16098170380E+03  0.76886318905E+03  0.12125555083E+04  0.90496689789E+03 0.  0.
         23    2    4    4    0    0 -0.80929757249E+02  0.91692873318E+02  0.81552892784E+03  0.82960630916E+03  0.90564824454E+02 0.  0.
         23    2    4    4    0    0  0.26602449507E+03 -0.25267457712E+03 -0.46665738789E+02  0.38294919913E+03  0.99292114671E+02 0.  0.
          2    1    3    3  502    0 -0.11649725531E+03  0.13167439875E+03  0.12950590869E+04  0.13069383292E+04  0.00000000000E+00 0. -1.
         -1    1    3    3    0  502 -0.68597482513E+02  0.29307305055E+02  0.31908763068E+03  0.32769108744E+03  0.00000000000E+00 0.  1.
         11    1    5    5    0    0 -0.30282831662E+02  0.51023183106E+02  0.15626336709E+03  0.16714860156E+03  0.00000000000E+00 0.  1.
        -11    1    5    5    0    0 -0.50646925587E+02  0.40669690213E+02  0.65926556075E+03  0.66245770761E+03  0.00000000000E+00 0. -1.
          4    1    6    6  503    0  0.43643153999E+02 -0.30291124754E+02 -0.43137297076E+02  0.68433204871E+02  0.00000000000E+00 0. -1.
         -4    1    6    6    0  503  0.22238134107E+03 -0.22238345237E+03 -0.35284417128E+01  0.31451599426E+03  0.00000000000E+00 0.  1.
<mgrwt>
<rscale>  0 0.15581161E+04</rscale>
<asrwt>0</asrwt>
<pdfrwt beam="1">  1        2 0.40232266E+00 0.15581161E+04</pdfrwt>
<pdfrwt beam="2">  1       -1 0.35705773E-01 0.15581161E+04</pdfrwt>
<totfact> 0.24530087E+01</totfact>
</mgrwt>
</event>
<event>
12    6  0.1402540E-007  0.2711509E+04  0.7818608E-02  0.8331280E-01
         -1   -1    0    0    0  501 -0.00000000000E+00  0.00000000000E+00  0.28872988470E+04  0.28872988470E+04  0.00000000000E+00 0.  1.
          2   -1    0    0  501    0  0.00000000000E+00 -0.00000000000E+00 -0.63660547102E+03  0.63660547102E+03  0.00000000000E+00 0. -1.
         24    2    1    2    0    0 -0.35232540939E+03 -0.11441309967E+04  0.11710988039E+04  0.16766353401E+04  0.80403503710E+02 0.  0.
        254    2    1    2    0    0  0.35232540939E+03  0.11441309967E+04  0.10795945721E+04  0.18472689780E+04  0.90205837128E+03 0.  0.
         23    2    4    4    0    0  0.11953925108E+03  0.10789070479E+04  0.47190099805E+03  0.11871038104E+04  0.90525433882E+02 0.  0.
         23    2    4    4    0    0  0.23278615831E+03  0.65223948801E+02  0.60769357407E+03  0.66016516759E+03  0.89905558970E+02 0.  0.
          4    1    3    3  502    0 -0.67458180291E+02 -0.32747918077E+03  0.30333108348E+03  0.45144541878E+03  0.00000000000E+00 0. -1.
         -3    1    3    3    0  502 -0.28486722910E+03 -0.81665181591E+03  0.86776772041E+03  0.12251899213E+04  0.00000000000E+00 0.  1.
         11    1    5    5    0    0  0.76291914011E+02  0.60466992199E+03  0.31263061041E+03  0.68497012290E+03  0.00000000000E+00 0.  1.
        -11    1    5    5    0    0  0.43247337067E+02  0.47423712589E+03  0.15927038764E+03  0.50213368749E+03  0.00000000000E+00 0. -1.
          3    1    6    6  503    0  0.78913214493E+02  0.60800670538E+02  0.18178646386E+03  0.20729287350E+03  0.00000000000E+00 0. -1.
         -3    1    6    6    0  503  0.15387294382E+03  0.44232782622E+01  0.42590711021E+03  0.45287229409E+03  0.00000000000E+00 0.  1.
<mgrwt>
<rscale>  0 0.27115090E+04</rscale>
<asrwt>0</asrwt>
<pdfrwt beam="1">  1        2 0.97939305E-01 0.27115090E+04</pdfrwt>
<pdfrwt beam="2">  1       -1 0.44419981E+00 0.27115090E+04</pdfrwt>
<totfact> 0.16348383E-01</totfact>
</mgrwt>
</event>
<event>
12    6  0.1402540E-007  0.3757515E+04  0.7818608E-02  0.8055334E-01
         -1   -1    0    0    0  501 -0.00000000000E+00  0.00000000000E+00  0.16960729787E+04  0.16960729787E+04  0.00000000000E+00 0.  1.
          2   -1    0    0  501    0  0.00000000000E+00 -0.00000000000E+00 -0.20811189222E+04  0.20811189222E+04  0.00000000000E+00 0. -1.
         24    2    1    2    0    0  0.34173596651E+03  0.16354444697E+04 -0.76830018172E+03  0.18406356458E+04  0.78691339154E+02 0.  0.
        254    2    1    2    0    0 -0.34173596651E+03 -0.16354444697E+04  0.38325423819E+03  0.19365562552E+04  0.90105728675E+03 0.  0.
         23    2    4    4    0    0  0.10084845101E+03 -0.11121995129E+04  0.51356066557E+03  0.12326144936E+04  0.91846426688E+02 0.  0.
         23    2    4    4    0    0 -0.44258441752E+03 -0.52324495688E+03 -0.13030642738E+03  0.70394176160E+03  0.94276121994E+02 0.  0.
          2    1    3    3  502    0  0.14735590373E+03  0.89089496253E+03 -0.42556707977E+03  0.99825594714E+03  0.00000000000E+00 0. -1.
         -1    1    3    3    0  502  0.19438006278E+03  0.74454950720E+03 -0.34273310195E+03  0.84237969862E+03  0.00000000000E+00 0.  1.
         11    1    5    5    0    0  0.36724500056E+02 -0.39154050290E+03  0.22960993382E+03  0.45538266988E+03  0.00000000000E+00 0. -1.
        -11    1    5    5    0    0  0.64123950956E+02 -0.72065900995E+03  0.28395073175E+03  0.77723182370E+03  0.00000000000E+00 0.  1.
          1    1    6    6  503    0 -0.15836076924E+03 -0.22092167222E+03 -0.93140228006E+02  0.28733189967E+03  0.00000000000E+00 0. -1.
         -1    1    6    6    0  503 -0.28422364827E+03 -0.30232328465E+03 -0.37166199375E+02  0.41660986193E+03  0.00000000000E+00 0.  1.
<mgrwt>
<rscale>  0 0.37575149E+04</rscale>
<asrwt>0</asrwt>
<pdfrwt beam="1">  1        2 0.32017214E+00 0.37575149E+04</pdfrwt>
<pdfrwt beam="2">  1       -1 0.26093431E+00 0.37575149E+04</pdfrwt>
<totfact> 0.32600098E-01</totfact>
</mgrwt>
</event>
<event>
12    6  0.1402540E-007  0.1520667E+04  0.7818608E-02  0.8870825E-01
          2   -1    0    0  501    0  0.00000000000E+00  0.00000000000E+00  0.42644994874E+03  0.42644994874E+03  0.00000000000E+00 0. -1.
         -1   -1    0    0    0  501 -0.00000000000E+00 -0.00000000000E+00 -0.13556270505E+04  0.13556270505E+04  0.00000000000E+00 0.  1.
         24    2    1    2    0    0 -0.48385214116E+03 -0.68393145951E+02 -0.28681425578E+03  0.57363730847E+03  0.89480877479E+02 0.  0.
        254    2    1    2    0    0  0.48385214116E+03  0.68393145951E+02 -0.64236284597E+03  0.12084396908E+04  0.89939198541E+03 0.  0.
         23    2    4    4    0    0  0.38976869541E+03  0.43730885340E+03 -0.54393169331E+03  0.80476037762E+03  0.92838080678E+02 0.  0.
         23    2    4    4    0    0  0.94083445746E+02 -0.36891570745E+03 -0.98431152664E+02  0.40367931314E+03  0.91201985045E+02 0.  0.
          4    1    3    3  502    0 -0.25574045742E+03 -0.72606743609E+02 -0.12396670835E+03  0.29333030113E+03  0.00000000000E+00 0. -1.
         -3    1    3    3    0  502 -0.22811168373E+03  0.42135976583E+01 -0.16284754743E+03  0.28030700734E+03  0.00000000000E+00 0.  1.
         11    1    5    5    0    0  0.15350726175E+03  0.22299839037E+03 -0.29285749818E+03  0.39882110746E+03  0.00000000000E+00 0. -1.
        -11    1    5    5    0    0  0.23626143366E+03  0.21431046303E+03 -0.25107419513E+03  0.40593927016E+03  0.00000000000E+00 0.  1.
          1    1    6    6  503    0  0.97580375122E+02 -0.34087363976E+03 -0.11266842393E+03  0.37203621013E+03  0.00000000000E+00 0. -1.
         -1    1    6    6    0  503 -0.34969293765E+01 -0.28042067688E+02  0.14237271267E+02  0.31643103015E+02  0.00000000000E+00 0.  1.
<mgrwt>
<rscale>  0 0.15206671E+04</rscale>
<asrwt>0</asrwt>
<pdfrwt beam="1">  1        2 0.65607684E-01 0.15206671E+04</pdfrwt>
<pdfrwt beam="2">  1       -1 0.20855801E+00 0.15206671E+04</pdfrwt>
<totfact> 0.10728124E+01</totfact>
</mgrwt>
</event>
<event>
12    6  0.1402540E-007  0.1988228E+04  0.7818608E-02  0.8612144E-01
          2   -1    0    0  501    0  0.00000000000E+00  0.00000000000E+00  0.16028004570E+04  0.16028004570E+04  0.00000000000E+00 0. -1.
         -1   -1    0    0    0  501 -0.00000000000E+00 -0.00000000000E+00 -0.61658486318E+03  0.61658486318E+03  0.00000000000E+00 0.  1.
         24    2    1    2    0    0 -0.32271298620E+03 -0.52777570669E+03 -0.15205520888E+03  0.64192447723E+03  0.79090959476E+02 0.  0.
        254    2    1    2    0    0  0.32271298620E+03  0.52777570669E+03  0.11382708027E+04  0.15774608430E+04  0.90001745691E+03 0.  0.
         23    2    4    4    0    0  0.17999446588E+03  0.12111677477E+03  0.11108292583E+04  0.11354880504E+04  0.91237001637E+02 0.  0.
         23    2    4    4    0    0  0.14271852032E+03  0.40665893192E+03  0.27441544385E+02  0.44197279260E+03  0.94057684887E+02 0.  0.
          4    1    3    3  502    0 -0.14144916880E+03 -0.21981103028E+03 -0.24681216040E+02  0.26255269721E+03  0.00000000000E+00 0. -1.
         -3    1    3    3    0  502 -0.18126381740E+03 -0.30796467641E+03 -0.12737399285E+03  0.37937178001E+03  0.00000000000E+00 0.  1.
         11    1    5    5    0    0  0.10568148351E+03  0.40262600693E+02  0.74489164189E+03  0.75342764160E+03  0.00000000000E+00 0.  1.
        -11    1    5    5    0    0  0.74312982372E+02  0.80854174078E+02  0.36593761646E+03  0.38206040878E+03  0.00000000000E+00 0. -1.
          4    1    6    6  503    0  0.14277018678E+03  0.30670874979E+03 -0.53080460985E-01  0.33830989676E+03  0.00000000000E+00 0. -1.
         -4    1    6    6    0  503 -0.51666460330E-01  0.99950182138E+02  0.27494624846E+02  0.10366289584E+03  0.00000000000E+00 0.  1.
<mgrwt>
<rscale>  0 0.19882279E+04</rscale>
<asrwt>0</asrwt>
<pdfrwt beam="1">  1        2 0.24658468E+00 0.19882279E+04</pdfrwt>
<pdfrwt beam="2">  1       -1 0.94859210E-01 0.19882279E+04</pdfrwt>
<totfact> 0.12646043E+01</totfact>
</mgrwt>
</event>
<event>
12    6  0.1402540E-007  0.1823336E+04  0.7818608E-02  0.8693987E-01
          2   -1    0    0  501    0  0.00000000000E+00  0.00000000000E+00  0.19255561977E+04  0.19255561977E+04  0.00000000000E+00 0. -1.
         -1   -1    0    0    0  501 -0.00000000000E+00 -0.00000000000E+00 -0.43163569372E+03  0.43163569372E+03  0.00000000000E+00 0.  1.
         24    2    1    2    0    0  0.57855423253E+03  0.29757344157E+03  0.28071281111E+03  0.71320518560E+03  0.81160343352E+02 0.  0.
        254    2    1    2    0    0 -0.57855423253E+03 -0.29757344157E+03  0.12132076929E+04  0.16439867058E+04  0.89863475883E+03 0.  0.
         23    2    4    4    0    0 -0.17096902284E+02  0.25403682214E+03  0.53995231789E+03  0.60393778237E+03  0.91462168701E+02 0.  0.
         23    2    4    4    0    0 -0.56145733025E+03 -0.55161026371E+03  0.67325537499E+03  0.10400489235E+04  0.94449703719E+02 0.  0.
          4    1    3    3  502    0  0.41033504372E+03  0.17473951063E+03  0.21248447432E+03  0.49402266801E+03  0.00000000000E+00 0. -1.
         -3    1    3    3    0  502  0.16821918881E+03  0.12283393095E+03  0.68228336795E+02  0.21918251759E+03  0.00000000000E+00 0.  1.
         11    1    5    5    0    0  0.18738073867E+02  0.20583358553E+03  0.37189937862E+03  0.42547353404E+03  0.00000000000E+00 0. -1.
        -11    1    5    5    0    0 -0.35834976151E+02  0.48203236604E+02  0.16805293927E+03  0.17846424833E+03  0.00000000000E+00 0.  1.
          1    1    6    6  503    0 -0.12015267325E+03 -0.14102378613E+03  0.20844202678E+03  0.27887712647E+03  0.00000000000E+00 0. -1.
         -1    1    6    6    0  503 -0.44130465700E+03 -0.41058647759E+03  0.46481334821E+03  0.76117179699E+03  0.00000000000E+00 0.  1.
<mgrwt>
<rscale>  0 0.18233363E+04</rscale>
<asrwt>0</asrwt>
<pdfrwt beam="1">  1        2 0.29623941E+00 0.18233363E+04</pdfrwt>
<pdfrwt beam="2">  1       -1 0.66405493E-01 0.18233363E+04</pdfrwt>
<totfact> 0.18123002E+01</totfact>
</mgrwt>
</event>
<event>
12    6  0.1402540E-007  0.2684486E+04  0.7818608E-02  0.8340056E-01
         -1   -1    0    0    0  501 -0.00000000000E+00  0.00000000000E+00  0.92834684634E+03  0.92834684634E+03  0.00000000000E+00 0.  1.
          2   -1    0    0  501    0  0.00000000000E+00 -0.00000000000E+00 -0.19406714975E+04  0.19406714975E+04  0.00000000000E+00 0. -1.
         24    2    1    2    0    0  0.59744000871E+03 -0.98053924519E+03 -0.11721434249E+03  0.11569503433E+04  0.80019493874E+02 0.  0.
        254    2    1    2    0    0 -0.59744000871E+03  0.98053924519E+03 -0.89511030869E+03  0.17120680006E+04  0.90086769200E+03 0.  0.
         23    2    4    4    0    0 -0.49365022510E+03  0.18134097383E+03 -0.69607142532E+03  0.87706784955E+03  0.90318824360E+02 0.  0.
         23    2    4    4    0    0 -0.10378978361E+03  0.79919827136E+03 -0.19903888336E+03  0.83500015102E+03  0.90103157469E+02 0.  0.
          2    1    3    3  502    0  0.45284762192E+03 -0.71038932130E+03 -0.11701471955E+03  0.85053888864E+03  0.00000000000E+00 0. -1.
         -1    1    3    3    0  502  0.14459238679E+03 -0.27014992389E+03 -0.19962294600E+00  0.30641145466E+03  0.00000000000E+00 0.  1.
         11    1    5    5    0    0 -0.11008793087E+03  0.14480940261E+02 -0.19457699961E+03  0.22402959387E+03  0.00000000000E+00 0.  1.
        -11    1    5    5    0    0 -0.38356229422E+03  0.16686003357E+03 -0.50149442572E+03  0.65303825568E+03  0.00000000000E+00 0. -1.
          3    1    6    6  503    0 -0.54362346820E+02  0.66459086319E+03 -0.15021613296E+03  0.68352115314E+03  0.00000000000E+00 0. -1.
         -3    1    6    6    0  503 -0.49427436790E+02  0.13460740817E+03 -0.48822750407E+02  0.15147899788E+03  0.00000000000E+00 0.  1.
<mgrwt>
<rscale>  0 0.26844860E+04</rscale>
<asrwt>0</asrwt>
<pdfrwt beam="1">  1        2 0.29856484E+00 0.26844860E+04</pdfrwt>
<pdfrwt beam="2">  1       -1 0.14282259E+00 0.26844860E+04</pdfrwt>
<totfact> 0.28654474E+00</totfact>
</mgrwt>
</event>
<event>
12    6  0.1402540E-007  0.2433831E+04  0.7818608E-02  0.8426945E-01
          2   -1    0    0  501    0  0.00000000000E+00  0.00000000000E+00  0.14992834268E+04  0.14992834268E+04  0.00000000000E+00 0. -1.
         -1   -1    0    0    0  501 -0.00000000000E+00 -0.00000000000E+00 -0.98772779328E+03  0.98772779328E+03  0.00000000000E+00 0.  1.
         24    2    1    2    0    0  0.59113478145E+03  0.26424580985E+03 -0.62678690498E+03  0.90473624381E+03  0.80122835284E+02 0.  0.
        254    2    1    2    0    0 -0.59113478145E+03 -0.26424580985E+03  0.11383425385E+04  0.15822749763E+04  0.88797758289E+03 0.  0.
         23    2    4    4    0    0 -0.27316888123E+03 -0.44599720492E+03  0.19324174035E+03  0.56475113001E+03  0.89814943994E+02 0.  0.
         23    2    4    4    0    0 -0.31796590022E+03  0.18175139507E+03  0.94510079815E+03  0.10175238463E+04  0.89461587985E+02 0.  0.
          4    1    3    3  502    0  0.31670754744E+03  0.97841686828E+02 -0.31394607126E+03  0.45655098504E+03  0.00000000000E+00 0. -1.
         -3    1    3    3    0  502  0.27442723402E+03  0.16640412302E+03 -0.31284083373E+03  0.44818525877E+03  0.00000000000E+00 0.  1.
         11    1    5    5    0    0 -0.26483151358E+02 -0.88025075560E+02  0.82581058988E+01  0.92292835834E+02  0.00000000000E+00 0. -1.
        -11    1    5    5    0    0 -0.24668572987E+03 -0.35797212936E+03  0.18498363445E+03  0.47245829418E+03  0.00000000000E+00 0.  1.
          4    1    6    6  503    0 -0.24359611474E+03  0.92296546855E+02  0.66795610573E+03  0.71695402842E+03  0.00000000000E+00 0. -1.
         -4    1    6    6    0  503 -0.74369785489E+02  0.89454848216E+02  0.27714469242E+03  0.30056981785E+03  0.00000000000E+00 0.  1.
<mgrwt>
<rscale>  0 0.24338315E+04</rscale>
<asrwt>0</asrwt>
<pdfrwt beam="1">  1        2 0.23065899E+00 0.24338315E+04</pdfrwt>
<pdfrwt beam="2">  1       -1 0.15195812E+00 0.24338315E+04</pdfrwt>
<totfact> 0.43719364E+00</totfact>
</mgrwt>
</event>
<event>
12    6  0.1402540E-007  0.2334581E+04  0.7818608E-02  0.8464410E-01
          2   -1    0    0  501    0  0.00000000000E+00  0.00000000000E+00  0.19374828959E+04  0.19374828959E+04  0.00000000000E+00 0. -1.
         -1   -1    0    0    0  501 -0.00000000000E+00 -0.00000000000E+00 -0.70326635207E+03  0.70326635207E+03  0.00000000000E+00 0.  1.
         24    2    1    2    0    0  0.92534311779E+03  0.34675743991E+03  0.42730772269E+03  0.10784740249E+04  0.63353963386E+02 0.  0.
        254    2    1    2    0    0 -0.92534311779E+03 -0.34675743991E+03  0.80690882111E+03  0.15622752231E+04  0.90172136452E+03 0.  0.
         23    2    4    4    0    0 -0.10039747982E+04 -0.47319070348E+03  0.52390697975E+03  0.12306269839E+04  0.89941162766E+02 0.  0.
         23    2    4    4    0    0  0.78631680444E+02  0.12643326356E+03  0.28300184136E+03  0.33164823915E+03  0.87932934762E+02 0.  0.
          2    1    3    3  502    0  0.84063904645E+03  0.32523050725E+03  0.40565157236E+03  0.98843415937E+03  0.00000000000E+00 0. -1.
         -1    1    3    3    0  502  0.84704071339E+02  0.21526932661E+02  0.21656150329E+02  0.90039865494E+02  0.00000000000E+00 0.  1.
         11    1    5    5    0    0 -0.74640580856E+03 -0.35090500491E+03  0.43195306375E+03  0.93104210581E+03  0.00000000000E+00 0.  1.
        -11    1    5    5    0    0 -0.25756898967E+03 -0.12228569857E+03  0.91953916000E+02  0.29958487810E+03  0.00000000000E+00 0. -1.
          3    1    6    6  503    0  0.38855123073E+02  0.27498359801E+02  0.16888789892E+03  0.17546795372E+03  0.00000000000E+00 0. -1.
         -3    1    6    6    0  503  0.39776557371E+02  0.98934903762E+02  0.11411394243E+03  0.15618028543E+03  0.00000000000E+00 0.  1.
<mgrwt>
<rscale>  0 0.23345805E+04</rscale>
<asrwt>0</asrwt>
<pdfrwt beam="1">  1        2 0.29807429E+00 0.23345805E+04</pdfrwt>
<pdfrwt beam="2">  1       -1 0.10819482E+00 0.23345805E+04</pdfrwt>
<totfact> 0.59101369E+00</totfact>
</mgrwt>
</event>
<event>
12    6  0.1402540E-007  0.1512929E+04  0.7818608E-02  0.8875901E-01
          2   -1    0    0  501    0  0.00000000000E+00  0.00000000000E+00  0.88222760238E+03  0.88222760238E+03  0.00000000000E+00 0. -1.
         -1   -1    0    0    0  501 -0.00000000000E+00 -0.00000000000E+00 -0.64862911976E+03  0.64862911976E+03  0.00000000000E+00 0.  1.
         24    2    1    2    0    0  0.36216332064E+03 -0.31278601611E+03  0.15852446178E+03  0.51039676187E+03  0.79859168869E+02 0.  0.
        254    2    1    2    0    0 -0.36216332064E+03  0.31278601611E+03  0.75074020837E+02  0.10204599603E+04  0.89816761198E+03 0.  0.
         23    2    4    4    0    0  0.23270185862E+02 -0.16116847072E+03  0.30837562296E+03  0.36025605437E+03  0.90399791887E+02 0.  0.
         23    2    4    4    0    0 -0.38543350650E+03  0.47395448683E+03 -0.23330160213E+03  0.66020390589E+03  0.90816938268E+02 0.  0.
          2    1    3    3  502    0 -0.14014724635E+00  0.33679766339E+01 -0.13989280775E+01  0.36496448626E+01  0.00000000000E+00 0. -1.
         -1    1    3    3    0  502  0.36230346789E+03 -0.31615399275E+03  0.15992338986E+03  0.50674711701E+03  0.00000000000E+00 0.  1.
         11    1    5    5    0    0 -0.30647404267E+02 -0.30868386475E+02  0.53305834497E+02  0.68801400155E+02  0.00000000000E+00 0. -1.
        -11    1    5    5    0    0  0.53917590129E+02 -0.13030008424E+03  0.25506978847E+03  0.29145465422E+03  0.00000000000E+00 0.  1.
          4    1    6    6  503    0 -0.20603517172E+03  0.30248353198E+03 -0.17300802390E+03  0.40481916387E+03  0.00000000000E+00 0.  1.
         -4    1    6    6    0  503 -0.17939833478E+03  0.17147095485E+03 -0.60293578225E+02  0.25538474202E+03  0.00000000000E+00 0. -1.
<mgrwt>
<rscale>  0 0.15129290E+04</rscale>
<asrwt>0</asrwt>
<pdfrwt beam="1">  1        2 0.13572732E+00 0.15129290E+04</pdfrwt>
<pdfrwt beam="2">  1       -1 0.99789096E-01 0.15129290E+04</pdfrwt>
<totfact> 0.31823646E+01</totfact>
</mgrwt>
</event>
<event>
12    6  0.1402540E-007  0.4696548E+04  0.7818608E-02  0.7877102E-01
         -1   -1    0    0    0  501 -0.00000000000E+00  0.00000000000E+00  0.29394591816E+04  0.29394591816E+04  0.00000000000E+00 0.  1.
          2   -1    0    0  501    0  0.00000000000E+00 -0.00000000000E+00 -0.18759879174E+04  0.18759879174E+04  0.00000000000E+00 0. -1.
         24    2    1    2    0    0 -0.68216830099E+03  0.20930586832E+04 -0.18526277539E+02  0.22029195883E+04  0.79140679439E+02 0.  0.
        254    2    1    2    0    0  0.68216830099E+03 -0.20930586832E+04  0.10819975418E+04  0.26125275107E+04  0.89907345159E+03 0.  0.
         23    2    4    4    0    0 -0.12057755040E+03 -0.57587022225E+03  0.27780896089E+02  0.59619418301E+03  0.92251109122E+02 0.  0.
         23    2    4    4    0    0  0.80274585140E+03 -0.15171884610E+04  0.10542166457E+04  0.20163333277E+04  0.89250345537E+02 0.  0.
          4    1    3    3  502    0 -0.53976990724E+03  0.15451954723E+04 -0.10107558816E+02  0.16367903846E+04  0.00000000000E+00 0. -1.
         -3    1    3    3    0  502 -0.14239839376E+03  0.54786321087E+03 -0.84187187235E+01  0.56612920362E+03  0.00000000000E+00 0.  1.
         11    1    5    5    0    0 -0.55077400055E+01 -0.24658595192E+03  0.16556651972E+02  0.24720252752E+03  0.00000000000E+00 0. -1.
        -11    1    5    5    0    0 -0.11506981040E+03 -0.32928427032E+03  0.11224244117E+02  0.34899165549E+03  0.00000000000E+00 0.  1.
          3    1    6    6  503    0  0.53279928783E+03 -0.10692275021E+04  0.76693095501E+03  0.14196146034E+04  0.00000000000E+00 0. -1.
         -3    1    6    6    0  503  0.26994656357E+03 -0.44796095887E+03  0.28728569068E+03  0.59671872430E+03  0.00000000000E+00 0.  1.
<mgrwt>
<rscale>  0 0.46965476E+04</rscale>
<asrwt>0</asrwt>
<pdfrwt beam="1">  1        2 0.28861353E+00 0.46965476E+04</pdfrwt>
<pdfrwt beam="2">  1       -1 0.45222449E+00 0.46965476E+04</pdfrwt>
<totfact> 0.20808078E-02</totfact>
</mgrwt>
</event>
<event>
12    6  0.1402540E-007  0.3001524E+04  0.7818608E-02  0.8243296E-01
         -1   -1    0    0    0  501 -0.00000000000E+00  0.00000000000E+00  0.54510196583E+03  0.54510196583E+03  0.00000000000E+00 0.  1.
          2   -1    0    0  501    0  0.00000000000E+00 -0.00000000000E+00 -0.41318638698E+04  0.41318638698E+04  0.00000000000E+00 0. -1.
         24    2    1    2    0    0 -0.87928091428E+03  0.91238091121E+03 -0.84504826672E+03  0.15251295793E+04  0.79622907051E+02 0.  0.
        254    2    1    2    0    0  0.87928091428E+03 -0.91238091121E+03 -0.27417136372E+04  0.31518362563E+04  0.90083531483E+03 0.  0.
         23    2    4    4    0    0 -0.11466564420E+02 -0.56087841669E+03 -0.13049540042E+04  0.14233723473E+04  0.91475710396E+02 0.  0.
         23    2    4    4    0    0  0.89074747870E+03 -0.35150249451E+03 -0.14367596331E+04  0.17284639090E+04  0.79524631662E+02 0.  0.
          2    1    3    3  502    0 -0.83111183374E+03  0.88342917396E+03 -0.81600886793E+03  0.14618701920E+04  0.00000000000E+00 0. -1.
         -1    1    3    3    0  502 -0.48169080540E+02  0.28951737244E+02 -0.29039398791E+02  0.63259387380E+02  0.00000000000E+00 0.  1.
         11    1    5    5    0    0 -0.30088978758E+02 -0.12883086962E+03 -0.37860503923E+03  0.40105425486E+03  0.00000000000E+00 0.  1.
        -11    1    5    5    0    0  0.18622414338E+02 -0.43204754708E+03 -0.92634896494E+03  0.10223180924E+04  0.00000000000E+00 0. -1.
          2    1    6    6  503    0  0.29433718586E+03 -0.11313899790E+03 -0.54185066513E+03  0.62692659469E+03  0.00000000000E+00 0. -1.
         -2    1    6    6    0  503  0.59641029284E+03 -0.23836349661E+03 -0.89490896793E+03  0.11015373143E+04  0.00000000000E+00 0.  1.
<mgrwt>
<rscale>  0 0.30015244E+04</rscale>
<asrwt>0</asrwt>
<pdfrwt beam="1">  1        2 0.63567138E+00 0.30015244E+04</pdfrwt>
<pdfrwt beam="2">  1       -1 0.83861839E-01 0.30015244E+04</pdfrwt>
<totfact> 0.36444212E-01</totfact>
</mgrwt>
</event>
<event>
12    6  0.1402540E-007  0.4623511E+04  0.7818608E-02  0.7889363E-01
          2   -1    0    0  501    0  0.00000000000E+00  0.00000000000E+00  0.24886826984E+04  0.24886826984E+04  0.00000000000E+00 0. -1.
         -1   -1    0    0    0  501 -0.00000000000E+00 -0.00000000000E+00 -0.21474065814E+04  0.21474065814E+04  0.00000000000E+00 0.  1.
         24    2    1    2    0    0  0.32198949663E+03 -0.20543717091E+04 -0.62468109317E+03  0.21727847484E+04  0.81527539487E+02 0.  0.
        254    2    1    2    0    0 -0.32198949663E+03  0.20543717091E+04  0.96595721009E+03  0.24633045314E+04  0.90037521496E+03 0.  0.
         23    2    4    4    0    0 -0.12697489513E+03  0.20133876376E+04  0.97808647849E+03  0.22438242971E+04  0.90784985366E+02 0.  0.
         23    2    4    4    0    0 -0.19501460150E+03  0.40984071478E+02 -0.12129268401E+02  0.21948023432E+03  0.91181495888E+02 0.  0.
          2    1    3    3  502    0  0.19371506979E+03 -0.13994032057E+04 -0.39448381415E+03  0.14667898077E+04  0.00000000000E+00 0. -1.
         -1    1    3    3    0  502  0.12827442684E+03 -0.65496850335E+03 -0.23019727902E+03  0.70599494066E+03  0.00000000000E+00 0.  1.
         11    1    5    5    0    0 -0.69950407228E+02  0.54634868794E+03  0.24529178547E+03  0.60295771685E+03  0.00000000000E+00 0.  1.
        -11    1    5    5    0    0 -0.57024487906E+02  0.14670389497E+04  0.73279469302E+03  0.16408665802E+04  0.00000000000E+00 0. -1.
          3    1    6    6  503    0 -0.67510784066E+02 -0.23800263583E+02  0.16886984250E+02  0.73548138990E+02  0.00000000000E+00 0.  1.
         -3    1    6    6    0  503 -0.12750381743E+03  0.64784335061E+02 -0.29016252652E+02  0.14593209533E+03  0.00000000000E+00 0. -1.
<mgrwt>
<rscale>  0 0.46235110E+04</rscale>
<asrwt>0</asrwt>
<pdfrwt beam="1">  1        2 0.38287426E+00 0.46235110E+04</pdfrwt>
<pdfrwt beam="2">  1       -1 0.33037024E+00 0.46235110E+04</pdfrwt>
<totfact> 0.63119775E-02</totfact>
</mgrwt>
</event>
<event>
12    6  0.1402540E-007  0.1747625E+04  0.7818608E-02  0.8734659E-01
         -1   -1    0    0    0  501 -0.00000000000E+00  0.00000000000E+00  0.12747735754E+04  0.12747735754E+04  0.00000000000E+00 0.  1.
          2   -1    0    0  501    0  0.00000000000E+00 -0.00000000000E+00 -0.59896761539E+03  0.59896761539E+03  0.00000000000E+00 0. -1.
         24    2    1    2    0    0 -0.24213605480E+03 -0.59094351021E+03  0.21102693270E+03  0.67602281411E+03  0.68046877880E+02 0.  0.
        254    2    1    2    0    0  0.24213605480E+03  0.59094351021E+03  0.46477902734E+03  0.11977183767E+04  0.90036973757E+03 0.  0.
         23    2    4    4    0    0 -0.17107394727E+03  0.48938322971E+03 -0.43710624769E+02  0.52845619482E+03  0.92698922192E+02 0.  0.
         23    2    4    4    0    0  0.41321000206E+03  0.10156028050E+03  0.50848965211E+03  0.66926218187E+03  0.91066708525E+02 0.  0.
          2    1    3    3  502    0 -0.79069182957E+02 -0.20560588574E+03  0.10683165265E+03  0.24482385086E+03  0.00000000000E+00 0. -1.
         -1    1    3    3    0  502 -0.16306687184E+03 -0.38533762447E+03  0.10419528004E+03  0.43119896325E+03  0.00000000000E+00 0.  1.
         11    1    5    5    0    0 -0.50898118554E+02  0.27328651150E+03 -0.39443997201E+01  0.27801383802E+03  0.00000000000E+00 0.  1.
        -11    1    5    5    0    0 -0.12017582871E+03  0.21609671821E+03 -0.39766225049E+02  0.25044235680E+03  0.00000000000E+00 0. -1.
          4    1    6    6  503    0  0.32071101929E+03  0.99902016344E+02  0.34570186530E+03  0.48202256216E+03  0.00000000000E+00 0. -1.
         -4    1    6    6    0  503  0.92498982779E+02  0.16582641520E+01  0.16278778681E+03  0.18723961971E+03  0.00000000000E+00 0.  1.
<mgrwt>
<rscale>  0 0.17476248E+04</rscale>
<asrwt>0</asrwt>
<pdfrwt beam="1">  1        2 0.92148864E-01 0.17476248E+04</pdfrwt>
<pdfrwt beam="2">  1       -1 0.19611901E+00 0.17476248E+04</pdfrwt>
<totfact> 0.86165147E+00</totfact>
</mgrwt>
</event>
<event>
12    6  0.1402540E-007  0.2631095E+04  0.7818608E-02  0.8357715E-01
         -1   -1    0    0    0  501 -0.00000000000E+00  0.00000000000E+00  0.67890621425E+03  0.67890621425E+03  0.00000000000E+00 0.  1.
          2   -1    0    0  501    0  0.00000000000E+00 -0.00000000000E+00 -0.25491964503E+04  0.25491964503E+04  0.00000000000E+00 0. -1.
         24    2    1    2    0    0 -0.98850429551E+03 -0.59088896759E+03 -0.65031626633E+03  0.13250712989E+04  0.81315353271E+02 0.  0.
        254    2    1    2    0    0  0.98850429551E+03  0.59088896759E+03 -0.12199739697E+04  0.19030313656E+04  0.89827689355E+03 0.  0.
         23    2    4    4    0    0 -0.36058141084E+02  0.38868725815E+03 -0.23995875930E+03  0.46768078273E+03  0.93632975931E+02 0.  0.
         23    2    4    4    0    0  0.10245624366E+04  0.20220170944E+03 -0.98001521039E+03  0.14353505829E+04  0.95852831897E+02 0.  0.
          2    1    3    3  502    0 -0.67820249668E+03 -0.37784445480E+03 -0.47196139147E+03  0.90855523419E+03  0.00000000000E+00 0. -1.
         -1    1    3    3    0  502 -0.31030179884E+03 -0.21304451278E+03 -0.17835487485E+03  0.41651606472E+03  0.00000000000E+00 0.  1.
         11    1    5    5    0    0 -0.20179126097E+01  0.34732567448E+03 -0.19948175458E+03  0.40053984388E+03  0.00000000000E+00 0.  1.
        -11    1    5    5    0    0 -0.34040228474E+02  0.41361583666E+02 -0.40477004723E+02  0.67140938847E+02  0.00000000000E+00 0. -1.
          1    1    6    6  503    0  0.30632295711E+03  0.24109551749E+02 -0.25368625005E+03  0.39846171460E+03  0.00000000000E+00 0. -1.
         -1    1    6    6    0  503  0.71823947948E+03  0.17809215769E+03 -0.72632896034E+03  0.10368888683E+04  0.00000000000E+00 0.  1.
<mgrwt>
<rscale>  0 0.26310951E+04</rscale>
<asrwt>0</asrwt>
<pdfrwt beam="1">  1        2 0.39218406E+00 0.26310951E+04</pdfrwt>
<pdfrwt beam="2">  1       -1 0.10444711E+00 0.26310951E+04</pdfrwt>
<totfact> 0.28173970E+00</totfact>
</mgrwt>
</event>
<event>
12    6  0.1402540E-007  0.2233616E+04  0.7818608E-02  0.8504565E-01
          2   -1    0    0  501    0  0.00000000000E+00  0.00000000000E+00  0.30742334583E+04  0.30742334583E+04  0.00000000000E+00 0. -1.
         -1   -1    0    0    0  501 -0.00000000000E+00 -0.00000000000E+00 -0.40571427366E+03  0.40571427366E+03  0.00000000000E+00 0.  1.
         24    2    1    2    0    0 -0.88821017305E+03 -0.14634366068E+02  0.67112560820E+03  0.11161564950E+04  0.79147098490E+02 0.  0.
        254    2    1    2    0    0  0.88821017305E+03  0.14634366068E+02  0.19973935765E+04  0.23637912370E+04  0.89933110506E+03 0.  0.
         23    2    4    4    0    0  0.68101971463E+03 -0.21145673199E+03  0.18978518018E+04  0.20295701493E+04  0.93870805643E+02 0.  0.
         23    2    4    4    0    0  0.20719045843E+03  0.22609109806E+03  0.99541774652E+02  0.33422108766E+03  0.88034651416E+02 0.  0.
          4    1    3    3  502    0 -0.34262531548E+03 -0.18735250466E+01  0.30743629984E+03  0.46033976079E+03  0.00000000000E+00 0. -1.
         -3    1    3    3    0  502 -0.54558485757E+03 -0.12760841021E+02  0.36368930835E+03  0.65581673422E+03  0.00000000000E+00 0.  1.
         11    1    5    5    0    0  0.28162547455E+03 -0.13067665276E+03  0.88152750730E+03  0.93460154163E+03  0.00000000000E+00 0.  1.
        -11    1    5    5    0    0  0.39939424008E+03 -0.80780079226E+02  0.10163242945E+04  0.10949686077E+04  0.00000000000E+00 0. -1.
          3    1    6    6  503    0  0.17155212173E+03  0.15189192995E+03  0.39920968449E+02  0.23258325945E+03  0.00000000000E+00 0. -1.
         -3    1    6    6    0  503  0.35638336695E+02  0.74199168110E+02  0.59620806204E+02  0.10163782821E+03  0.00000000000E+00 0.  1.
<mgrwt>
<rscale>  0 0.22336163E+04</rscale>
<asrwt>0</asrwt>
<pdfrwt beam="1">  1        2 0.47295898E+00 0.22336163E+04</pdfrwt>
<pdfrwt beam="2">  1       -1 0.62417582E-01 0.22336163E+04</pdfrwt>
<totfact> 0.42255794E+00</totfact>
</mgrwt>
</event>
<event>
12    6  0.1402540E-007  0.1139805E+04  0.7818608E-02  0.9167241E-01
         -1   -1    0    0    0  501 -0.00000000000E+00  0.00000000000E+00  0.35176343586E+03  0.35176343586E+03  0.00000000000E+00 0.  1.
          2   -1    0    0  501    0  0.00000000000E+00 -0.00000000000E+00 -0.92331569392E+03  0.92331569392E+03  0.00000000000E+00 0. -1.
         24    2    1    2    0    0  0.99100507647E+02  0.14353150893E+03  0.69885817167E+01  0.19235126832E+03  0.80795825877E+02 0.  0.
        254    2    1    2    0    0 -0.99100507647E+02 -0.14353150893E+03 -0.57854083978E+03  0.10827278615E+04  0.89842524119E+03 0.  0.
         23    2    4    4    0    0 -0.21682802677E+03 -0.19473898251E+03 -0.77377104225E+03  0.83171624493E+03  0.89959000441E+02 0.  0.
         23    2    4    4    0    0  0.11772751913E+03  0.51207473575E+02  0.19523020247E+03  0.25101161652E+03  0.91706191503E+02 0.  0.
          2    1    3    3  502    0  0.95912433147E+01  0.16727289301E+02  0.29775980222E+02  0.35473978546E+02  0.00000000000E+00 0. -1.
         -1    1    3    3    0  502  0.89509264333E+02  0.12680421963E+03 -0.22787398505E+02  0.15687728978E+03  0.00000000000E+00 0.  1.
         11    1    5    5    0    0 -0.84910648793E+02 -0.13624693216E+03 -0.39380084271E+03  0.42526714959E+03  0.00000000000E+00 0. -1.
        -11    1    5    5    0    0 -0.13191737798E+03 -0.58492050344E+02 -0.37997019954E+03  0.40644909534E+03  0.00000000000E+00 0.  1.
          3    1    6    6  503    0  0.10005965233E+03  0.63801275286E+02  0.10579271735E+03  0.15897998552E+03  0.00000000000E+00 0. -1.
         -3    1    6    6    0  503  0.17667866797E+02 -0.12593801711E+02  0.89437485124E+02  0.92031630997E+02  0.00000000000E+00 0.  1.
<mgrwt>
<rscale>  0 0.11398047E+04</rscale>
<asrwt>0</asrwt>
<pdfrwt beam="1">  1        2 0.14204857E+00 0.11398047E+04</pdfrwt>
<pdfrwt beam="2">  1       -1 0.54117452E-01 0.11398047E+04</pdfrwt>
<totfact> 0.11016586E+02</totfact>
</mgrwt>
</event>
<event>
12    6  0.1402540E-007  0.4585880E+04  0.7818608E-02  0.7895772E-01
         -1   -1    0    0    0  501 -0.00000000000E+00  0.00000000000E+00  0.19330414183E+04  0.19330414183E+04  0.00000000000E+00 0.  1.
          2   -1    0    0  501    0  0.00000000000E+00 -0.00000000000E+00 -0.27198454730E+04  0.27198454730E+04  0.00000000000E+00 0. -1.
         24    2    1    2    0    0 -0.10128637474E+04 -0.12395729875E+04 -0.19147921492E+04  0.24970587887E+04  0.80246230693E+02 0.  0.
        254    2    1    2    0    0  0.10128637474E+04  0.12395729875E+04  0.11279880944E+04  0.21558281026E+04  0.90155615722E+03 0.  0.
         23    2    4    4    0    0  0.25401155926E+02  0.22804408681E+03 -0.11483709300E+03  0.27139603000E+03  0.88424673690E+02 0.  0.
         23    2    4    4    0    0  0.98746259144E+03  0.10115289007E+04  0.12428251874E+04  0.18844320726E+04  0.90535646166E+02 0.  0.
          2    1    3    3  502    0 -0.82284918944E+03 -0.96813610438E+03 -0.15512151524E+04  0.20051525514E+04  0.00000000000E+00 0. -1.
         -1    1    3    3    0  502 -0.19001455793E+03 -0.27143688311E+03 -0.36357699676E+03  0.49190623732E+03  0.00000000000E+00 0.  1.
         11    1    5    5    0    0  0.33927978642E+02  0.52870343390E+02 -0.61916501374E+02  0.88204501513E+02  0.00000000000E+00 0. -1.
        -11    1    5    5    0    0 -0.85268227161E+01  0.17517374342E+03 -0.52920591628E+02  0.18319152849E+03  0.00000000000E+00 0.  1.
          2    1    6    6  503    0  0.85609303213E+03  0.90203091718E+03  0.11229731757E+04  0.16755965530E+04  0.00000000000E+00 0. -1.
         -2    1    6    6    0  503  0.13136955932E+03  0.10949798350E+03  0.11985201174E+03  0.20883551954E+03  0.00000000000E+00 0.  1.
<mgrwt>
<rscale>  0 0.45858800E+04</rscale>
<asrwt>0</asrwt>
<pdfrwt beam="1">  1        2 0.41843776E+00 0.45858800E+04</pdfrwt>
<pdfrwt beam="2">  1       -1 0.29739099E+00 0.45858800E+04</pdfrwt>
<totfact> 0.75884168E-02</totfact>
</mgrwt>
</event>
<event>
12    6  0.1402540E-007  0.1661056E+04  0.7818608E-02  0.8783892E-01
          2   -1    0    0  501    0  0.00000000000E+00  0.00000000000E+00  0.29307296218E+03  0.29307296218E+03  0.00000000000E+00 0. -1.
         -1   -1    0    0    0  501 -0.00000000000E+00 -0.00000000000E+00 -0.23536018793E+04  0.23536018793E+04  0.00000000000E+00 0.  1.
         24    2    1    2    0    0 -0.48060525207E+03 -0.51919955035E+02 -0.12430710378E+04  0.13361646091E+04  0.80207028348E+02 0.  0.
        254    2    1    2    0    0  0.48060525207E+03  0.51919955035E+02 -0.81745787931E+03  0.13105102324E+04  0.90306289637E+03 0.  0.
         23    2    4    4    0    0  0.42904070646E+03 -0.44220234077E+02  0.38380232919E+02  0.44242962122E+03  0.90772080288E+02 0.  0.
         23    2    4    4    0    0  0.51564545618E+02  0.96140189111E+02 -0.85583811223E+03  0.86808061121E+03  0.95933491974E+02 0.  0.
          2    1    3    3  502    0 -0.24066294909E+03 -0.33676327624E+02 -0.51715191338E+03  0.57140078020E+03  0.00000000000E+00 0. -1.
         -1    1    3    3    0  502 -0.23994230298E+03 -0.18243627411E+02 -0.72591912444E+03  0.76476382886E+03  0.00000000000E+00 0.  1.
         11    1    5    5    0    0  0.36448831832E+03 -0.60797787513E+02  0.55374194454E+02  0.37365011250E+03  0.00000000000E+00 0. -1.
        -11    1    5    5    0    0  0.64552388132E+02  0.16577553437E+02 -0.16993961535E+02  0.68779508723E+02  0.00000000000E+00 0.  1.
          2    1    6    6  503    0  0.56051852605E+02  0.11331934254E+03 -0.71027524009E+03  0.72143884027E+03  0.00000000000E+00 0. -1.
         -2    1    6    6    0  503 -0.44873069870E+01 -0.17179153426E+02 -0.14556287214E+03  0.14664177093E+03  0.00000000000E+00 0.  1.
<mgrwt>
<rscale>  0 0.16610564E+04</rscale>
<asrwt>0</asrwt>
<pdfrwt beam="1">  1        2 0.45088150E-01 0.16610564E+04</pdfrwt>
<pdfrwt beam="2">  1       -1 0.36209258E+00 0.16610564E+04</pdfrwt>
<totfact> 0.15954186E+00</totfact>
</mgrwt>
</event>
<event>
12    6  0.1402540E-007  0.1889185E+04  0.7818608E-02  0.8660258E-01
          2   -1    0    0  501    0  0.00000000000E+00  0.00000000000E+00  0.13734622954E+04  0.13734622954E+04  0.00000000000E+00 0. -1.
         -1   -1    0    0    0  501 -0.00000000000E+00 -0.00000000000E+00 -0.64963930434E+03  0.64963930434E+03  0.00000000000E+00 0.  1.
         24    2    1    2    0    0 -0.45831506769E+03 -0.50182232292E+03  0.77807769912E+01  0.68439010305E+03  0.80317666845E+02 0.  0.
        254    2    1    2    0    0  0.45831506769E+03  0.50182232292E+03  0.71604221411E+03  0.13387114967E+04  0.90418674733E+03 0.  0.
         23    2    4    4    0    0  0.45138764808E+03  0.73572036085E+03  0.47517437827E+03  0.98970784086E+03  0.93250535065E+02 0.  0.
         23    2    4    4    0    0  0.69274196152E+01 -0.23389803793E+03  0.24086783584E+03  0.34900365587E+03  0.95026081583E+02 0.  0.
          2    1    3    3  502    0 -0.27257706260E+03 -0.24641593473E+03 -0.15104945815E+02  0.36775974131E+03  0.00000000000E+00 0. -1.
         -1    1    3    3    0  502 -0.18573800509E+03 -0.25540638819E+03  0.22885722806E+02  0.31663036173E+03  0.00000000000E+00 0.  1.
         11    1    5    5    0    0  0.40247370409E+03  0.68398636264E+03  0.45866476720E+03  0.91662194793E+03  0.00000000000E+00 0.  1.
        -11    1    5    5    0    0  0.48913943989E+02  0.51733998211E+02  0.16509611068E+02  0.73085892928E+02  0.00000000000E+00 0. -1.
          3    1    6    6  503    0  0.49868524322E+02 -0.14160233993E+03  0.13127119634E+03  0.19942472108E+03  0.00000000000E+00 0. -1.
         -3    1    6    6    0  503 -0.42941104707E+02 -0.92295698008E+02  0.10959663950E+03  0.14957893479E+03  0.00000000000E+00 0.  1.
<mgrwt>
<rscale>  0 0.18891851E+04</rscale>
<asrwt>0</asrwt>
<pdfrwt beam="1">  1        2 0.21130189E+00 0.18891851E+04</pdfrwt>
<pdfrwt beam="2">  1       -1 0.99944509E-01 0.18891851E+04</pdfrwt>
<totfact> 0.15281779E+01</totfact>
</mgrwt>
</event>
<event>
12    6  0.1402540E-007  0.1475370E+04  0.7818608E-02  0.8900998E-01
         -1   -1    0    0    0  501 -0.00000000000E+00  0.00000000000E+00  0.68903792473E+03  0.68903792473E+03  0.00000000000E+00 0.  1.
          2   -1    0    0  501    0  0.00000000000E+00 -0.00000000000E+00 -0.78976714423E+03  0.78976714423E+03  0.00000000000E+00 0. -1.
         24    2    1    2    0    0  0.68672718550E+02 -0.45129542908E+03  0.56359756397E+00  0.46456760846E+03  0.86251020889E+02 0.  0.
        254    2    1    2    0    0 -0.68672718550E+02  0.45129542908E+03 -0.10129281706E+03  0.10142374605E+04  0.90001882477E+03 0.  0.
         23    2    4    4    0    0  0.23472900779E+03  0.35788481413E+03 -0.38185431803E+03  0.58054276763E+03  0.89654545707E+02 0.  0.
         23    2    4    4    0    0 -0.30340172634E+03  0.93410614945E+02  0.28056150096E+03  0.43369469288E+03  0.92726373177E+02 0.  0.
          4    1    3    3  502    0  0.22123501655E+02 -0.12907582201E+03 -0.38916060229E+02  0.13661799624E+03  0.00000000000E+00 0. -1.
         -3    1    3    3    0  502  0.46549216896E+02 -0.32221960707E+03  0.39479657793E+02  0.32794961222E+03  0.00000000000E+00 0.  1.
         11    1    5    5    0    0  0.82992321809E+02  0.17296014014E+03 -0.12199007411E+03  0.22734228322E+03  0.00000000000E+00 0. -1.
        -11    1    5    5    0    0  0.15173668598E+03  0.18492467399E+03 -0.25986424391E+03  0.35320048441E+03  0.00000000000E+00 0.  1.
          2    1    6    6  503    0 -0.12032324887E+03  0.19584358596E+02  0.54383081344E+02  0.13348689395E+03  0.00000000000E+00 0. -1.
         -2    1    6    6    0  503 -0.18307847747E+03  0.73826256349E+02  0.22617841962E+03  0.30020779894E+03  0.00000000000E+00 0.  1.
<mgrwt>
<rscale>  0 0.14753705E+04</rscale>
<asrwt>0</asrwt>
<pdfrwt beam="1">  1        2 0.12150264E+00 0.14753705E+04</pdfrwt>
<pdfrwt beam="2">  1       -1 0.10600583E+00 0.14753705E+04</pdfrwt>
<totfact> 0.32255868E+01</totfact>
</mgrwt>
</event>
<event>
12    6  0.1402540E-007  0.1814223E+04  0.7818608E-02  0.8698772E-01
         -3   -1    0    0    0  501 -0.00000000000E+00  0.00000000000E+00  0.71163985106E+03  0.71163985106E+03  0.00000000000E+00 0.  1.
          2   -1    0    0  501    0  0.00000000000E+00 -0.00000000000E+00 -0.11562744048E+04  0.11562744048E+04  0.00000000000E+00 0. -1.
         24    2    1    2    0    0 -0.24207518465E+03  0.54173506237E+03 -0.51282050327E+03  0.78859516304E+03  0.82584440240E+02 0.  0.
        254    2    1    2    0    0  0.24207518465E+03 -0.54173506237E+03  0.68185949512E+02  0.10793190928E+04  0.89900117221E+03 0.  0.
         23    2    4    4    0    0 -0.13532804404E+03 -0.51597490865E+02 -0.30644410048E+03  0.35071572361E+03  0.90097455558E+02 0.  0.
         23    2    4    4    0    0  0.37740322870E+03 -0.49013757151E+03  0.37463004999E+03  0.72860336923E+03  0.88584193124E+02 0.  0.
          4    1    3    3  502    0 -0.17179861180E+03  0.33922905735E+03 -0.37311036502E+03  0.53273113374E+03  0.00000000000E+00 0. -1.
         -3    1    3    3    0  502 -0.70276572852E+02  0.20250600502E+03 -0.13971013824E+03  0.25586402930E+03  0.00000000000E+00 0.  1.
         11    1    5    5    0    0 -0.13593961425E+02  0.97899717986E+00  0.30892717120E+01  0.13974899728E+02  0.00000000000E+00 0. -1.
        -11    1    5    5    0    0 -0.12173408262E+03 -0.52576488045E+02 -0.30953337219E+03  0.33674082388E+03  0.00000000000E+00 0.  1.
          3    1    6    6  503    0  0.11949491434E+03 -0.16933527661E+03  0.17439931655E+03  0.27086637309E+03  0.00000000000E+00 0. -1.
         -3    1    6    6    0  503  0.25790831436E+03 -0.32080229490E+03  0.20023073344E+03  0.45773699615E+03  0.00000000000E+00 0.  1.
<mgrwt>
<rscale>  0 0.18142226E+04</rscale>
<asrwt>0</asrwt>
<pdfrwt beam="1">  1        2 0.17788837E+00 0.18142226E+04</pdfrwt>
<pdfrwt beam="2">  1       -3 0.10948305E+00 0.18142226E+04</pdfrwt>
<totfact> 0.84883342E+00</totfact>
</mgrwt>
</event>
<event>
12    6  0.1402540E-007  0.2336428E+04  0.7818608E-02  0.8463695E-01
         -1   -1    0    0    0  501 -0.00000000000E+00  0.00000000000E+00  0.49722825902E+03  0.49722825902E+03  0.00000000000E+00 0.  1.
          2   -1    0    0  501    0  0.00000000000E+00 -0.00000000000E+00 -0.27446634057E+04  0.27446634057E+04  0.00000000000E+00 0. -1.
         24    2    1    2    0    0  0.14081142290E+03  0.50382433839E+03  0.21293272424E+03  0.57037746586E+03  0.79519102969E+02 0.  0.
        254    2    1    2    0    0 -0.14081142290E+03 -0.50382433839E+03 -0.24603678709E+04  0.26715141988E+04  0.89995068399E+03 0.  0.
         23    2    4    4    0    0  0.57386078881E+02 -0.28417041537E+03 -0.23051332321E+04  0.23251244016E+04  0.92294517374E+02 0.  0.
         23    2    4    4    0    0 -0.19819750178E+03 -0.21965392302E+03 -0.15523463874E+03  0.34638979722E+03  0.91422114068E+02 0.  0.
          4    1    3    3  502    0 -0.16110929879E+01  0.83430757164E+02  0.16843977529E+02  0.85129351228E+02  0.00000000000E+00 0. -1.
         -3    1    3    3    0  502  0.14242251589E+03  0.42039358122E+03  0.19608874671E+03  0.48524811463E+03  0.00000000000E+00 0.  1.
         11    1    5    5    0    0 -0.20792037468E+02 -0.12121249011E+03 -0.10008759163E+04  0.10084033798E+04  0.00000000000E+00 0. -1.
        -11    1    5    5    0    0  0.78178116349E+02 -0.16295792526E+03 -0.13042573158E+04  0.13167210218E+04  0.00000000000E+00 0.  1.
          1    1    6    6  503    0 -0.61900845629E+02 -0.73988887096E+02 -0.48884337206E+01  0.96591753725E+02  0.00000000000E+00 0. -1.
         -1    1    6    6    0  503 -0.13629665615E+03 -0.14566503592E+03 -0.15034620502E+03  0.24979804349E+03  0.00000000000E+00 0.  1.
<mgrwt>
<rscale>  0 0.23364282E+04</rscale>
<asrwt>0</asrwt>
<pdfrwt beam="1">  1        2 0.42225590E+00 0.23364282E+04</pdfrwt>
<pdfrwt beam="2">  1       -1 0.76496658E-01 0.23364282E+04</pdfrwt>
<totfact> 0.44051687E+00</totfact>
</mgrwt>
</event>
<event>
12    6  0.1402540E-007  0.1533342E+04  0.7818608E-02  0.8862578E-01
          2   -1    0    0  501    0  0.00000000000E+00  0.00000000000E+00  0.13929466300E+04  0.13929466300E+04  0.00000000000E+00 0. -1.
         -1   -1    0    0    0  501 -0.00000000000E+00 -0.00000000000E+00 -0.42197216598E+03  0.42197216598E+03  0.00000000000E+00 0.  1.
         24    2    1    2    0    0 -0.29602830632E+03 -0.34725696991E+03  0.81561000039E+02  0.47007652860E+03  0.78099838154E+02 0.  0.
        254    2    1    2    0    0  0.29602830632E+03  0.34725696991E+03  0.88941346402E+03  0.13448422674E+04  0.89962450665E+03 0.  0.
         23    2    4    4    0    0  0.33857299416E+03 -0.12599520522E+03  0.51335771636E+02  0.37720119156E+03  0.95597663936E+02 0.  0.
         23    2    4    4    0    0 -0.42544687835E+02  0.47325217513E+03  0.83807769239E+03  0.96764107587E+03  0.90428764811E+02 0.  0.
          4    1    3    3  502    0 -0.21242436306E+03 -0.22690861476E+03  0.89106901487E+02  0.32334450570E+03  0.00000000000E+00 0. -1.
         -3    1    3    3    0  502 -0.83603943267E+02 -0.12034835515E+03 -0.75459014483E+01  0.14673202290E+03  0.00000000000E+00 0.  1.
         11    1    5    5    0    0  0.17612389683E+03 -0.78389677251E+02 -0.19360860325E+02  0.19375090051E+03  0.00000000000E+00 0.  1.
        -11    1    5    5    0    0  0.16244909733E+03 -0.47605527967E+02  0.70696631960E+02  0.18345029105E+03  0.00000000000E+00 0. -1.
          4    1    6    6  503    0 -0.35608547538E+02  0.96716067276E+02  0.13265889678E+03  0.16798913424E+03  0.00000000000E+00 0. -1.
         -4    1    6    6    0  503 -0.69361402969E+01  0.37653610785E+03  0.70541879560E+03  0.79965194163E+03  0.00000000000E+00 0.  1.
<mgrwt>
<rscale>  0 0.15333424E+04</rscale>
<asrwt>0</asrwt>
<pdfrwt beam="1">  1        2 0.21429948E+00 0.15333424E+04</pdfrwt>
<pdfrwt beam="2">  1       -1 0.64918795E-01 0.15333424E+04</pdfrwt>
<totfact> 0.38597264E+01</totfact>
</mgrwt>
</event>
<event>
12    6  0.1402540E-007  0.1611762E+04  0.7818608E-02  0.8813354E-01
         -1   -1    0    0    0  501 -0.00000000000E+00  0.00000000000E+00  0.81250891145E+03  0.81250891145E+03  0.00000000000E+00 0.  1.
          2   -1    0    0  501    0  0.00000000000E+00 -0.00000000000E+00 -0.79930733077E+03  0.79930733077E+03  0.00000000000E+00 0. -1.
         24    2    1    2    0    0 -0.54814971220E+03  0.51059876232E+02 -0.12313544755E+02  0.55644114300E+03  0.79999401866E+02 0.  0.
        254    2    1    2    0    0  0.54814971220E+03 -0.51059876232E+02  0.25515125443E+02  0.10553750992E+04  0.90005019887E+03 0.  0.
         23    2    4    4    0    0 -0.10091898162E+03  0.26603840123E+03  0.11824262533E+03  0.32125104079E+03  0.90883667319E+02 0.  0.
         23    2    4    4    0    0  0.64906869381E+03 -0.31709827747E+03 -0.92727499883E+02  0.73412405843E+03  0.92185991683E+02 0.  0.
          4    1    3    3  502    0 -0.38019635465E+03  0.26990372977E+01 -0.26236992297E+02  0.38111013193E+03  0.00000000000E+00 0. -1.
         -3    1    3    3    0  502 -0.16795335755E+03  0.48360838935E+02  0.13923447542E+02  0.17533101108E+03  0.00000000000E+00 0.  1.
         11    1    5    5    0    0 -0.11029731818E+03  0.26525483465E+03  0.10691270422E+03  0.30652235159E+03  0.00000000000E+00 0.  1.
        -11    1    5    5    0    0  0.93783365665E+01  0.78356658589E+00  0.11329921102E+02  0.14728689199E+02  0.00000000000E+00 0. -1.
          3    1    6    6  503    0  0.10103027619E+03 -0.50584148346E+02  0.18965315475E+02  0.11456681876E+03  0.00000000000E+00 0. -1.
         -3    1    6    6    0  503  0.54803841763E+03 -0.26651412912E+03 -0.11169281536E+03  0.61955723966E+03  0.00000000000E+00 0.  1.
<mgrwt>
<rscale>  0 0.16117622E+04</rscale>
<asrwt>0</asrwt>
<pdfrwt beam="1">  1        2 0.12297036E+00 0.16117622E+04</pdfrwt>
<pdfrwt beam="2">  1       -1 0.12500137E+00 0.16117622E+04</pdfrwt>
<totfact> 0.21113597E+01</totfact>
</mgrwt>
</event>
<event>
12    6  0.1402540E-007  0.1545467E+04  0.7818608E-02  0.8854768E-01
         -1   -1    0    0    0  501 -0.00000000000E+00  0.00000000000E+00  0.44247453328E+03  0.44247453328E+03  0.00000000000E+00 0.  1.
          2   -1    0    0  501    0  0.00000000000E+00 -0.00000000000E+00 -0.13494946122E+04  0.13494946122E+04  0.00000000000E+00 0. -1.
         24    2    1    2    0    0  0.36370878407E+03 -0.16411124555E+02  0.10728957786E+03  0.38767420913E+03  0.78910292642E+02 0.  0.
        254    2    1    2    0    0 -0.36370878407E+03  0.16411124555E+02 -0.10143096568E+04  0.14042949364E+04  0.90037035923E+03 0.  0.
         23    2    4    4    0    0 -0.33995904662E+03 -0.89306856433E+02 -0.11515664277E+04  0.12067753532E+04  0.81569894043E+02 0.  0.
         23    2    4    4    0    0 -0.23749737451E+02  0.10571798099E+03  0.13725677094E+03  0.19751958316E+03  0.91838026058E+02 0.  0.
          2    1    3    3  502    0  0.20268538697E+03 -0.31732713920E+02  0.93135364218E+02  0.22530540893E+03  0.00000000000E+00 0. -1.
         -1    1    3    3    0  502  0.16102339710E+03  0.15321589365E+02  0.14154213647E+02  0.16236880020E+03  0.00000000000E+00 0.  1.
         11    1    5    5    0    0 -0.14320283007E+03  0.28436000775E+01 -0.43224012456E+03  0.45535333740E+03  0.00000000000E+00 0. -1.
        -11    1    5    5    0    0 -0.19675621655E+03 -0.92150456511E+02 -0.71932630318E+03  0.75142201580E+03  0.00000000000E+00 0.  1.
          2    1    6    6  503    0 -0.23934751285E+02  0.40902255126E+02  0.12207258365E+03  0.13094877805E+03  0.00000000000E+00 0. -1.
         -2    1    6    6    0  503  0.18501383453E+00  0.64815725862E+02  0.15184187283E+02  0.66570805107E+02  0.00000000000E+00 0.  1.
<mgrwt>
<rscale>  0 0.15454669E+04</rscale>
<asrwt>0</asrwt>
<pdfrwt beam="1">  1        2 0.20761456E+00 0.15454669E+04</pdfrwt>
<pdfrwt beam="2">  1       -1 0.68073005E-01 0.15454669E+04</pdfrwt>
<totfact> 0.37101337E+01</totfact>
</mgrwt>
</event>
<event>
12    6  0.1402540E-007  0.2447544E+04  0.7818608E-02  0.8421915E-01
         -1   -1    0    0    0  501 -0.00000000000E+00  0.00000000000E+00  0.94036808670E+03  0.94036808670E+03  0.00000000000E+00 0.  1.
          2   -1    0    0  501    0  0.00000000000E+00 -0.00000000000E+00 -0.15925872519E+04  0.15925872519E+04  0.00000000000E+00 0. -1.
         24    2    1    2    0    0  0.25190894116E+03 -0.91392140488E+03  0.20204842728E+03  0.97250844764E+03  0.78985218978E+02 0.  0.
        254    2    1    2    0    0 -0.25190894116E+03  0.91392140488E+03 -0.85426759251E+03  0.15604468910E+04  0.89805953646E+03 0.  0.
         23    2    4    4    0    0  0.30103683009E+03  0.20423615505E+03 -0.40089105722E+03  0.54859474597E+03  0.88921175451E+02 0.  0.
         23    2    4    4    0    0 -0.55294577125E+03  0.70968524983E+03 -0.45337653529E+03  0.10118521450E+04  0.94298997045E+02 0.  0.
          2    1    3    3  502    0  0.63206495688E+02 -0.37000333711E+03  0.69925951489E+02  0.38182086017E+03  0.00000000000E+00 0. -1.
         -1    1    3    3    0  502  0.18870244547E+03 -0.54391806778E+03  0.13212247579E+03  0.59068758747E+03  0.00000000000E+00 0.  1.
         11    1    5    5    0    0  0.10472394397E+03  0.12169537751E+03 -0.19208856725E+03  0.25034952969E+03  0.00000000000E+00 0.  1.
        -11    1    5    5    0    0  0.19631288613E+03  0.82540777543E+02 -0.20880248997E+03  0.29824521629E+03  0.00000000000E+00 0. -1.
          2    1    6    6  503    0 -0.13920590778E+03  0.11909926841E+03 -0.81408272986E+02  0.20047500445E+03  0.00000000000E+00 0.  1.
         -2    1    6    6    0  503 -0.41373986347E+03  0.59058598142E+03 -0.37196826230E+03  0.81137714056E+03  0.00000000000E+00 0. -1.
<mgrwt>
<rscale>  0 0.24475443E+04</rscale>
<asrwt>0</asrwt>
<pdfrwt beam="1">  1        2 0.24501342E+00 0.24475443E+04</pdfrwt>
<pdfrwt beam="2">  1       -1 0.14467201E+00 0.24475443E+04</pdfrwt>
<totfact> 0.44148300E+00</totfact>
</mgrwt>
</event>
<event>
12    6  0.1402540E-007  0.1224133E+04  0.7818608E-02  0.9091991E-01
         -1   -1    0    0    0  501 -0.00000000000E+00  0.00000000000E+00  0.31446498843E+03  0.31446498843E+03  0.00000000000E+00 0.  1.
          2   -1    0    0  501    0  0.00000000000E+00 -0.00000000000E+00 -0.11913109509E+04  0.11913109509E+04  0.00000000000E+00 0. -1.
         24    2    1    2    0    0  0.85898351440E+02 -0.23090415510E+03 -0.34347415257E+03  0.43050755378E+03  0.81651728448E+02 0.  0.
        254    2    1    2    0    0 -0.85898351440E+02  0.23090415510E+03 -0.53337180994E+03  0.10752683856E+04  0.90056724224E+03 0.  0.
         23    2    4    4    0    0 -0.29325552047E+03 -0.83549341254E+02  0.98887648944E+02  0.33381018962E+03  0.93119186369E+02 0.  0.
         23    2    4    4    0    0  0.20735716903E+03  0.31445349635E+03 -0.63225945888E+03  0.74145819597E+03  0.90167821880E+02 0.  0.
          2    1    3    3  502    0  0.61555018623E+02 -0.11275695208E+03 -0.23714706614E+03  0.26970702908E+03  0.00000000000E+00 0. -1.
         -1    1    3    3    0  502  0.24343332817E+02 -0.11814720302E+03 -0.10632708644E+03  0.16080052470E+03  0.00000000000E+00 0.  1.
         11    1    5    5    0    0 -0.14972926919E+02  0.12800791613E+02  0.21832253395E+02  0.29405715342E+02  0.00000000000E+00 0.  1.
        -11    1    5    5    0    0 -0.27828259355E+03 -0.96350132867E+02  0.77055395548E+02  0.30440447428E+03  0.00000000000E+00 0. -1.
          3    1    6    6  503    0  0.19224798810E+03  0.31648483118E+03 -0.59049245692E+03  0.69699589595E+03  0.00000000000E+00 0. -1.
         -3    1    6    6    0  503  0.15109180935E+02 -0.20313348264E+01 -0.41767001965E+02  0.44462300017E+02  0.00000000000E+00 0.  1.
<mgrwt>
<rscale>  0 0.12241333E+04</rscale>
<asrwt>0</asrwt>
<pdfrwt beam="1">  1        2 0.18327860E+00 0.12241333E+04</pdfrwt>
<pdfrwt beam="2">  1       -1 0.48379230E-01 0.12241333E+04</pdfrwt>
<totfact> 0.91976269E+01</totfact>
</mgrwt>
</event>
<event>
12    6  0.1402540E-007  0.1238172E+04  0.7818608E-02  0.9080085E-01
         -1   -1    0    0    0  501 -0.00000000000E+00  0.00000000000E+00  0.73020748740E+03  0.73020748740E+03  0.00000000000E+00 0.  1.
          2   -1    0    0  501    0  0.00000000000E+00 -0.00000000000E+00 -0.52487489337E+03  0.52487489337E+03  0.00000000000E+00 0. -1.
         24    2    1    2    0    0 -0.43834509254E+02  0.23596729883E+03  0.20303032913E+03  0.32551692753E+03  0.84486242931E+02 0.  0.
        254    2    1    2    0    0  0.43834509254E+02 -0.23596729883E+03  0.23022649054E+01  0.92956545324E+03  0.89804487700E+03 0.  0.
         23    2    4    4    0    0  0.37897923970E+03 -0.30859089599E+03 -0.18393596984E+03  0.52899483996E+03  0.84554683472E+02 0.  0.
         23    2    4    4    0    0 -0.33514473044E+03  0.72623597164E+02  0.18623823475E+03  0.40057061327E+03  0.90421009328E+02 0.  0.
          2    1    3    3  502    0 -0.14769839785E+01  0.25118088920E+02 -0.57198485382E+01  0.25803421091E+02  0.00000000000E+00 0. -1.
         -1    1    3    3    0  502 -0.42357525276E+02  0.21084920991E+03  0.20875017767E+03  0.29971350644E+03  0.00000000000E+00 0.  1.
         11    1    5    5    0    0  0.19192997162E+03 -0.15904389221E+03 -0.13877934904E+03  0.28529244886E+03  0.00000000000E+00 0. -1.
        -11    1    5    5    0    0  0.18704926808E+03 -0.14954700378E+03 -0.45156620798E+02  0.24370239111E+03  0.00000000000E+00 0.  1.
          2    1    6    6  503    0 -0.30154239530E+03  0.65284063976E+02  0.19511693539E+03  0.36504854971E+03  0.00000000000E+00 0. -1.
         -2    1    6    6    0  503 -0.33602335144E+02  0.73395331885E+01 -0.88787006414E+01  0.35522063561E+02  0.00000000000E+00 0.  1.
<mgrwt>
<rscale>  0 0.12381722E+04</rscale>
<asrwt>0</asrwt>
<pdfrwt beam="1">  1        2 0.80749984E-01 0.12381722E+04</pdfrwt>
<pdfrwt beam="2">  1       -1 0.11233961E+00 0.12381722E+04</pdfrwt>
<totfact> 0.47553710E+01</totfact>
</mgrwt>
</event>
<event>
12    6  0.1402540E-007  0.3313732E+04  0.7818608E-02  0.8159410E-01
          2   -1    0    0  501    0  0.00000000000E+00  0.00000000000E+00  0.35111197426E+04  0.35111197426E+04  0.00000000000E+00 0. -1.
         -1   -1    0    0    0  501 -0.00000000000E+00 -0.00000000000E+00 -0.78186026636E+03  0.78186026636E+03  0.00000000000E+00 0.  1.
         24    2    1    2    0    0 -0.12977064263E+04  0.49245156608E+03  0.42042940202E+03  0.14525604573E+04  0.81366369295E+02 0.  0.
        254    2    1    2    0    0  0.12977064263E+04 -0.49245156608E+03  0.23088300742E+04  0.28404195517E+04  0.90040902043E+03 0.  0.
         23    2    4    4    0    0  0.10762286388E+04 -0.12730135865E+02  0.18118436320E+04  0.21093799498E+04  0.90974096722E+02 0.  0.
         23    2    4    4    0    0  0.22147778753E+03 -0.47972143022E+03  0.49698644220E+03  0.73103960191E+03  0.90765163190E+02 0.  0.
          2    1    3    3  502    0 -0.54633269579E+03  0.16457641831E+03  0.17478191688E+03  0.59675248673E+03  0.00000000000E+00 0. -1.
         -1    1    3    3    0  502 -0.75137373055E+03  0.32787514777E+03  0.24564748514E+03  0.85580797055E+03  0.00000000000E+00 0.  1.
         11    1    5    5    0    0  0.66226200658E+03  0.29681161297E+02  0.10667635745E+04  0.12559683358E+04  0.00000000000E+00 0.  1.
        -11    1    5    5    0    0  0.41396663223E+03 -0.42411297162E+02  0.74508005753E+03  0.85341161397E+03  0.00000000000E+00 0. -1.
          4    1    6    6  503    0 -0.72686917657E+01 -0.29831390219E+02  0.37875032138E+02  0.48757192104E+02  0.00000000000E+00 0. -1.
         -4    1    6    6    0  503  0.22874647929E+03 -0.44989004000E+03  0.45911141006E+03  0.68228240980E+03  0.00000000000E+00 0.  1.
<mgrwt>
<rscale>  0 0.33137320E+04</rscale>
<asrwt>0</asrwt>
<pdfrwt beam="1">  1        2 0.54017226E+00 0.33137320E+04</pdfrwt>
<pdfrwt beam="2">  1       -1 0.12028620E+00 0.33137320E+04</pdfrwt>
<totfact> 0.46485565E-01</totfact>
</mgrwt>
</event>
<event>
12    6  0.1402540E-007  0.2840573E+04  0.7818608E-02  0.8290781E-01
         -1   -1    0    0    0  501 -0.00000000000E+00  0.00000000000E+00  0.14307058871E+04  0.14307058871E+04  0.00000000000E+00 0.  1.
          2   -1    0    0  501    0  0.00000000000E+00 -0.00000000000E+00 -0.14099434301E+04  0.14099434301E+04  0.00000000000E+00 0. -1.
         24    2    1    2    0    0 -0.63258116555E+03  0.35018950355E+03  0.10610250996E+04  0.12865564862E+04  0.81619305037E+02 0.  0.
        254    2    1    2    0    0  0.63258116555E+03 -0.35018950355E+03 -0.10402626426E+04  0.15540928310E+04  0.90014806688E+03 0.  0.
         23    2    4    4    0    0  0.29889793429E+03 -0.21838586912E+03  0.66542116996E+02  0.38708491477E+03  0.91512375937E+02 0.  0.
         23    2    4    4    0    0  0.33368323125E+03 -0.13180363443E+03 -0.11068047596E+04  0.11670079162E+04  0.90410197354E+02 0.  0.
          2    1    3    3  502    0 -0.70833215133E+02  0.70069705726E+02  0.15801059546E+03  0.18680057897E+03  0.00000000000E+00 0. -1.
         -1    1    3    3    0  502 -0.56174795041E+03  0.28011979782E+03  0.90301450413E+03  0.10997559073E+04  0.00000000000E+00 0.  1.
         11    1    5    5    0    0  0.13095953195E+03 -0.14490158325E+03  0.11337842599E+02  0.19564103483E+03  0.00000000000E+00 0. -1.
        -11    1    5    5    0    0  0.16793840234E+03 -0.73484285874E+02  0.55204274398E+02  0.19144387993E+03  0.00000000000E+00 0.  1.
          1    1    6    6  503    0  0.19519791221E+03 -0.29029957310E+02 -0.60916842398E+03  0.64033673339E+03  0.00000000000E+00 0. -1.
         -1    1    6    6    0  503  0.13848531905E+03 -0.10277367712E+03 -0.49763633558E+03  0.52667118280E+03  0.00000000000E+00 0.  1.
<mgrwt>
<rscale>  0 0.28405734E+04</rscale>
<asrwt>0</asrwt>
<pdfrwt beam="1">  1        2 0.21691437E+00 0.28405734E+04</pdfrwt>
<pdfrwt beam="2">  1       -1 0.22010860E+00 0.28405734E+04</pdfrwt>
<totfact> 0.15499601E+00</totfact>
</mgrwt>
</event>
<event>
12    6  0.1402540E-007  0.1562470E+04  0.7818608E-02  0.8843942E-01
         -1   -1    0    0    0  501 -0.00000000000E+00  0.00000000000E+00  0.75903341072E+03  0.75903341072E+03  0.00000000000E+00 0.  1.
          2   -1    0    0  501    0  0.00000000000E+00 -0.00000000000E+00 -0.80408560446E+03  0.80408560446E+03  0.00000000000E+00 0. -1.
         24    2    1    2    0    0  0.14395378781E+03  0.49698245673E+03 -0.77641293748E+02  0.52933920479E+03  0.80358993912E+02 0.  0.
        254    2    1    2    0    0 -0.14395378781E+03 -0.49698245673E+03  0.32589100006E+02  0.10337798104E+04  0.89438492362E+03 0.  0.
         23    2    4    4    0    0  0.12807515440E+03 -0.67605844118E+03  0.37078173277E+02  0.69549156895E+03  0.94209715411E+02 0.  0.
         23    2    4    4    0    0 -0.27202894221E+03  0.17907598445E+03 -0.44890732702E+01  0.33828824144E+03  0.91382869901E+02 0.  0.
          2    1    3    3  502    0  0.47669816040E+02  0.27354535703E+03 -0.67875537149E+02  0.28584359755E+03  0.00000000000E+00 0. -1.
         -1    1    3    3    0  502  0.96283971771E+02  0.22343709970E+03 -0.97657565996E+01  0.24349560724E+03  0.00000000000E+00 0.  1.
         11    1    5    5    0    0  0.30403070038E+02 -0.28203413632E+03 -0.25231004234E+02  0.28478799886E+03  0.00000000000E+00 0. -1.
        -11    1    5    5    0    0  0.97672084359E+02 -0.39402430486E+03  0.62309177511E+02  0.41070357009E+03  0.00000000000E+00 0.  1.
          3    1    6    6  503    0 -0.10382132332E+03  0.43941075493E+02  0.36830402948E+02  0.11860085950E+03  0.00000000000E+00 0. -1.
         -3    1    6    6    0  503 -0.16820761889E+03  0.13513490896E+03 -0.41319476218E+02  0.21968738194E+03  0.00000000000E+00 0.  1.
<mgrwt>
<rscale>  0 0.15624696E+04</rscale>
<asrwt>0</asrwt>
<pdfrwt beam="1">  1        2 0.12370548E+00 0.15624696E+04</pdfrwt>
<pdfrwt beam="2">  1       -1 0.11677437E+00 0.15624696E+04</pdfrwt>
<totfact> 0.24856133E+01</totfact>
</mgrwt>
</event>
<event>
12    6  0.1402540E-007  0.3131692E+04  0.7818608E-02  0.8207094E-01
         -1   -1    0    0    0  501 -0.00000000000E+00  0.00000000000E+00  0.23038022103E+04  0.23038022103E+04  0.00000000000E+00 0.  1.
          2   -1    0    0  501    0  0.00000000000E+00 -0.00000000000E+00 -0.10642726317E+04  0.10642726317E+04  0.00000000000E+00 0. -1.
         24    2    1    2    0    0 -0.17390983546E+03 -0.14244243587E+04  0.58311610130E+03  0.15510077289E+04  0.79819817086E+02 0.  0.
        254    2    1    2    0    0  0.17390983546E+03  0.14244243587E+04  0.65641347734E+03  0.18170671130E+04  0.90090224528E+03 0.  0.
         23    2    4    4    0    0 -0.13029388243E+03  0.13162715037E+04  0.36925415862E+03  0.13761265066E+04  0.88478027535E+02 0.  0.
         23    2    4    4    0    0  0.30420371788E+03  0.10815285498E+03  0.28715931871E+03  0.44094060639E+03  0.87927254186E+02 0.  0.
          2    1    3    3  502    0 -0.94143356340E+02 -0.83712764657E+03  0.38366691150E+03  0.92565974697E+03  0.00000000000E+00 0. -1.
         -1    1    3    3    0  502 -0.79766479116E+02 -0.58729671211E+03  0.19944918980E+03  0.62534798197E+03  0.00000000000E+00 0.  1.
         11    1    5    5    0    0 -0.47693022666E+02  0.70920186916E+03  0.15881754042E+03  0.72833023195E+03  0.00000000000E+00 0. -1.
        -11    1    5    5    0    0 -0.82600859759E+02  0.60706963454E+03  0.21043661820E+03  0.64779627468E+03  0.00000000000E+00 0.  1.
          1    1    6    6  503    0  0.43040642036E+02  0.50172414754E+02  0.70945599653E+02  0.96969305346E+02  0.00000000000E+00 0. -1.
         -1    1    6    6    0  503  0.26116307585E+03  0.57980440228E+02  0.21621371906E+03  0.34397130105E+03  0.00000000000E+00 0.  1.
<mgrwt>
<rscale>  0 0.31316920E+04</rscale>
<asrwt>0</asrwt>
<pdfrwt beam="1">  1        2 0.16373425E+00 0.31316920E+04</pdfrwt>
<pdfrwt beam="2">  1       -1 0.35443111E+00 0.31316920E+04</pdfrwt>
<totfact> 0.32112828E-01</totfact>
</mgrwt>
</event>
<event>
12    6  0.1402540E-007  0.3244519E+04  0.7818608E-02  0.8177158E-01
         -1   -1    0    0    0  501 -0.00000000000E+00  0.00000000000E+00  0.13090489695E+04  0.13090489695E+04  0.00000000000E+00 0.  1.
          2   -1    0    0  501    0  0.00000000000E+00 -0.00000000000E+00 -0.20104104206E+04  0.20104104206E+04  0.00000000000E+00 0. -1.
         24    2    1    2    0    0 -0.10984970960E+04 -0.57531711757E+03  0.53408012423E+03  0.13511831880E+04  0.52619129647E+02 0.  0.
        254    2    1    2    0    0  0.10984970960E+04  0.57531711757E+03 -0.12354415754E+04  0.19682762021E+04  0.90006092337E+03 0.  0.
         23    2    4    4    0    0  0.72799805673E+03  0.79531853679E+03 -0.77432029758E+03  0.13306276989E+04  0.92116253992E+02 0.  0.
         23    2    4    4    0    0  0.37049903926E+03 -0.22000141922E+03 -0.46112127784E+03  0.63764850320E+03  0.91063813932E+02 0.  0.
          4    1    3    3  502    0 -0.25445667795E+03 -0.15778496295E+03  0.13528383917E+03  0.32855138506E+03  0.00000000000E+00 0. -1.
         -3    1    3    3    0  502 -0.84404041804E+03 -0.41753215462E+03  0.39879628506E+03  0.10226318029E+04  0.00000000000E+00 0.  1.
         11    1    5    5    0    0  0.41647841062E+03  0.49662810323E+03 -0.42106959333E+03  0.77291224719E+03  0.00000000000E+00 0. -1.
        -11    1    5    5    0    0  0.31151964611E+03  0.29869043356E+03 -0.35325070426E+03  0.55771545170E+03  0.00000000000E+00 0.  1.
          2    1    6    6  503    0  0.34319747466E+03 -0.22751179034E+03 -0.43727433834E+03  0.60062881077E+03  0.00000000000E+00 0. -1.
         -2    1    6    6    0  503  0.27301564600E+02  0.75103711252E+01 -0.23846939494E+02  0.37019692426E+02  0.00000000000E+00 0.  1.
<mgrwt>
<rscale>  0 0.32445189E+04</rscale>
<asrwt>0</asrwt>
<pdfrwt beam="1">  1        2 0.30929391E+00 0.32445189E+04</pdfrwt>
<pdfrwt beam="2">  1       -1 0.20139215E+00 0.32445189E+04</pdfrwt>
<totfact> 0.92617708E-01</totfact>
</mgrwt>
</event>
<event>
12    6  0.1402540E-007  0.1605391E+04  0.7818608E-02  0.8817243E-01
         -1   -1    0    0    0  501 -0.00000000000E+00  0.00000000000E+00  0.66912023555E+03  0.66912023555E+03  0.00000000000E+00 0.  1.
          2   -1    0    0  501    0  0.00000000000E+00 -0.00000000000E+00 -0.96293671100E+03  0.96293671100E+03  0.00000000000E+00 0. -1.
         24    2    1    2    0    0  0.50679297495E+03 -0.90836452923E+02  0.80928870871E+02  0.52748596420E+03  0.81250105537E+02 0.  0.
        254    2    1    2    0    0 -0.50679297495E+03  0.90836452923E+02 -0.37474534631E+03  0.11045709823E+04  0.90252567820E+03 0.  0.
         23    2    4    4    0    0 -0.34775195264E+03  0.44394980814E+03 -0.19938077823E+02  0.57149433549E+03  0.90473177472E+02 0.  0.
         23    2    4    4    0    0 -0.15904102231E+03 -0.35311335522E+03 -0.35480726849E+03  0.53307664685E+03  0.91101181310E+02 0.  0.
          2    1    3    3  502    0  0.49994590062E+03 -0.78221372102E+02  0.83596192167E+02  0.51288674183E+03  0.00000000000E+00 0. -1.
         -1    1    3    3    0  502  0.68470743352E+01 -0.12615080821E+02 -0.26673212968E+01  0.14599222375E+02  0.00000000000E+00 0.  1.
         11    1    5    5    0    0 -0.27461604276E+03  0.29153116334E+03 -0.33440874901E+02  0.40189884580E+03  0.00000000000E+00 0. -1.
        -11    1    5    5    0    0 -0.73135909883E+02  0.15241864480E+03  0.13502797078E+02  0.16959548970E+03  0.00000000000E+00 0.  1.
          2    1    6    6  503    0 -0.11053915462E+03 -0.13544601453E+03 -0.15818806870E+03  0.23577105980E+03  0.00000000000E+00 0.  1.
         -2    1    6    6    0  503 -0.48501867686E+02 -0.21766734068E+03 -0.19661919979E+03  0.29730558706E+03  0.00000000000E+00 0. -1.
<mgrwt>
<rscale>  0 0.16053915E+04</rscale>
<asrwt>0</asrwt>
<pdfrwt beam="1">  1        2 0.14814411E+00 0.16053915E+04</pdfrwt>
<pdfrwt beam="2">  1       -1 0.10294158E+00 0.16053915E+04</pdfrwt>
<totfact> 0.25965265E+01</totfact>
</mgrwt>
</event>
<event>
12    6  0.1402540E-007  0.1343347E+04  0.7818608E-02  0.8995880E-01
          2   -1    0    0  501    0  0.00000000000E+00  0.00000000000E+00  0.10050704871E+04  0.10050704871E+04  0.00000000000E+00 0. -1.
         -1   -1    0    0    0  501 -0.00000000000E+00 -0.00000000000E+00 -0.44886903308E+03  0.44886903308E+03  0.00000000000E+00 0.  1.
         24    2    1    2    0    0 -0.20947418166E+03  0.67462124757E+02 -0.16103508795E+03  0.28427495283E+03  0.80308020745E+02 0.  0.
        254    2    1    2    0    0  0.20947418166E+03 -0.67462124757E+02  0.71723654193E+03  0.11696645673E+04  0.89736078132E+03 0.  0.
         23    2    4    4    0    0 -0.34501292799E+03 -0.17223261963E+02  0.33003917756E+03  0.48569541849E+03  0.87427796394E+02 0.  0.
         23    2    4    4    0    0  0.55448710966E+03 -0.50238862794E+02  0.38719736437E+03  0.68396914881E+03  0.88949982760E+02 0.  0.
          4    1    3    3  502    0 -0.77828046920E+02  0.25838064722E+02 -0.15113562674E+02  0.83386031520E+02  0.00000000000E+00 0. -1.
         -3    1    3    3    0  502 -0.13164613474E+03  0.41624060035E+02 -0.14592152528E+03  0.20088892131E+03  0.00000000000E+00 0.  1.
         11    1    5    5    0    0 -0.18574289876E+02 -0.21284268022E+02  0.40208966358E+02  0.49140464845E+02  0.00000000000E+00 0.  1.
        -11    1    5    5    0    0 -0.32643863812E+03  0.40610060589E+01  0.28983021120E+03  0.43655495364E+03  0.00000000000E+00 0. -1.
          3    1    6    6  503    0  0.24991355954E+03 -0.67112741940E+02  0.17978529036E+03  0.31509309418E+03  0.00000000000E+00 0. -1.
         -3    1    6    6    0  503  0.30457355012E+03  0.16873879147E+02  0.20741207402E+03  0.36887605463E+03  0.00000000000E+00 0.  1.
<mgrwt>
<rscale>  0 0.13433466E+04</rscale>
<asrwt>0</asrwt>
<pdfrwt beam="1">  1        2 0.15462623E+00 0.13433466E+04</pdfrwt>
<pdfrwt beam="2">  1       -1 0.69056774E-01 0.13433466E+04</pdfrwt>
<totfact> 0.59140000E+01</totfact>
</mgrwt>
</event>
<event>
12    6  0.1402540E-007  0.2860990E+04  0.7818608E-02  0.8284580E-01
          2   -1    0    0  501    0  0.00000000000E+00  0.00000000000E+00  0.21551956120E+04  0.21551956120E+04  0.00000000000E+00 0. -1.
         -1   -1    0    0    0  501 -0.00000000000E+00 -0.00000000000E+00 -0.94948036369E+03  0.94948036369E+03  0.00000000000E+00 0.  1.
         24    2    1    2    0    0 -0.45401889928E+03  0.11980210453E+04  0.68554933418E+03  0.14552278526E+04  0.79514950812E+02 0.  0.
        254    2    1    2    0    0  0.45401889928E+03 -0.11980210453E+04  0.52016591411E+03  0.16494481231E+04  0.89928802202E+03 0.  0.
         23    2    4    4    0    0  0.80064055108E+02 -0.11687974864E+04  0.33589734874E+03  0.12217782398E+04  0.86123291345E+02 0.  0.
         23    2    4    4    0    0  0.37395484417E+03 -0.29223558962E+02  0.18426856537E+03  0.42766988327E+03  0.90831618918E+02 0.  0.
          4    1    3    3  502    0 -0.26689528321E+03  0.64309740211E+03  0.33469899563E+03  0.77254823699E+03  0.00000000000E+00 0. -1.
         -3    1    3    3    0  502 -0.18712361607E+03  0.55492364322E+03  0.35085033855E+03  0.68267961560E+03  0.00000000000E+00 0.  1.
         11    1    5    5    0    0  0.78951920573E+02 -0.96289400912E+03  0.24503361647E+03  0.99671447856E+03  0.00000000000E+00 0.  1.
        -11    1    5    5    0    0  0.11121345353E+01 -0.20590347725E+03  0.90863732274E+02  0.22506376125E+03  0.00000000000E+00 0. -1.
          2    1    6    6  503    0  0.56867315573E+01 -0.12396079852E+02  0.19682427598E+02  0.23945765130E+02  0.00000000000E+00 0. -1.
         -2    1    6    6    0  503  0.36826811261E+03 -0.16827479110E+02  0.16458613777E+03  0.40372411814E+03  0.00000000000E+00 0.  1.
<mgrwt>
<rscale>  0 0.28609900E+04</rscale>
<asrwt>0</asrwt>
<pdfrwt beam="1">  1        2 0.33156855E+00 0.28609900E+04</pdfrwt>
<pdfrwt beam="2">  1       -1 0.14607390E+00 0.28609900E+04</pdfrwt>
<totfact> 0.20185555E+00</totfact>
</mgrwt>
</event>
<event>
12    6  0.1402540E-007  0.2228861E+04  0.7818608E-02  0.8506511E-01
          2   -1    0    0  501    0  0.00000000000E+00  0.00000000000E+00  0.30030228964E+04  0.30030228964E+04  0.00000000000E+00 0. -1.
         -1   -1    0    0    0  501 -0.00000000000E+00 -0.00000000000E+00 -0.41356851040E+03  0.41356851040E+03  0.00000000000E+00 0.  1.
         24    2    1    2    0    0  0.34042081291E+03  0.79960604511E+03  0.57449804509E+03  0.10448753908E+04  0.80376746073E+02 0.  0.
        254    2    1    2    0    0 -0.34042081291E+03 -0.79960604511E+03  0.20149563409E+04  0.23717160160E+04  0.89985090287E+03 0.  0.
         23    2    4    4    0    0 -0.20688434893E+03 -0.87956412793E+03  0.19927945803E+04  0.21900276741E+04  0.92502893500E+02 0.  0.
         23    2    4    4    0    0 -0.13353646398E+03  0.79958082815E+02  0.22161760683E+02  0.18168834188E+03  0.91072650778E+02 0.  0.
          4    1    3    3  502    0  0.17376335217E+03  0.35365638620E+03  0.30084531830E+03  0.49575643979E+03  0.00000000000E+00 0. -1.
         -3    1    3    3    0  502  0.16665746074E+03  0.44594965892E+03  0.27365272679E+03  0.54911895104E+03  0.00000000000E+00 0.  1.
         11    1    5    5    0    0 -0.23656646944E+02 -0.24027536238E+03  0.47128002430E+03  0.52952502114E+03  0.00000000000E+00 0.  1.
        -11    1    5    5    0    0 -0.18322770198E+03 -0.63928876555E+03  0.15215145560E+04  0.16605026530E+04  0.00000000000E+00 0. -1.
          2    1    6    6  503    0 -0.24054317167E+02  0.23384062921E+02 -0.32650325939E+02  0.46813121632E+02  0.00000000000E+00 0. -1.
         -2    1    6    6    0  503 -0.10948214681E+03  0.56574019895E+02  0.54812086621E+02  0.13487522025E+03  0.00000000000E+00 0.  1.
<mgrwt>
<rscale>  0 0.22288613E+04</rscale>
<asrwt>0</asrwt>
<pdfrwt beam="1">  1        2 0.46200351E+00 0.22288613E+04</pdfrwt>
<pdfrwt beam="2">  1       -1 0.63625927E-01 0.22288613E+04</pdfrwt>
<totfact> 0.45110301E+00</totfact>
</mgrwt>
</event>
<event>
12    6  0.1402540E-007  0.3289016E+04  0.7818608E-02  0.8165696E-01
          2   -1    0    0  501    0  0.00000000000E+00  0.00000000000E+00  0.17021909984E+04  0.17021909984E+04  0.00000000000E+00 0. -1.
         -1   -1    0    0    0  501 -0.00000000000E+00 -0.00000000000E+00 -0.15887794711E+04  0.15887794711E+04  0.00000000000E+00 0.  1.
         24    2    1    2    0    0 -0.28712100186E+03 -0.29870316071E+03 -0.14118732827E+04  0.14734002317E+04  0.76550823651E+02 0.  0.
        254    2    1    2    0    0  0.28712100186E+03  0.29870316071E+03  0.15252848100E+04  0.18175702378E+04  0.89744402030E+03 0.  0.
         23    2    4    4    0    0  0.23471948694E+03  0.36917877854E+03  0.20410838959E+03  0.49032260579E+03  0.85847626468E+02 0.  0.
         23    2    4    4    0    0  0.52401514922E+02 -0.70475617835E+02  0.13211764204E+04  0.13272476320E+04  0.91468088313E+02 0.  0.
          2    1    3    3  502    0 -0.20790166523E+03 -0.17334685335E+03 -0.83543407213E+03  0.87819264564E+03  0.00000000000E+00 0. -1.
         -1    1    3    3    0  502 -0.79219336632E+02 -0.12535630735E+03 -0.57643921054E+03  0.59520758609E+03  0.00000000000E+00 0.  1.
         11    1    5    5    0    0  0.17344119760E+03  0.32548396681E+03  0.15266397681E+03  0.39915905538E+03  0.00000000000E+00 0.  1.
        -11    1    5    5    0    0  0.61278289343E+02  0.43694811730E+02  0.51444412777E+02  0.91163550408E+02  0.00000000000E+00 0. -1.
          3    1    6    6  503    0 -0.79013435624E+01 -0.64267743292E+02  0.58251829426E+03  0.58610608017E+03  0.00000000000E+00 0. -1.
         -3    1    6    6    0  503  0.60302858484E+02 -0.62078745427E+01  0.73865812618E+03  0.74114155181E+03  0.00000000000E+00 0.  1.
<mgrwt>
<rscale>  0 0.32890157E+04</rscale>
<asrwt>0</asrwt>
<pdfrwt beam="1">  1        2 0.26187554E+00 0.32890157E+04</pdfrwt>
<pdfrwt beam="2">  1       -1 0.24442761E+00 0.32890157E+04</pdfrwt>
<totfact> 0.70550706E-01</totfact>
</mgrwt>
</event>
<event>
12    6  0.1402540E-007  0.4825787E+04  0.7818608E-02  0.7855958E-01
         -1   -1    0    0    0  501 -0.00000000000E+00  0.00000000000E+00  0.22967187021E+04  0.22967187021E+04  0.00000000000E+00 0.  1.
          2   -1    0    0  501    0  0.00000000000E+00 -0.00000000000E+00 -0.25349444571E+04  0.25349444571E+04  0.00000000000E+00 0. -1.
         24    2    1    2    0    0  0.15382749947E+04  0.14005323639E+04  0.93168675520E+03  0.22808085601E+04  0.79161961438E+02 0.  0.
        254    2    1    2    0    0 -0.15382749947E+04 -0.14005323639E+04 -0.11699125101E+04  0.25508545991E+04  0.90021277643E+03 0.  0.
         23    2    4    4    0    0 -0.65478411606E+03 -0.78983980726E+02 -0.44990439390E+03  0.80364645467E+03  0.91939940173E+02 0.  0.
         23    2    4    4    0    0 -0.88349087865E+03 -0.13215483832E+04 -0.72000811623E+03  0.17472081445E+04  0.85313251442E+02 0.  0.
          2    1    3    3  502    0  0.10409602878E+04  0.93353388558E+03  0.58690481140E+03  0.15164237844E+04  0.00000000000E+00 0. -1.
         -1    1    3    3    0  502  0.49731470692E+03  0.46699847835E+03  0.34478194380E+03  0.76438477567E+03  0.00000000000E+00 0.  1.
         11    1    5    5    0    0 -0.12597113253E+03 -0.51572569915E+02 -0.10126992619E+03  0.16965864006E+03  0.00000000000E+00 0. -1.
        -11    1    5    5    0    0 -0.52881298353E+03 -0.27411410811E+02 -0.34863446771E+03  0.63398781460E+03  0.00000000000E+00 0.  1.
          4    1    6    6  503    0 -0.20580042940E+02 -0.57849993070E+02 -0.20930349434E+02  0.64870944136E+02  0.00000000000E+00 0. -1.
         -4    1    6    6    0  503 -0.86291083571E+03 -0.12636983901E+04 -0.69907776679E+03  0.16823372003E+04  0.00000000000E+00 0.  1.
<mgrwt>
<rscale>  0 0.48257867E+04</rscale>
<asrwt>0</asrwt>
<pdfrwt beam="1">  1        2 0.38999145E+00 0.48257867E+04</pdfrwt>
<pdfrwt beam="2">  1       -1 0.35334134E+00 0.48257867E+04</pdfrwt>
<totfact> 0.41180342E-02</totfact>
</mgrwt>
</event>
<event>
12    6  0.1402540E-007  0.2871960E+04  0.7818608E-02  0.8281269E-01
          2   -1    0    0  501    0  0.00000000000E+00  0.00000000000E+00  0.21513246749E+04  0.21513246749E+04  0.00000000000E+00 0. -1.
         -1   -1    0    0    0  501 -0.00000000000E+00 -0.00000000000E+00 -0.95849740217E+03  0.95849740217E+03  0.00000000000E+00 0.  1.
         24    2    1    2    0    0  0.67571631685E+03  0.82387327996E+03 -0.25547998473E+03  0.10985252535E+04  0.78281464979E+02 0.  0.
        254    2    1    2    0    0 -0.67571631685E+03 -0.82387327996E+03  0.14483072575E+04  0.20112968236E+04  0.90131086654E+03 0.  0.
         23    2    4    4    0    0 -0.86666593220E+02  0.12770798477E+03 -0.80153568711E+00  0.17808900801E+03  0.88851699824E+02 0.  0.
         23    2    4    4    0    0 -0.58904972363E+03 -0.95158126472E+03  0.14491087932E+04  0.18332078156E+04  0.90819162624E+02 0.  0.
          4    1    3    3  502    0  0.83230626893E+02  0.74754820340E+02 -0.44503489995E+02  0.12040008737E+03  0.00000000000E+00 0. -1.
         -3    1    3    3    0  502  0.59248568995E+03  0.74911845962E+03 -0.21097649474E+03  0.97812516616E+03  0.00000000000E+00 0.  1.
         11    1    5    5    0    0 -0.36880970993E+02  0.60822095539E+01  0.23900189525E+02  0.44366860986E+02  0.00000000000E+00 0. -1.
        -11    1    5    5    0    0 -0.49785622228E+02  0.12162577521E+03 -0.24701725212E+02  0.13372214703E+03  0.00000000000E+00 0.  1.
          1    1    6    6  503    0 -0.27613396100E+03 -0.44322942106E+03  0.75042246291E+03  0.91424075437E+03  0.00000000000E+00 0. -1.
         -1    1    6    6    0  503 -0.31291576262E+03 -0.50835184366E+03  0.69868633027E+03  0.91896706120E+03  0.00000000000E+00 0.  1.
<mgrwt>
<rscale>  0 0.28719604E+04</rscale>
<asrwt>0</asrwt>
<pdfrwt beam="1">  1        2 0.33097303E+00 0.28719604E+04</pdfrwt>
<pdfrwt beam="2">  1       -1 0.14746114E+00 0.28719604E+04</pdfrwt>
<totfact> 0.19762771E+00</totfact>
</mgrwt>
</event>
<event>
12    6  0.1402540E-007  0.1520613E+04  0.7818608E-02  0.8870860E-01
          2   -1    0    0  501    0  0.00000000000E+00  0.00000000000E+00  0.46155318011E+03  0.46155318011E+03  0.00000000000E+00 0. -1.
         -1   -1    0    0    0  501 -0.00000000000E+00 -0.00000000000E+00 -0.12524370904E+04  0.12524370904E+04  0.00000000000E+00 0.  1.
         24    2    1    2    0    0 -0.13808347791E+03  0.20555736813E+03  0.21818976267E+03  0.33975956149E+03  0.80677807482E+02 0.  0.
        254    2    1    2    0    0  0.13808347791E+03 -0.20555736813E+03 -0.10090736730E+04  0.13742307090E+04  0.89942175073E+03 0.  0.
         23    2    4    4    0    0  0.16467084035E+03  0.22957373236E+03 -0.29801838651E+02  0.29823727980E+03  0.90756494131E+02 0.  0.
         23    2    4    4    0    0 -0.26587362441E+02 -0.43513110049E+03 -0.97927183433E+03  0.10759934292E+04  0.93501720724E+02 0.  0.
          2    1    3    3  502    0 -0.78114932166E+02  0.72589200008E+02  0.13431634573E+03  0.17149931579E+03  0.00000000000E+00 0. -1.
         -1    1    3    3    0  502 -0.59968545743E+02  0.13296816812E+03  0.83873416946E+02  0.16826024570E+03  0.00000000000E+00 0.  1.
         11    1    5    5    0    0  0.43688809798E+02  0.53480552799E+02  0.31596106873E+02  0.75942054218E+02  0.00000000000E+00 0. -1.
        -11    1    5    5    0    0  0.12098203055E+03  0.17609317956E+03 -0.61397945523E+02  0.22229522559E+03  0.00000000000E+00 0.  1.
          3    1    6    6  503    0  0.11128909861E+02 -0.22132960118E+03 -0.59043074212E+03  0.63064974925E+03  0.00000000000E+00 0. -1.
         -3    1    6    6    0  503 -0.37716272301E+02 -0.21380149931E+03 -0.38884109221E+03  0.44534367998E+03  0.00000000000E+00 0.  1.
<mgrwt>
<rscale>  0 0.15206135E+04</rscale>
<asrwt>0</asrwt>
<pdfrwt beam="1">  1        2 0.71008182E-01 0.15206135E+04</pdfrwt>
<pdfrwt beam="2">  1       -1 0.19268263E+00 0.15206135E+04</pdfrwt>
<totfact> 0.12607621E+01</totfact>
</mgrwt>
</event>
<event>
12    6  0.1402540E-007  0.1496700E+04  0.7818608E-02  0.8886650E-01
          2   -1    0    0  501    0  0.00000000000E+00  0.00000000000E+00  0.69499444008E+03  0.69499444008E+03  0.00000000000E+00 0. -1.
         -1   -1    0    0    0  501 -0.00000000000E+00 -0.00000000000E+00 -0.80580201975E+03  0.80580201975E+03  0.00000000000E+00 0.  1.
         24    2    1    2    0    0  0.36917277725E+03 -0.66874369556E+02 -0.32446165732E+03  0.50243314556E+03  0.80018609857E+02 0.  0.
        254    2    1    2    0    0 -0.36917277725E+03  0.66874369556E+02  0.21365407764E+03  0.99836331426E+03  0.90017804995E+03 0.  0.
         23    2    4    4    0    0 -0.25647754677E+03 -0.40075067052E+03  0.13664594938E+03  0.50326706629E+03  0.90685128939E+02 0.  0.
         23    2    4    4    0    0 -0.11269523048E+03  0.46762504007E+03  0.77008128260E+02  0.49509624798E+03  0.88411819712E+02 0.  0.
          4    1    3    3  502    0  0.91886023055E+02 -0.17267638253E+02 -0.38739322955E+02  0.10120250840E+03  0.00000000000E+00 0. -1.
         -3    1    3    3    0  502  0.27728675420E+03 -0.49606731303E+02 -0.28572233436E+03  0.40123063716E+03  0.00000000000E+00 0.  1.
         11    1    5    5    0    0 -0.67851145313E+02 -0.17897402418E+03  0.75592698643E+02  0.20579051324E+03  0.00000000000E+00 0. -1.
        -11    1    5    5    0    0 -0.18862640146E+03 -0.22177664633E+03  0.61053250737E+02  0.29747655305E+03  0.00000000000E+00 0.  1.
          1    1    6    6  503    0 -0.97985811955E+02  0.30700668335E+03  0.16026779328E+02  0.32266264212E+03  0.00000000000E+00 0. -1.
         -1    1    6    6    0  503 -0.14709418527E+02  0.16061835672E+03  0.60981348933E+02  0.17243360585E+03  0.00000000000E+00 0.  1.
<mgrwt>
<rscale>  0 0.14967003E+04</rscale>
<asrwt>0</asrwt>
<pdfrwt beam="1">  1        2 0.10692222E+00 0.14967003E+04</pdfrwt>
<pdfrwt beam="2">  1       -1 0.12396954E+00 0.14967003E+04</pdfrwt>
<totfact> 0.26081100E+01</totfact>
</mgrwt>
</event>
<event>
12    6  0.1402540E-007  0.2299657E+04  0.7818608E-02  0.8478057E-01
         -1   -1    0    0    0  501 -0.00000000000E+00  0.00000000000E+00  0.12781805997E+04  0.12781805997E+04  0.00000000000E+00 0.  1.
          4   -1    0    0  501    0  0.00000000000E+00 -0.00000000000E+00 -0.10343648567E+04  0.10343648567E+04  0.00000000000E+00 0. -1.
         24    2    1    2    0    0 -0.42708427964E+03 -0.76759897791E+03 -0.31700790151E+03  0.93643468452E+03  0.69330627870E+02 0.  0.
        254    2    1    2    0    0  0.42708427964E+03  0.76759897791E+03  0.56082364460E+03  0.13761107719E+04  0.89863703647E+03 0.  0.
         23    2    4    4    0    0  0.61349304374E+03  0.76266014978E+03  0.61764752114E+03  0.11605715465E+04  0.86102470305E+02 0.  0.
         23    2    4    4    0    0 -0.18640876411E+03  0.49388281319E+01 -0.56823876541E+02  0.21553922537E+03  0.91954256945E+02 0.  0.
          2    1    3    3  502    0 -0.18825710484E+03 -0.36850738305E+03 -0.18261698739E+03  0.45231337916E+03  0.00000000000E+00 0. -1.
         -1    1    3    3    0  502 -0.23882717479E+03 -0.39909159487E+03 -0.13439091412E+03  0.48412130537E+03  0.00000000000E+00 0.  1.
         11    1    5    5    0    0  0.60724365643E+03  0.75749772652E+03  0.60036899162E+03  0.11414861322E+04  0.00000000000E+00 0.  1.
        -11    1    5    5    0    0  0.62493873089E+01  0.51624232567E+01  0.17278529520E+02  0.19085414274E+02  0.00000000000E+00 0. -1.
          3    1    6    6  503    0  0.19985729285E+01 -0.72906408792E+01  0.12335256463E+02  0.14467421684E+02  0.00000000000E+00 0. -1.
         -3    1    6    6    0  503 -0.18840733703E+03  0.12229469011E+02 -0.69159133004E+02  0.20107180369E+03  0.00000000000E+00 0.  1.
<mgrwt>
<rscale>  0 0.22996566E+04</rscale>
<asrwt>0</asrwt>
<pdfrwt beam="1">  1        4 0.15913305E+00 0.22996566E+04</pdfrwt>
<pdfrwt beam="2">  1       -1 0.19664317E+00 0.22996566E+04</pdfrwt>
<totfact> 0.15108757E-01</totfact>
</mgrwt>
</event>
<event>
12    6  0.1402540E-007  0.1819146E+04  0.7818608E-02  0.8696183E-01
         -1   -1    0    0    0  501 -0.00000000000E+00  0.00000000000E+00  0.10038098601E+04  0.10038098601E+04  0.00000000000E+00 0.  1.
          2   -1    0    0  501    0  0.00000000000E+00 -0.00000000000E+00 -0.82418331809E+03  0.82418331809E+03  0.00000000000E+00 0. -1.
         24    2    1    2    0    0  0.13973355486E+03  0.64913019081E+03  0.23377565758E+03  0.70874728302E+03  0.82317568801E+02 0.  0.
        254    2    1    2    0    0 -0.13973355486E+03 -0.64913019081E+03 -0.54149115536E+02  0.11192458952E+04  0.89937966190E+03 0.  0.
         23    2    4    4    0    0 -0.81565388669E+02 -0.53119498642E+02 -0.40029747112E+03  0.42151461922E+03  0.89229563872E+02 0.  0.
         23    2    4    4    0    0 -0.58168166190E+02 -0.59601069217E+03  0.34614835558E+03  0.69773127598E+03  0.91640431423E+02 0.  0.
          4    1    3    3  502    0  0.14032584945E+03  0.48351884383E+03  0.17628945685E+03  0.53344145786E+03  0.00000000000E+00 0. -1.
         -3    1    3    3    0  502 -0.59229459055E+00  0.16561134698E+03  0.57486200728E+02  0.17530582516E+03  0.00000000000E+00 0.  1.
         11    1    5    5    0    0 -0.15121699437E+02  0.37834057380E+01 -0.22560396136E+03  0.22614183013E+03  0.00000000000E+00 0.  1.
        -11    1    5    5    0    0 -0.66443689233E+02 -0.56902904380E+02 -0.17469350975E+03  0.19537278909E+03  0.00000000000E+00 0. -1.
          3    1    6    6  503    0  0.17616380463E+02 -0.28827879250E+03  0.17037799650E+03  0.33532620052E+03  0.00000000000E+00 0. -1.
         -3    1    6    6    0  503 -0.75784546653E+02 -0.30773189967E+03  0.17577035908E+03  0.36240507546E+03  0.00000000000E+00 0.  1.
<mgrwt>
<rscale>  0 0.18191463E+04</rscale>
<asrwt>0</asrwt>
<pdfrwt beam="1">  1        2 0.12679743E+00 0.18191463E+04</pdfrwt>
<pdfrwt beam="2">  1       -1 0.15443229E+00 0.18191463E+04</pdfrwt>
<totfact> 0.11479191E+01</totfact>
</mgrwt>
</event>
<event>
12    6  0.1402540E-007  0.5177004E+04  0.7818608E-02  0.7801768E-01
         -1   -1    0    0    0  501 -0.00000000000E+00  0.00000000000E+00  0.18511447899E+04  0.18511447899E+04  0.00000000000E+00 0.  1.
          2   -1    0    0  501    0  0.00000000000E+00 -0.00000000000E+00 -0.36195669224E+04  0.36195669224E+04  0.00000000000E+00 0. -1.
         24    2    1    2    0    0 -0.61272267749E+03 -0.18170984823E+04  0.85515175742E+03  0.21010537181E+04  0.76591281102E+02 0.  0.
        254    2    1    2    0    0  0.61272267749E+03  0.18170984823E+04 -0.26235738899E+04  0.33696579942E+04  0.89116725072E+03 0.  0.
         23    2    4    4    0    0 -0.16980280160E+03  0.27644858676E+03 -0.20045731016E+03  0.39194456150E+03  0.90446633619E+02 0.  0.
         23    2    4    4    0    0  0.78252547909E+03  0.15406498955E+04 -0.24231165797E+04  0.29777134327E+04  0.96618335422E+02 0.  0.
          4    1    3    3  502    0 -0.24693663678E+03 -0.66813807758E+03  0.35141982691E+03  0.79428086219E+03  0.00000000000E+00 0. -1.
         -3    1    3    3    0  502 -0.36578604070E+03 -0.11489604047E+04  0.50373193051E+03  0.13067728559E+04  0.00000000000E+00 0.  1.
         11    1    5    5    0    0 -0.39453293279E+01  0.77357156802E+02 -0.52184082534E+02  0.93396326490E+02  0.00000000000E+00 0.  1.
        -11    1    5    5    0    0 -0.16585747228E+03  0.19909142996E+03 -0.14827322763E+03  0.29854823501E+03  0.00000000000E+00 0. -1.
          3    1    6    6  503    0  0.53034494646E+03  0.10610766413E+04 -0.15859769189E+04  0.19805232107E+04  0.00000000000E+00 0. -1.
         -3    1    6    6    0  503  0.25218053263E+03  0.47957325423E+03 -0.83713966082E+03  0.99719022204E+03  0.00000000000E+00 0.  1.
<mgrwt>
<rscale>  0 0.51770039E+04</rscale>
<asrwt>0</asrwt>
<pdfrwt beam="1">  1        2 0.55685645E+00 0.51770039E+04</pdfrwt>
<pdfrwt beam="2">  1       -1 0.28479151E+00 0.51770039E+04</pdfrwt>
<totfact> 0.22522913E-02</totfact>
</mgrwt>
</event>
<event>
12    6  0.1402540E-007  0.2264709E+04  0.7818608E-02  0.8491967E-01
          2   -1    0    0  501    0  0.00000000000E+00  0.00000000000E+00  0.26970311683E+04  0.26970311683E+04  0.00000000000E+00 0. -1.
         -1   -1    0    0    0  501 -0.00000000000E+00 -0.00000000000E+00 -0.47542143307E+03  0.47542143307E+03  0.00000000000E+00 0.  1.
         24    2    1    2    0    0  0.71317422147E+03  0.54008780166E+03  0.13924808168E+04  0.16570355245E+04  0.80321857371E+02 0.  0.
        254    2    1    2    0    0 -0.71317422147E+03 -0.54008780166E+03  0.82912891848E+03  0.15154170769E+04  0.89928963619E+03 0.  0.
         23    2    4    4    0    0 -0.30381535257E+03 -0.70798361982E+03  0.33182964672E+03  0.84446560641E+03  0.97296821982E+02 0.  0.
         23    2    4    4    0    0 -0.40935886890E+03  0.16789581816E+03  0.49729927176E+03  0.67095147048E+03  0.84294844055E+02 0.  0.
          4    1    3    3  502    0  0.22541549487E+03  0.21044688885E+03  0.51841060408E+03  0.60319946350E+03  0.00000000000E+00 0. -1.
         -3    1    3    3    0  502  0.48775872661E+03  0.32964091282E+03  0.87407021271E+03  0.10538360610E+04  0.00000000000E+00 0.  1.
         11    1    5    5    0    0 -0.46284848787E+02 -0.97657466312E+02  0.11606969534E+02  0.10869217863E+03  0.00000000000E+00 0.  1.
        -11    1    5    5    0    0 -0.25753050379E+03 -0.61032615351E+03  0.32022267719E+03  0.73577342778E+03  0.00000000000E+00 0. -1.
          4    1    6    6  503    0 -0.51998968115E+02  0.46255980964E+02  0.50251974121E+02  0.85841536350E+02  0.00000000000E+00 0. -1.
         -4    1    6    6    0  503 -0.35735990079E+03  0.12163983719E+03  0.44704729764E+03  0.58510993412E+03  0.00000000000E+00 0.  1.
<mgrwt>
<rscale>  0 0.22647087E+04</rscale>
<asrwt>0</asrwt>
<pdfrwt beam="1">  1        2 0.41492786E+00 0.22647087E+04</pdfrwt>
<pdfrwt beam="2">  1       -1 0.73141760E-01 0.22647087E+04</pdfrwt>
<totfact> 0.51982898E+00</totfact>
</mgrwt>
</event>
<event>
12    6  0.1402540E-007  0.1485618E+04  0.7818608E-02  0.8894073E-01
         -1   -1    0    0    0  501 -0.00000000000E+00  0.00000000000E+00  0.20764436638E+03  0.20764436638E+03  0.00000000000E+00 0.  1.
          2   -1    0    0  501    0  0.00000000000E+00 -0.00000000000E+00 -0.26572622254E+04  0.26572622254E+04  0.00000000000E+00 0. -1.
         24    2    1    2    0    0  0.46203431435E+03 -0.89604884128E+02 -0.86590967465E+03  0.98864667954E+03  0.78217321713E+02 0.  0.
        254    2    1    2    0    0 -0.46203431435E+03  0.89604884128E+02 -0.15837081844E+04  0.18762599123E+04  0.88922151469E+03 0.  0.
         23    2    4    4    0    0 -0.20759129853E+03  0.90384657803E+02  0.25547779098E+02  0.24448881664E+03  0.88648512965E+02 0.  0.
         23    2    4    4    0    0 -0.25444301582E+03 -0.77977367494E+00 -0.16092559635E+04  0.16317710956E+04  0.90720979714E+02 0.  0.
          4    1    3    3  502    0  0.10262822786E+03 -0.11596367394E+02 -0.26124304175E+03  0.28091805879E+03  0.00000000000E+00 0. -1.
         -3    1    3    3    0  502  0.35940608649E+03 -0.78008516734E+02 -0.60466663290E+03  0.70772862075E+03  0.00000000000E+00 0.  1.
         11    1    5    5    0    0  0.46574631151E+01  0.60777666197E+01 -0.10795836058E+02  0.13235606746E+02  0.00000000000E+00 0. -1.
        -11    1    5    5    0    0 -0.21224876165E+03  0.84306891184E+02  0.36343615155E+02  0.23125320989E+03  0.00000000000E+00 0.  1.
          2    1    6    6  503    0 -0.24443366196E+03  0.20242516243E+02 -0.15121818953E+04  0.15319437519E+04  0.00000000000E+00 0.  1.
         -2    1    6    6    0  503 -0.10009353857E+02 -0.21022289918E+02 -0.97074068235E+02  0.99827343758E+02  0.00000000000E+00 0. -1.
<mgrwt>
<rscale>  0 0.14856184E+04</rscale>
<asrwt>0</asrwt>
<pdfrwt beam="1">  1        2 0.40880956E+00 0.14856184E+04</pdfrwt>
<pdfrwt beam="2">  1       -1 0.31945288E-01 0.14856184E+04</pdfrwt>
<totfact> 0.28440191E+01</totfact>
</mgrwt>
</event>
<event>
12    6  0.1402540E-007  0.1692720E+04  0.7818608E-02  0.8765527E-01
          2   -1    0    0  501    0  0.00000000000E+00  0.00000000000E+00  0.16425118808E+04  0.16425118808E+04  0.00000000000E+00 0. -1.
         -1   -1    0    0    0  501 -0.00000000000E+00 -0.00000000000E+00 -0.43611563445E+03  0.43611563445E+03  0.00000000000E+00 0.  1.
         24    2    1    2    0    0 -0.20567580206E+03 -0.54288607814E+03  0.63830453803E+03  0.86622190838E+03  0.76680387876E+02 0.  0.
        254    2    1    2    0    0  0.20567580206E+03  0.54288607814E+03  0.56809170827E+03  0.12124056068E+04  0.90009518224E+03 0.  0.
         23    2    4    4    0    0  0.56463820512E+02  0.76252249565E+03  0.51617132717E+03  0.92650476757E+03  0.85729376188E+02 0.  0.
         23    2    4    4    0    0  0.14921198155E+03 -0.21963641751E+03  0.51920381102E+02  0.28590083927E+03  0.92407751752E+02 0.  0.
          2    1    3    3  502    0 -0.84773897264E+02 -0.16058594657E+03  0.24102329221E+03  0.30177257543E+03  0.00000000000E+00 0. -1.
         -1    1    3    3    0  502 -0.12090190480E+03 -0.38230013157E+03  0.39728124582E+03  0.56444933294E+03  0.00000000000E+00 0.  1.
         11    1    5    5    0    0 -0.72579850968E+01  0.27954040194E+02  0.49859016128E+01  0.29308120475E+02  0.00000000000E+00 0. -1.
        -11    1    5    5    0    0  0.63721805608E+02  0.73456845546E+03  0.51118542555E+03  0.89719664710E+03  0.00000000000E+00 0.  1.
          1    1    6    6  503    0  0.71923892641E+02 -0.52310589688E+02  0.49051551956E+02  0.10156524443E+03  0.00000000000E+00 0. -1.
         -1    1    6    6    0  503  0.77288088910E+02 -0.16732582782E+03  0.28688291460E+01  0.18433559484E+03  0.00000000000E+00 0.  1.
<mgrwt>
<rscale>  0 0.16927198E+04</rscale>
<asrwt>0</asrwt>
<pdfrwt beam="1">  1        2 0.25269413E+00 0.16927198E+04</pdfrwt>
<pdfrwt beam="2">  1       -1 0.67094713E-01 0.16927198E+04</pdfrwt>
<totfact> 0.25768162E+01</totfact>
</mgrwt>
</event>
<event>
12    6  0.1402540E-007  0.2684757E+04  0.7818608E-02  0.8339968E-01
          2   -1    0    0  501    0  0.00000000000E+00  0.00000000000E+00  0.21862431210E+04  0.21862431210E+04  0.00000000000E+00 0. -1.
         -1   -1    0    0    0  501 -0.00000000000E+00 -0.00000000000E+00 -0.82423580813E+03  0.82423580813E+03  0.00000000000E+00 0.  1.
         24    2    1    2    0    0  0.65952261995E+03  0.86508820687E+03  0.64381753919E+02  0.10926300267E+04  0.79672286291E+02 0.  0.
        254    2    1    2    0    0 -0.65952261995E+03 -0.86508820687E+03  0.12976255590E+04  0.19178489024E+04  0.90053574570E+03 0.  0.
         23    2    4    4    0    0 -0.75622254194E+03 -0.96615917280E+03  0.12216460982E+04  0.17338916199E+04  0.92870232557E+02 0.  0.
         23    2    4    4    0    0  0.96699921990E+02  0.10107096593E+03  0.75979460790E+02  0.18395728255E+03  0.92201888661E+02 0.  0.
          2    1    3    3  502    0  0.30965161447E+03  0.44884591583E+03  0.18956163938E+01  0.54529842459E+03  0.00000000000E+00 0. -1.
         -1    1    3    3    0  502  0.34987100548E+03  0.41624229104E+03  0.62486137525E+02  0.54733160215E+03  0.00000000000E+00 0.  1.
         11    1    5    5    0    0 -0.21198226023E+02 -0.35402937143E+02  0.21179223528E+02  0.46382025118E+02  0.00000000000E+00 0.  1.
        -11    1    5    5    0    0 -0.73502431592E+03 -0.93075623566E+03  0.12004668746E+04  0.16875095947E+04  0.00000000000E+00 0. -1.
          1    1    6    6  503    0  0.37279192823E+02  0.92231936584E+02  0.19241636390E+02  0.10132476950E+03  0.00000000000E+00 0. -1.
         -1    1    6    6    0  503  0.59420729167E+02  0.88390293496E+01  0.56737824401E+02  0.82632513046E+02  0.00000000000E+00 0.  1.
<mgrwt>
<rscale>  0 0.26847569E+04</rscale>
<asrwt>0</asrwt>
<pdfrwt beam="1">  1        2 0.33634509E+00 0.26847569E+04</pdfrwt>
<pdfrwt beam="2">  1       -1 0.12680551E+00 0.26847569E+04</pdfrwt>
<totfact> 0.28352446E+00</totfact>
</mgrwt>
</event>
<event>
12    6  0.1402540E-007  0.3522540E+04  0.7818608E-02  0.8108469E-01
          2   -1    0    0  501    0  0.00000000000E+00  0.00000000000E+00  0.32785880707E+04  0.32785880707E+04  0.00000000000E+00 0. -1.
         -1   -1    0    0    0  501 -0.00000000000E+00 -0.00000000000E+00 -0.94616108737E+03  0.94616108737E+03  0.00000000000E+00 0.  1.
         24    2    1    2    0    0 -0.15409463667E+03 -0.15282864064E+04  0.38754240240E+03  0.15861675302E+04  0.79585320254E+02 0.  0.
        254    2    1    2    0    0  0.15409463667E+03  0.15282864064E+04  0.19448845810E+04  0.26385816279E+04  0.90561165908E+03 0.  0.
         23    2    4    4    0    0 -0.88721774981E+02  0.11797304873E+04  0.84711938753E+03  0.14579834601E+04  0.92026827613E+02 0.  0.
         23    2    4    4    0    0  0.24281641165E+03  0.34855591904E+03  0.10977651934E+04  0.11805981679E+04  0.90953700350E+02 0.  0.
          2    1    3    3  502    0 -0.12363509512E+03 -0.10338194588E+04  0.29526003741E+03  0.10822415626E+04  0.00000000000E+00 0. -1.
         -1    1    3    3    0  502 -0.30459541546E+02 -0.49446694754E+03  0.92282364989E+02  0.50392596755E+03  0.00000000000E+00 0.  1.
         11    1    5    5    0    0 -0.26845575159E+02  0.59625064025E+03  0.37510020757E+03  0.70493664725E+03  0.00000000000E+00 0. -1.
        -11    1    5    5    0    0 -0.61876199821E+02  0.58347984706E+03  0.47201917996E+03  0.75304681281E+03  0.00000000000E+00 0.  1.
          3    1    6    6  503    0  0.88696101509E+02  0.20659526875E+03  0.55874649188E+03  0.60228419013E+03  0.00000000000E+00 0. -1.
         -3    1    6    6    0  503  0.15412031014E+03  0.14196065029E+03  0.53901870156E+03  0.57831397775E+03  0.00000000000E+00 0.  1.
<mgrwt>
<rscale>  0 0.35225403E+04</rscale>
<asrwt>0</asrwt>
<pdfrwt beam="1">  1        2 0.50439816E+00 0.35225403E+04</pdfrwt>
<pdfrwt beam="2">  1       -1 0.14556325E+00 0.35225403E+04</pdfrwt>
<totfact> 0.40484034E-01</totfact>
</mgrwt>
</event>
<event>
12    6  0.1402540E-007  0.1303870E+04  0.7818608E-02  0.9026502E-01
          2   -1    0    0  501    0  0.00000000000E+00  0.00000000000E+00  0.76334643520E+03  0.76334643520E+03  0.00000000000E+00 0. -1.
         -1   -1    0    0    0  501 -0.00000000000E+00 -0.00000000000E+00 -0.55678392324E+03  0.55678392324E+03  0.00000000000E+00 0.  1.
         24    2    1    2    0    0  0.14390270488E+03 -0.24416321657E+03 -0.12603197496E+03  0.31992357241E+03  0.78379644510E+02 0.  0.
        254    2    1    2    0    0 -0.14390270488E+03  0.24416321657E+03  0.33259448692E+03  0.10002067860E+04  0.89970598380E+03 0.  0.
         23    2    4    4    0    0  0.35849016401E+03  0.20245289118E+03  0.21975598791E+03  0.47560646087E+03  0.91686643307E+02 0.  0.
         23    2    4    4    0    0 -0.50239286889E+03  0.41710325392E+02  0.11283849901E+03  0.52460032516E+03  0.91294185706E+02 0.  0.
          4    1    3    3  502    0  0.40261120375E+02 -0.10230670017E+03 -0.12277043645E+02  0.11062705146E+03  0.00000000000E+00 0. -1.
         -3    1    3    3    0  502  0.10364158451E+03 -0.14185651640E+03 -0.11375493132E+03  0.20929652095E+03  0.00000000000E+00 0.  1.
         11    1    5    5    0    0  0.13870681190E+03  0.59584826006E+02  0.35184922749E+02  0.15500938664E+03  0.00000000000E+00 0. -1.
        -11    1    5    5    0    0  0.21978335211E+03  0.14286806517E+03  0.18457106516E+03  0.32059707423E+03  0.00000000000E+00 0.  1.
          4    1    6    6  503    0 -0.22554464260E+03  0.24711878183E+02  0.48373830825E+01  0.22694594732E+03  0.00000000000E+00 0.  1.
         -4    1    6    6    0  503 -0.27684822629E+03  0.16998447210E+02  0.10800111592E+03  0.29765437784E+03  0.00000000000E+00 0. -1.
<mgrwt>
<rscale>  0 0.13038697E+04</rscale>
<asrwt>0</asrwt>
<pdfrwt beam="1">  1        2 0.11743791E+00 0.13038697E+04</pdfrwt>
<pdfrwt beam="2">  1       -1 0.85659065E-01 0.13038697E+04</pdfrwt>
<totfact> 0.55231750E+01</totfact>
</mgrwt>
</event>
<event>
12    6  0.1402540E-007  0.3471299E+04  0.7818608E-02  0.8120626E-01
         -1   -1    0    0    0  501 -0.00000000000E+00  0.00000000000E+00  0.12147571443E+04  0.12147571443E+04  0.00000000000E+00 0.  1.
          2   -1    0    0  501    0  0.00000000000E+00 -0.00000000000E+00 -0.24799026509E+04  0.24799026509E+04  0.00000000000E+00 0. -1.
         24    2    1    2    0    0  0.41968684739E+03 -0.37920216158E+03  0.10227940876E+04  0.11714607243E+04  0.79253730179E+02 0.  0.
        254    2    1    2    0    0 -0.41968684739E+03  0.37920216158E+03 -0.22879395941E+04  0.25231990709E+04  0.90107415675E+03 0.  0.
         23    2    4    4    0    0  0.17777445297E+03 -0.11434822413E+03 -0.92146697393E+03  0.94979534039E+03  0.91271748636E+02 0.  0.
         23    2    4    4    0    0 -0.59746130036E+03  0.49355038571E+03 -0.13664726202E+04  0.15734037305E+04  0.88316979429E+02 0.  0.
          2    1    3    3  502    0  0.23316778783E+03 -0.24290981821E+03  0.66848946907E+03  0.74849887597E+03  0.00000000000E+00 0. -1.
         -1    1    3    3    0  502  0.18651905956E+03 -0.13629234337E+03  0.35430461851E+03  0.42296184833E+03  0.00000000000E+00 0.  1.
         11    1    5    5    0    0  0.10722171426E+03 -0.46726175240E+02 -0.32564990044E+03  0.34601689137E+03  0.00000000000E+00 0. -1.
        -11    1    5    5    0    0  0.70552738712E+02 -0.67622048895E+02 -0.59581707349E+03  0.60377844902E+03  0.00000000000E+00 0.  1.
          1    1    6    6  503    0 -0.24000530529E+03  0.17544961605E+03 -0.60439230312E+03  0.67355413325E+03  0.00000000000E+00 0. -1.
         -1    1    6    6    0  503 -0.35745599507E+03  0.31810076966E+03 -0.76208031706E+03  0.89984959728E+03  0.00000000000E+00 0.  1.
<mgrwt>
<rscale>  0 0.34712992E+04</rscale>
<asrwt>0</asrwt>
<pdfrwt beam="1">  1        2 0.38152349E+00 0.34712992E+04</pdfrwt>
<pdfrwt beam="2">  1       -1 0.18688571E+00 0.34712992E+04</pdfrwt>
<totfact> 0.62199470E-01</totfact>
</mgrwt>
</event>
<event>
12    6  0.1402540E-007  0.3374829E+04  0.7818608E-02  0.8144112E-01
          2   -1    0    0  501    0  0.00000000000E+00  0.00000000000E+00  0.27287007595E+04  0.27287007595E+04  0.00000000000E+00 0. -1.
         -1   -1    0    0    0  501 -0.00000000000E+00 -0.00000000000E+00 -0.10434884765E+04  0.10434884765E+04  0.00000000000E+00 0.  1.
         24    2    1    2    0    0  0.12675372058E+03 -0.11473773100E+03  0.25236745998E+04  0.25307226306E+04  0.79951825720E+02 0.  0.
        254    2    1    2    0    0 -0.12675372058E+03  0.11473773100E+03 -0.83846231685E+03  0.12414666054E+04  0.89943817068E+03 0.  0.
         23    2    4    4    0    0  0.17926403331E+03  0.24912164932E+03  0.15883709146E+02  0.31947856248E+03  0.87275826357E+02 0.  0.
         23    2    4    4    0    0 -0.30601775388E+03 -0.13438391833E+03 -0.85434602599E+03  0.92198804289E+03  0.91917984654E+02 0.  0.
          4    1    3    3  502    0  0.99654919729E+02 -0.76026752433E+02  0.22054269727E+04  0.22089860349E+04  0.00000000000E+00 0. -1.
         -3    1    3    3    0  502  0.27098800847E+02 -0.38710978565E+02  0.31824762710E+03  0.32173659572E+03  0.00000000000E+00 0.  1.
         11    1    5    5    0    0  0.68042112746E+02  0.13630187211E+03  0.44020230720E+02  0.15857398954E+03  0.00000000000E+00 0.  1.
        -11    1    5    5    0    0  0.11122192056E+03  0.11281977722E+03 -0.28136521574E+02  0.16090457293E+03  0.00000000000E+00 0. -1.
          2    1    6    6  503    0 -0.11334016899E+03 -0.88993223535E+02 -0.28791926963E+03  0.32196784554E+03  0.00000000000E+00 0. -1.
         -2    1    6    6    0  503 -0.19267758489E+03 -0.45390694791E+02 -0.56642675636E+03  0.60002019734E+03  0.00000000000E+00 0.  1.
<mgrwt>
<rscale>  0 0.33748291E+04</rscale>
<asrwt>0</asrwt>
<pdfrwt beam="1">  1        2 0.41980012E+00 0.33748291E+04</pdfrwt>
<pdfrwt beam="2">  1       -1 0.16053669E+00 0.33748291E+04</pdfrwt>
<totfact> 0.69671315E-01</totfact>
</mgrwt>
</event>
<event>
12    6  0.1402540E-007  0.1138860E+04  0.7818608E-02  0.9168122E-01
         -1   -1    0    0    0  501 -0.00000000000E+00  0.00000000000E+00  0.43289522510E+03  0.43289522510E+03  0.00000000000E+00 0.  1.
          2   -1    0    0  501    0  0.00000000000E+00 -0.00000000000E+00 -0.74902821073E+03  0.74902821073E+03  0.00000000000E+00 0. -1.
         24    2    1    2    0    0 -0.59051197908E+02  0.11784584336E+03 -0.21710526974E+03  0.26679123096E+03  0.81658900313E+02 0.  0.
        254    2    1    2    0    0  0.59051197908E+02 -0.11784584336E+03 -0.99027715899E+02  0.91513220487E+03  0.90015875105E+03 0.  0.
         23    2    4    4    0    0  0.28654116621E+03  0.18040034980E+03 -0.31612962723E+03  0.47218921117E+03  0.91512752051E+02 0.  0.
         23    2    4    4    0    0 -0.22748996830E+03 -0.29824619316E+03  0.21710191133E+03  0.44294299370E+03  0.91448227704E+02 0.  0.
          2    1    3    3  502    0 -0.47771066078E+01  0.91450506861E+02 -0.15609181593E+03  0.18097146447E+03  0.00000000000E+00 0. -1.
         -1    1    3    3    0  502 -0.54274091301E+02  0.26395336495E+02 -0.61013453809E+02  0.85819766493E+02  0.00000000000E+00 0.  1.
         11    1    5    5    0    0  0.20005434406E+03  0.15595728771E+03 -0.27247717002E+03  0.37227439389E+03  0.00000000000E+00 0.  1.
        -11    1    5    5    0    0  0.86486822158E+02  0.24443062092E+02 -0.43652457216E+02  0.99914817281E+02  0.00000000000E+00 0. -1.
          3    1    6    6  503    0 -0.18543979671E+03 -0.22260028924E+03  0.12201716432E+03  0.31436761182E+03  0.00000000000E+00 0. -1.
         -3    1    6    6    0  503 -0.42050171598E+02 -0.75645903912E+02  0.95084747012E+02  0.12857538188E+03  0.00000000000E+00 0.  1.
<mgrwt>
<rscale>  0 0.11388604E+04</rscale>
<asrwt>0</asrwt>
<pdfrwt beam="1">  1        2 0.11523511E+00 0.11388604E+04</pdfrwt>
<pdfrwt beam="2">  1       -1 0.66599265E-01 0.11388604E+04</pdfrwt>
<totfact> 0.97080919E+01</totfact>
</mgrwt>
</event>
<event>
12    6  0.1402540E-007  0.4227162E+04  0.7818608E-02  0.7960226E-01
         -1   -1    0    0    0  501 -0.00000000000E+00  0.00000000000E+00  0.14239821486E+04  0.14239821486E+04  0.00000000000E+00 0.  1.
          2   -1    0    0  501    0  0.00000000000E+00 -0.00000000000E+00 -0.31371351652E+04  0.31371351652E+04  0.00000000000E+00 0. -1.
         24    2    1    2    0    0  0.10295590572E+04 -0.16885912784E+04 -0.12454641275E+04  0.23385677096E+04  0.79910459274E+02 0.  0.
        254    2    1    2    0    0 -0.10295590572E+04  0.16885912784E+04 -0.46768888908E+03  0.22225496042E+04  0.89981191827E+03 0.  0.
         23    2    4    4    0    0 -0.23263786850E+03  0.89298013404E+03  0.14307695464E+03  0.93828264332E+03  0.91484458588E+02 0.  0.
         23    2    4    4    0    0 -0.79692118873E+03  0.79561114434E+03 -0.61076584372E+03  0.12842669608E+04  0.90698604253E+02 0.  0.
          2    1    3    3  502    0  0.59438379980E+03 -0.90066061004E+03 -0.69034543565E+03  0.12810380386E+04  0.00000000000E+00 0. -1.
         -1    1    3    3    0  502  0.43517525744E+03 -0.78793066834E+03 -0.55511869189E+03  0.10575296709E+04  0.00000000000E+00 0.  1.
         11    1    5    5    0    0 -0.78237064711E+02  0.41735314451E+03  0.10090025368E+03  0.43644649926E+03  0.00000000000E+00 0.  1.
        -11    1    5    5    0    0 -0.15440080379E+03  0.47562698954E+03  0.42176700953E+02  0.50183614406E+03  0.00000000000E+00 0. -1.
          1    1    6    6  503    0 -0.17855497060E+03  0.12815286867E+03 -0.12474112551E+03  0.25271601387E+03  0.00000000000E+00 0. -1.
         -1    1    6    6    0  503 -0.61836621814E+03  0.66745827567E+03 -0.48602471821E+03  0.10315509470E+04  0.00000000000E+00 0.  1.
<mgrwt>
<rscale>  0 0.42271619E+04</rscale>
<asrwt>0</asrwt>
<pdfrwt beam="1">  1        2 0.48263618E+00 0.42271619E+04</pdfrwt>
<pdfrwt beam="2">  1       -1 0.21907418E+00 0.42271619E+04</pdfrwt>
<totfact> 0.13975038E-01</totfact>
</mgrwt>
</event>
<event>
12    6  0.1402540E-007  0.2116914E+04  0.7818608E-02  0.8553829E-01
          2   -1    0    0  501    0  0.00000000000E+00  0.00000000000E+00  0.12325843064E+04  0.12325843064E+04  0.00000000000E+00 0. -1.
         -1   -1    0    0    0  501 -0.00000000000E+00 -0.00000000000E+00 -0.90892879273E+03  0.90892879273E+03  0.00000000000E+00 0.  1.
         24    2    1    2    0    0 -0.20249531665E+03 -0.50101405447E+03  0.81966593057E+03  0.98499769183E+03  0.79679226426E+02 0.  0.
        254    2    1    2    0    0  0.20249531665E+03  0.50101405447E+03 -0.49601041686E+03  0.11565154073E+04  0.89413763914E+03 0.  0.
         23    2    4    4    0    0  0.27715568607E+03 -0.17220612196E+03 -0.53902516133E+02  0.34270846670E+03  0.89852040256E+02 0.  0.
         23    2    4    4    0    0 -0.74660369419E+02  0.67322017644E+03 -0.44210790072E+03  0.81380694064E+03  0.89569883458E+02 0.  0.
          4    1    3    3  502    0 -0.55920017400E+02 -0.14591113795E+03  0.30574405586E+03  0.34336065036E+03  0.00000000000E+00 0. -1.
         -3    1    3    3    0  502 -0.14657529925E+03 -0.35510291653E+03  0.51392187471E+03  0.64163704147E+03  0.00000000000E+00 0.  1.
         11    1    5    5    0    0  0.27057360622E+02 -0.13460048551E+02 -0.34476896038E+02  0.45846810481E+02  0.00000000000E+00 0.  1.
        -11    1    5    5    0    0  0.25009832545E+03 -0.15874607341E+03 -0.19425620095E+02  0.29686165622E+03  0.00000000000E+00 0. -1.
          2    1    6    6  503    0  0.17312946849E+02  0.22289619611E+03 -0.14958502945E+03  0.26899467170E+03  0.00000000000E+00 0.  1.
         -2    1    6    6    0  503 -0.91973316268E+02  0.45032398033E+03 -0.29252287127E+03  0.54481226894E+03  0.00000000000E+00 0. -1.
<mgrwt>
<rscale>  0 0.21169141E+04</rscale>
<asrwt>0</asrwt>
<pdfrwt beam="1">  1        2 0.18962835E+00 0.21169141E+04</pdfrwt>
<pdfrwt beam="2">  1       -1 0.13983520E+00 0.21169141E+04</pdfrwt>
<totfact> 0.79900369E+00</totfact>
</mgrwt>
</event>
<event>
12    6  0.1402540E-007  0.2788565E+04  0.7818608E-02  0.8306827E-01
          2   -1    0    0  501    0  0.00000000000E+00  0.00000000000E+00  0.11162146314E+04  0.11162146314E+04  0.00000000000E+00 0. -1.
         -1   -1    0    0    0  501 -0.00000000000E+00 -0.00000000000E+00 -0.17416223055E+04  0.17416223055E+04  0.00000000000E+00 0.  1.
         24    2    1    2    0    0 -0.50216417301E+03 -0.10550368526E+04  0.16469948544E+03  0.11826759394E+04  0.79528863010E+02 0.  0.
        254    2    1    2    0    0  0.50216417301E+03  0.10550368526E+04 -0.79010715948E+03  0.16751609975E+04  0.90367219000E+03 0.  0.
         23    2    4    4    0    0  0.39575948531E+03  0.55032591689E+03  0.48882279116E+02  0.68567865009E+03  0.91003016215E+02 0.  0.
         23    2    4    4    0    0  0.10640468770E+03  0.50471093574E+03 -0.83898943860E+03  0.98948234740E+03  0.95482728901E+02 0.  0.
          2    1    3    3  502    0 -0.14662210521E+03 -0.37295660908E+03  0.82140355821E+02  0.40907421337E+03  0.00000000000E+00 0. -1.
         -1    1    3    3    0  502 -0.35554206780E+03 -0.68208024355E+03  0.82559129616E+02  0.77360172602E+03  0.00000000000E+00 0.  1.
         11    1    5    5    0    0  0.76050219621E+02  0.16224429775E+03  0.35622042281E+02  0.18269038823E+03  0.00000000000E+00 0. -1.
        -11    1    5    5    0    0  0.31970926569E+03  0.38808161914E+03  0.13260236835E+02  0.50298826186E+03  0.00000000000E+00 0.  1.
          2    1    6    6  503    0  0.80239012156E+02  0.38594065683E+03 -0.55691979545E+03  0.68231088826E+03  0.00000000000E+00 0. -1.
         -2    1    6    6    0  503  0.26165675545E+02  0.11877027891E+03 -0.28206964314E+03  0.30717145914E+03  0.00000000000E+00 0.  1.
<mgrwt>
<rscale>  0 0.27885654E+04</rscale>
<asrwt>0</asrwt>
<pdfrwt beam="1">  1        2 0.17172533E+00 0.27885654E+04</pdfrwt>
<pdfrwt beam="2">  1       -1 0.26794189E+00 0.27885654E+04</pdfrwt>
<totfact> 0.11259049E+00</totfact>
</mgrwt>
</event>
<event>
12    6  0.1402540E-007  0.1504127E+04  0.7818608E-02  0.8881713E-01
         -1   -1    0    0    0  501 -0.00000000000E+00  0.00000000000E+00  0.28262280316E+03  0.28262280316E+03  0.00000000000E+00 0.  1.
          2   -1    0    0  501    0  0.00000000000E+00 -0.00000000000E+00 -0.20012530272E+04  0.20012530272E+04  0.00000000000E+00 0. -1.
         24    2    1    2    0    0  0.51722199715E+02  0.42716732815E+03 -0.86784523272E+03  0.97182969998E+03  0.78425159403E+02 0.  0.
        254    2    1    2    0    0 -0.51722199715E+02 -0.42716732815E+03 -0.85078499134E+03  0.13120461304E+04  0.90137829717E+03 0.  0.
         23    2    4    4    0    0 -0.19701242188E+03  0.21975494847E+03 -0.39823442903E+03  0.50404227979E+03  0.91443029267E+02 0.  0.
         23    2    4    4    0    0  0.14529022217E+03 -0.64692227661E+03 -0.45255056230E+03  0.80800385060E+03  0.91926767039E+02 0.  0.
          4    1    3    3  502    0  0.64408029467E+00  0.15759255294E+03 -0.39293033290E+03  0.42335572997E+03  0.00000000000E+00 0. -1.
         -3    1    3    3    0  502  0.51078119421E+02  0.26957477521E+03 -0.47491489982E+03  0.54847397001E+03  0.00000000000E+00 0.  1.
         11    1    5    5    0    0 -0.73184400317E+02  0.14985111717E+03 -0.21248566270E+03  0.27011381050E+03  0.00000000000E+00 0. -1.
        -11    1    5    5    0    0 -0.12382802157E+03  0.69903831298E+02 -0.18574876633E+03  0.23392846930E+03  0.00000000000E+00 0.  1.
          1    1    6    6  503    0  0.38337843257E+02 -0.18463108549E+03 -0.18055979005E+03  0.26107521089E+03  0.00000000000E+00 0. -1.
         -1    1    6    6    0  503  0.10695237891E+03 -0.46229119112E+03 -0.27199077225E+03  0.54692863971E+03  0.00000000000E+00 0.  1.
<mgrwt>
<rscale>  0 0.15041273E+04</rscale>
<asrwt>0</asrwt>
<pdfrwt beam="1">  1        2 0.30788508E+00 0.15041273E+04</pdfrwt>
<pdfrwt beam="2">  1       -1 0.43480432E-01 0.15041273E+04</pdfrwt>
<totfact> 0.38334821E+01</totfact>
</mgrwt>
</event>
<event>
12    6  0.1402540E-007  0.1894816E+04  0.7818608E-02  0.8657441E-01
         -1   -1    0    0    0  501 -0.00000000000E+00  0.00000000000E+00  0.47387980972E+03  0.47387980972E+03  0.00000000000E+00 0.  1.
          2   -1    0    0  501    0  0.00000000000E+00 -0.00000000000E+00 -0.18941140115E+04  0.18941140115E+04  0.00000000000E+00 0. -1.
         24    2    1    2    0    0  0.66394958461E+03 -0.60755796829E+02 -0.17766126354E+03  0.69460898382E+03  0.79986236871E+02 0.  0.
        254    2    1    2    0    0 -0.66394958461E+03  0.60755796829E+02 -0.12425729382E+04  0.16733848374E+04  0.90094893831E+03 0.  0.
         23    2    4    4    0    0 -0.67025936711E+03 -0.29299583373E+03 -0.68564098117E+03  0.10064990570E+04  0.88558561630E+02 0.  0.
         23    2    4    4    0    0  0.63097825043E+01  0.35375163056E+03 -0.55693195706E+03  0.66688578043E+03  0.96868002228E+02 0.  0.
          2    1    3    3  502    0  0.22659126874E+02 -0.10669136902E+01 -0.22859300899E+02  0.32204378167E+02  0.00000000000E+00 0. -1.
         -1    1    3    3    0  502  0.64129045773E+03 -0.59688883139E+02 -0.15480196264E+03  0.66240460565E+03  0.00000000000E+00 0.  1.
         11    1    5    5    0    0 -0.53028745468E+03 -0.20826135011E+03 -0.57176182955E+03  0.80714878694E+03  0.00000000000E+00 0.  1.
        -11    1    5    5    0    0 -0.13997191243E+03 -0.84734483624E+02 -0.11387915162E+03  0.19935027002E+03  0.00000000000E+00 0. -1.
          3    1    6    6  503    0 -0.24445876326E+02  0.23356116797E+03 -0.42647190804E+03  0.48685388814E+03  0.00000000000E+00 0. -1.
         -3    1    6    6    0  503  0.30755658830E+02  0.12019046259E+03 -0.13046004903E+03  0.18003189228E+03  0.00000000000E+00 0.  1.
<mgrwt>
<rscale>  0 0.18948165E+04</rscale>
<asrwt>0</asrwt>
<pdfrwt beam="1">  1        2 0.29140216E+00 0.18948165E+04</pdfrwt>
<pdfrwt beam="2">  1       -1 0.72904584E-01 0.18948165E+04</pdfrwt>
<totfact> 0.15483671E+01</totfact>
</mgrwt>
</event>
<event>
12    6  0.1402540E-007  0.1376415E+04  0.7818608E-02  0.8971070E-01
          2   -1    0    0  501    0  0.00000000000E+00  0.00000000000E+00  0.67365728425E+03  0.67365728425E+03  0.00000000000E+00 0. -1.
         -1   -1    0    0    0  501 -0.00000000000E+00 -0.00000000000E+00 -0.70307150203E+03  0.70307150203E+03  0.00000000000E+00 0.  1.
         24    2    1    2    0    0  0.25938055349E+03  0.23190188768E+03 -0.18313414945E+03  0.40126706019E+03  0.80127272868E+02 0.  0.
        254    2    1    2    0    0 -0.25938055349E+03 -0.23190188768E+03  0.15371993166E+03  0.97546172609E+03  0.89824217482E+03 0.  0.
         23    2    4    4    0    0 -0.64152364575E+01  0.22168610818E+03 -0.22348784145E+03  0.32709921978E+03  0.88663399912E+02 0.  0.
         23    2    4    4    0    0 -0.25296531704E+03 -0.45358799586E+03  0.37720777311E+03  0.64836250631E+03  0.91404123982E+02 0.  0.
          4    1    3    3  502    0  0.10453221066E+03  0.14689488950E+03 -0.97264103066E+02  0.20485457616E+03  0.00000000000E+00 0. -1.
         -3    1    3    3    0  502  0.15484834283E+03  0.85006998182E+02 -0.85870046384E+02  0.19641248403E+03  0.00000000000E+00 0.  1.
         11    1    5    5    0    0  0.22045741523E+02  0.18526622016E+03 -0.14614686674E+03  0.23699893188E+03  0.00000000000E+00 0.  1.
        -11    1    5    5    0    0 -0.28460977980E+02  0.36419888016E+02 -0.77340974705E+02  0.90100287896E+02  0.00000000000E+00 0. -1.
          3    1    6    6  503    0 -0.14257149677E+03 -0.34126961459E+03  0.26471315437E+03  0.45482374128E+03  0.00000000000E+00 0. -1.
         -3    1    6    6    0  503 -0.11039382027E+03 -0.11231838128E+03  0.11249461874E+03  0.19353876504E+03  0.00000000000E+00 0.  1.
<mgrwt>
<rscale>  0 0.13764145E+04</rscale>
<asrwt>0</asrwt>
<pdfrwt beam="1">  1        2 0.10363958E+00 0.13764145E+04</pdfrwt>
<pdfrwt beam="2">  1       -1 0.10816485E+00 0.13764145E+04</pdfrwt>
<totfact> 0.38050709E+01</totfact>
</mgrwt>
</event>
<event>
12    6  0.1402540E-007  0.2865245E+04  0.7818608E-02  0.8283294E-01
         -3   -1    0    0    0  501 -0.00000000000E+00  0.00000000000E+00  0.14315284581E+04  0.14315284581E+04  0.00000000000E+00 0.  1.
          4   -1    0    0  501    0  0.00000000000E+00 -0.00000000000E+00 -0.14337177903E+04  0.14337177903E+04  0.00000000000E+00 0. -1.
         24    2    1    2    0    0 -0.62044414338E+03 -0.10148195063E+04  0.49573247211E+03  0.12926422624E+04  0.10180259945E+03 0.  0.
        254    2    1    2    0    0  0.62044414338E+03  0.10148195063E+04 -0.49792180429E+03  0.15726039860E+04  0.90019309507E+03 0.  0.
         23    2    4    4    0    0  0.44707386815E+03  0.85981876459E+02  0.63629095252E+02  0.46954500891E+03  0.95686608092E+02 0.  0.
         23    2    4    4    0    0  0.17337027523E+03  0.92883762979E+03 -0.56155089954E+03  0.11030589771E+04  0.92752894359E+02 0.  0.
          4    1    3    3  502    0 -0.44366673752E+03 -0.64552673228E+03  0.29917378222E+03  0.83848070224E+03  0.00000000000E+00 0. -1.
         -3    1    3    3    0  502 -0.17677740586E+03 -0.36929277398E+03  0.19655868989E+03  0.45416156014E+03  0.00000000000E+00 0.  1.
         11    1    5    5    0    0  0.17221548119E+03  0.54807479397E+02  0.67436439779E+02  0.19289817306E+03  0.00000000000E+00 0. -1.
        -11    1    5    5    0    0  0.27485838696E+03  0.31174397062E+02 -0.38073445267E+01  0.27664683585E+03  0.00000000000E+00 0.  1.
          1    1    6    6  503    0  0.18020009708E+03  0.83516183993E+03 -0.52140225437E+03  0.10009134252E+04  0.00000000000E+00 0. -1.
         -1    1    6    6    0  503 -0.68298218558E+01  0.93675789862E+02 -0.40148645167E+02  0.10214555194E+03  0.00000000000E+00 0.  1.
<mgrwt>
<rscale>  0 0.28652454E+04</rscale>
<asrwt>0</asrwt>
<pdfrwt beam="1">  1        4 0.22057197E+00 0.28652454E+04</pdfrwt>
<pdfrwt beam="2">  1       -3 0.22023515E+00 0.28652454E+04</pdfrwt>
<totfact> 0.20856530E-02</totfact>
</mgrwt>
</event>
<event>
12    6  0.1402540E-007  0.1360228E+04  0.7818608E-02  0.8983121E-01
          2   -1    0    0  501    0  0.00000000000E+00  0.00000000000E+00  0.62897928248E+03  0.62897928248E+03  0.00000000000E+00 0. -1.
         -1   -1    0    0    0  501 -0.00000000000E+00 -0.00000000000E+00 -0.73540610128E+03  0.73540610128E+03  0.00000000000E+00 0.  1.
         24    2    1    2    0    0  0.92061092162E+02 -0.35470142057E+03  0.50618816935E+02  0.37861685718E+03  0.80623305967E+02 0.  0.
        254    2    1    2    0    0 -0.92061092162E+02  0.35470142057E+03 -0.15704563574E+03  0.98576852658E+03  0.90154751059E+03 0.  0.
         23    2    4    4    0    0 -0.16624471296E+03  0.29627565425E+03 -0.50451581212E+03  0.61458991301E+03  0.88136193520E+02 0.  0.
         23    2    4    4    0    0  0.74183620794E+02  0.58425766319E+02  0.34747017638E+03  0.37117861357E+03  0.90118033379E+02 0.  0.
          4    1    3    3  502    0  0.51325580082E+02 -0.30911152230E+03  0.51065808775E+02  0.31747750348E+03  0.00000000000E+00 0. -1.
         -3    1    3    3    0  502  0.40735512080E+02 -0.45589898269E+02 -0.44699183970E+00  0.61139353696E+02  0.00000000000E+00 0.  1.
         11    1    5    5    0    0 -0.15753050718E+02  0.16359990553E+02 -0.61738875878E+01  0.23535606764E+02  0.00000000000E+00 0.  1.
        -11    1    5    5    0    0 -0.15049166224E+03  0.27991566370E+03 -0.49834192453E+03  0.59105430624E+03  0.00000000000E+00 0. -1.
          3    1    6    6  503    0  0.52662382673E+02  0.81892690454E+02  0.28287084073E+03  0.29915823879E+03  0.00000000000E+00 0. -1.
         -3    1    6    6    0  503  0.21521238121E+02 -0.23466924135E+02  0.64599335646E+02  0.72020374788E+02  0.00000000000E+00 0.  1.
<mgrwt>
<rscale>  0 0.13602282E+04</rscale>
<asrwt>0</asrwt>
<pdfrwt beam="1">  1        2 0.96766044E-01 0.13602282E+04</pdfrwt>
<pdfrwt beam="2">  1       -1 0.11313940E+00 0.13602282E+04</pdfrwt>
<totfact> 0.37289350E+01</totfact>
</mgrwt>
</event>
<event>
12    6  0.1402540E-007  0.2844078E+04  0.7818608E-02  0.8289713E-01
          2   -1    0    0  501    0  0.00000000000E+00  0.00000000000E+00  0.17091008419E+04  0.17091008419E+04  0.00000000000E+00 0. -1.
         -1   -1    0    0    0  501 -0.00000000000E+00 -0.00000000000E+00 -0.11831920970E+04  0.11831920970E+04  0.00000000000E+00 0.  1.
         24    2    1    2    0    0 -0.50189353906E+03  0.93164496670E+03 -0.49223312892E+03  0.11698653479E+04  0.80199816253E+02 0.  0.
        254    2    1    2    0    0  0.50189353906E+03 -0.93164496670E+03  0.10181418739E+04  0.17224275910E+04  0.90015802080E+03 0.  0.
         23    2    4    4    0    0  0.42200708658E+03 -0.84705731279E+03  0.11734362461E+04  0.15107903816E+04  0.99693937823E+02 0.  0.
         23    2    4    4    0    0  0.79886452483E+02 -0.84587653911E+02 -0.15529437219E+03  0.21163720942E+03  0.84481062336E+02 0.  0.
          4    1    3    3  502    0 -0.44804499650E+03  0.85720749616E+03 -0.46978814028E+03  0.10752906152E+04  0.00000000000E+00 0. -1.
         -3    1    3    3    0  502 -0.53848542564E+02  0.74437470536E+02 -0.22444988644E+02  0.94574732732E+02  0.00000000000E+00 0.  1.
         11    1    5    5    0    0  0.41667856988E+03 -0.78110415696E+03  0.10981491040E+04  0.14105588216E+04  0.00000000000E+00 0.  1.
        -11    1    5    5    0    0  0.53285166968E+01 -0.65953155826E+02  0.75287142097E+02  0.10023155999E+03  0.00000000000E+00 0. -1.
          1    1    6    6  503    0  0.47204078824E+02  0.24671533907E+01 -0.31474181912E+02  0.56788520235E+02  0.00000000000E+00 0. -1.
         -1    1    6    6    0  503  0.32682373659E+02 -0.87054807301E+02 -0.12382019028E+03  0.15484868919E+03  0.00000000000E+00 0.  1.
<mgrwt>
<rscale>  0 0.28440778E+04</rscale>
<asrwt>0</asrwt>
<pdfrwt beam="1">  1        2 0.26293859E+00 0.28440778E+04</pdfrwt>
<pdfrwt beam="2">  1       -1 0.18202955E+00 0.28440778E+04</pdfrwt>
<totfact> 0.19252877E+00</totfact>
</mgrwt>
</event>
<event>
12    6  0.1402540E-007  0.1840309E+04  0.7818608E-02  0.8685152E-01
         -1   -1    0    0    0  501 -0.00000000000E+00  0.00000000000E+00  0.73677582256E+03  0.73677582256E+03  0.00000000000E+00 0.  1.
          2   -1    0    0  501    0  0.00000000000E+00 -0.00000000000E+00 -0.11491752642E+04  0.11491752642E+04  0.00000000000E+00 0. -1.
         24    2    1    2    0    0  0.31751428750E+03 -0.33742075550E+03  0.37689155368E+03  0.60268242738E+03  0.80689379869E+02 0.  0.
        254    2    1    2    0    0 -0.31751428750E+03  0.33742075550E+03 -0.78929099530E+03  0.12832686594E+04  0.89951658564E+03 0.  0.
         23    2    4    4    0    0 -0.25670352061E+03  0.42302712201E+03 -0.21517811936E+02  0.50320497939E+03  0.88902146270E+02 0.  0.
         23    2    4    4    0    0 -0.60810766898E+02 -0.85606366510E+02 -0.76777318337E+03  0.78006367997E+03  0.89427536924E+02 0.  0.
          4    1    3    3  502    0  0.22037776855E+03 -0.18904023327E+03  0.20276117511E+03  0.35413932964E+03  0.00000000000E+00 0. -1.
         -3    1    3    3    0  502  0.97136518950E+02 -0.14838052223E+03  0.17413037857E+03  0.24854309774E+03  0.00000000000E+00 0.  1.
         11    1    5    5    0    0 -0.17754572804E+03  0.21859491695E+03 -0.33822840041E+02  0.28363745834E+03  0.00000000000E+00 0. -1.
        -11    1    5    5    0    0 -0.79157792567E+02  0.20443220505E+03  0.12305028105E+02  0.21956752106E+03  0.00000000000E+00 0.  1.
          1    1    6    6  503    0 -0.29596150625E+01 -0.78031496193E+02 -0.38158221071E+03  0.38949025308E+03  0.00000000000E+00 0. -1.
         -1    1    6    6    0  503 -0.57851151835E+02 -0.75748703169E+01 -0.38619097266E+03  0.39057342689E+03  0.00000000000E+00 0.  1.
<mgrwt>
<rscale>  0 0.18403093E+04</rscale>
<asrwt>0</asrwt>
<pdfrwt beam="1">  1        2 0.17679619E+00 0.18403093E+04</pdfrwt>
<pdfrwt beam="2">  1       -1 0.11335013E+00 0.18403093E+04</pdfrwt>
<totfact> 0.15501650E+01</totfact>
</mgrwt>
</event>
<event>
12    6  0.1402540E-007  0.2039207E+04  0.7818608E-02  0.8588507E-01
          2   -1    0    0  501    0  0.00000000000E+00  0.00000000000E+00  0.19562457818E+04  0.19562457818E+04  0.00000000000E+00 0. -1.
         -1   -1    0    0    0  501 -0.00000000000E+00 -0.00000000000E+00 -0.53142141572E+03  0.53142141572E+03  0.00000000000E+00 0.  1.
         24    2    1    2    0    0  0.39695819307E+03 -0.33641013428E+03 -0.19667141615E+03  0.56189739495E+03  0.79381679433E+02 0.  0.
        254    2    1    2    0    0 -0.39695819307E+03  0.33641013428E+03  0.16214957823E+04  0.19257698026E+04  0.89921809103E+03 0.  0.
         23    2    4    4    0    0 -0.62847664050E+03  0.18576642503E+02  0.96203341960E+03  0.11529904679E+04  0.92470207380E+02 0.  0.
         23    2    4    4    0    0  0.23151844743E+03  0.31783349178E+03  0.65946236266E+03  0.77277933474E+03  0.87626322763E+02 0.  0.
          2    1    3    3  502    0  0.10719357055E+03 -0.11639000564E+03 -0.27273031816E+02  0.16056435857E+03  0.00000000000E+00 0. -1.
         -1    1    3    3    0  502  0.28976462253E+03 -0.22002012864E+03 -0.16939838433E+03  0.40133303638E+03  0.00000000000E+00 0.  1.
         11    1    5    5    0    0 -0.98100079002E+02  0.12280119965E+01  0.95718033841E+02  0.13706595316E+03  0.00000000000E+00 0. -1.
        -11    1    5    5    0    0 -0.53037656150E+03  0.17348630506E+02  0.86631538576E+03  0.10159245147E+04  0.00000000000E+00 0.  1.
          3    1    6    6  503    0  0.48348313025E+02  0.77014540582E+02  0.90066794589E+02  0.12798760222E+03  0.00000000000E+00 0. -1.
         -3    1    6    6    0  503  0.18317013440E+03  0.24081895119E+03  0.56939556807E+03  0.64479173253E+03  0.00000000000E+00 0.  1.
<mgrwt>
<rscale>  0 0.20392066E+04</rscale>
<asrwt>0</asrwt>
<pdfrwt beam="1">  1        2 0.30096089E+00 0.20392066E+04</pdfrwt>
<pdfrwt beam="2">  1       -1 0.81757142E-01 0.20392066E+04</pdfrwt>
<totfact> 0.11094008E+01</totfact>
</mgrwt>
</event>
<event>
12    6  0.1402540E-007  0.2496580E+04  0.7818608E-02  0.8404205E-01
         -1   -1    0    0    0  501 -0.00000000000E+00  0.00000000000E+00  0.90091538550E+03  0.90091538550E+03  0.00000000000E+00 0.  1.
          2   -1    0    0  501    0  0.00000000000E+00 -0.00000000000E+00 -0.17296048943E+04  0.17296048943E+04  0.00000000000E+00 0. -1.
         24    2    1    2    0    0  0.36651621910E+03  0.88062276206E+03  0.18263997608E+03  0.97444782341E+03  0.79753443573E+02 0.  0.
        254    2    1    2    0    0 -0.36651621910E+03 -0.88062276206E+03 -0.10113294848E+04  0.16560724564E+04  0.89997670297E+03 0.  0.
         23    2    4    4    0    0  0.28176625120E+03 -0.22462373923E+03 -0.18569214036E+03  0.41486291451E+03  0.88213504090E+02 0.  0.
         23    2    4    4    0    0 -0.64828247031E+03 -0.65599902283E+03 -0.82563734449E+03  0.12412095419E+04  0.91209774205E+02 0.  0.
          4    1    3    3  502    0  0.29279376996E+03  0.61213690040E+03  0.12048201834E+03  0.68917029340E+03  0.00000000000E+00 0. -1.
         -3    1    3    3    0  502  0.73722449138E+02  0.26848586166E+03  0.62157957740E+02  0.28527753001E+03  0.00000000000E+00 0.  1.
         11    1    5    5    0    0  0.21156672330E+02 -0.12803321778E+01  0.56166415033E+01  0.21926939967E+02  0.00000000000E+00 0.  1.
        -11    1    5    5    0    0  0.26060957887E+03 -0.22334340705E+03 -0.19130878186E+03  0.39293597454E+03  0.00000000000E+00 0. -1.
          2    1    6    6  503    0 -0.46681671800E+03 -0.41816699339E+03 -0.53295761313E+03  0.82269392849E+03  0.00000000000E+00 0. -1.
         -2    1    6    6    0  503 -0.18146575230E+03 -0.23783202944E+03 -0.29267973136E+03  0.41851561337E+03  0.00000000000E+00 0.  1.
<mgrwt>
<rscale>  0 0.24965798E+04</rscale>
<asrwt>0</asrwt>
<pdfrwt beam="1">  1        2 0.26609306E+00 0.24965798E+04</pdfrwt>
<pdfrwt beam="2">  1       -1 0.13860237E+00 0.24965798E+04</pdfrwt>
<totfact> 0.41264542E+00</totfact>
</mgrwt>
</event>
<event>
12    6  0.1402540E-007  0.1949513E+04  0.7818608E-02  0.8630596E-01
          2   -1    0    0  501    0  0.00000000000E+00  0.00000000000E+00  0.26842646708E+04  0.26842646708E+04  0.00000000000E+00 0. -1.
         -1   -1    0    0    0  501 -0.00000000000E+00 -0.00000000000E+00 -0.35397035913E+03  0.35397035913E+03  0.00000000000E+00 0.  1.
         24    2    1    2    0    0 -0.18375539454E+03  0.33957986027E+03 -0.11021108577E+03  0.40927157315E+03  0.79222538719E+02 0.  0.
        254    2    1    2    0    0  0.18375539454E+03 -0.33957986027E+03  0.24405053974E+04  0.26289634568E+04  0.89794305814E+03 0.  0.
         23    2    4    4    0    0 -0.22411467237E+03 -0.40194559241E+03  0.18075702405E+04  0.18675340507E+04  0.92658570123E+02 0.  0.
         23    2    4    4    0    0  0.40787006691E+03  0.62365732138E+02  0.63293515691E+03  0.76142940604E+03  0.94447612474E+02 0.  0.
          4    1    3    3  502    0 -0.30359618147E+02  0.22233469404E+02 -0.29137395950E+02  0.47592241158E+02  0.00000000000E+00 0. -1.
         -3    1    3    3    0  502 -0.15339577639E+03  0.31734639086E+03 -0.81073689820E+02  0.36167933199E+03  0.00000000000E+00 0.  1.
         11    1    5    5    0    0 -0.11503561248E+03 -0.21051630497E+03  0.75675586614E+03  0.79387010760E+03  0.00000000000E+00 0. -1.
        -11    1    5    5    0    0 -0.10907905990E+03 -0.19142928743E+03  0.10508143744E+04  0.10736639431E+04  0.00000000000E+00 0.  1.
          1    1    6    6  503    0  0.23457964715E+03 -0.56133934023E+01  0.31156610540E+03  0.39004174017E+03  0.00000000000E+00 0.  1.
         -1    1    6    6    0  503  0.17329041977E+03  0.67979125541E+02  0.32136905151E+03  0.37138766587E+03  0.00000000000E+00 0. -1.
<mgrwt>
<rscale>  0 0.19495129E+04</rscale>
<asrwt>0</asrwt>
<pdfrwt beam="1">  1        2 0.41296378E+00 0.19495129E+04</pdfrwt>
<pdfrwt beam="2">  1       -1 0.54456980E-01 0.19495129E+04</pdfrwt>
<totfact> 0.98269160E+00</totfact>
</mgrwt>
</event>
<event>
12    6  0.1402540E-007  0.1633317E+04  0.7818608E-02  0.8800338E-01
          2   -1    0    0  501    0  0.00000000000E+00  0.00000000000E+00  0.36686385244E+04  0.36686385244E+04  0.00000000000E+00 0. -1.
         -1   -1    0    0    0  501 -0.00000000000E+00 -0.00000000000E+00 -0.18179251813E+03  0.18179251813E+03  0.00000000000E+00 0.  1.
         24    2    1    2    0    0  0.14885928054E+03 -0.55160961229E+03  0.10804659532E+04  0.12248265960E+04  0.79757535375E+02 0.  0.
        254    2    1    2    0    0 -0.14885928054E+03  0.55160961229E+03  0.24063800531E+04  0.26256044465E+04  0.88130670035E+03 0.  0.
         23    2    4    4    0    0 -0.72826519294E+02 -0.18639365118E+03  0.20069641444E+03  0.29677796605E+03  0.88044393646E+02 0.  0.
         23    2    4    4    0    0 -0.76032761247E+02  0.73800326347E+03  0.22056836386E+04  0.23288264805E+04  0.89233764990E+02 0.  0.
          2    1    3    3  502    0  0.70695113966E+02 -0.13164194424E+03  0.26354701882E+03  0.30295945563E+03  0.00000000000E+00 0. -1.
         -1    1    3    3    0  502  0.78164166575E+02 -0.41996766804E+03  0.81691893441E+03  0.92186714039E+03  0.00000000000E+00 0.  1.
         11    1    5    5    0    0 -0.22225930113E+01 -0.11781783080E+03  0.13083727496E+03  0.17608058863E+03  0.00000000000E+00 0. -1.
        -11    1    5    5    0    0 -0.70603926282E+02 -0.68575820381E+02  0.69859139479E+02  0.12069737742E+03  0.00000000000E+00 0.  1.
          3    1    6    6  503    0 -0.15004888993E+02  0.49032394012E+03  0.13769659080E+04  0.14617379466E+04  0.00000000000E+00 0. -1.
         -3    1    6    6    0  503 -0.61027872254E+02  0.24767932334E+03  0.82871773069E+03  0.86708853387E+03  0.00000000000E+00 0.  1.
<mgrwt>
<rscale>  0 0.16333169E+04</rscale>
<asrwt>0</asrwt>
<pdfrwt beam="1">  1        2 0.56440587E+00 0.16333169E+04</pdfrwt>
<pdfrwt beam="2">  1       -1 0.27968082E-01 0.16333169E+04</pdfrwt>
<totfact> 0.78398665E+00</totfact>
</mgrwt>
</event>
<event>
12    6  0.1402540E-007  0.2354689E+04  0.7818608E-02  0.8456665E-01
         -1   -1    0    0    0  501 -0.00000000000E+00  0.00000000000E+00  0.33586822453E+03  0.33586822453E+03  0.00000000000E+00 0.  1.
          2   -1    0    0  501    0  0.00000000000E+00 -0.00000000000E+00 -0.41270341196E+04  0.41270341196E+04  0.00000000000E+00 0. -1.
         24    2    1    2    0    0  0.73969055244E+03 -0.50385798677E+03 -0.24884097862E+04  0.26456609789E+04  0.79522119146E+02 0.  0.
        254    2    1    2    0    0 -0.73969055244E+03  0.50385798677E+03 -0.13027561089E+04  0.18172413652E+04  0.89675956410E+03 0.  0.
         23    2    4    4    0    0 -0.87068495846E+03  0.18051220186E+03 -0.80784631862E+03  0.12048593410E+04  0.91615529040E+02 0.  0.
         23    2    4    4    0    0  0.13099440601E+03  0.32334578491E+03 -0.49490979028E+03  0.61238202418E+03  0.91454972515E+02 0.  0.
          2    1    3    3  502    0  0.23467437788E+03 -0.13420041677E+03 -0.84070311550E+03  0.88309883020E+03  0.00000000000E+00 0. -1.
         -1    1    3    3    0  502  0.50501617456E+03 -0.36965757001E+03 -0.16477066707E+04  0.17625621487E+04  0.00000000000E+00 0.  1.
         11    1    5    5    0    0 -0.45504263031E+02  0.22066796706E+02 -0.71739605089E+02  0.87773301232E+02  0.00000000000E+00 0. -1.
        -11    1    5    5    0    0 -0.82518069543E+03  0.15844540515E+03 -0.73610671353E+03  0.11170860398E+04  0.00000000000E+00 0.  1.
          3    1    6    6  503    0  0.45050342739E+02  0.43862417245E+02 -0.51666003966E+02  0.81380716348E+02  0.00000000000E+00 0. -1.
         -3    1    6    6    0  503  0.85944063275E+02  0.27948336767E+03 -0.44324378631E+03  0.53100130783E+03  0.00000000000E+00 0.  1.
<mgrwt>
<rscale>  0 0.23546886E+04</rscale>
<asrwt>0</asrwt>
<pdfrwt beam="1">  1        2 0.63492834E+00 0.23546886E+04</pdfrwt>
<pdfrwt beam="2">  1       -1 0.51672033E-01 0.23546886E+04</pdfrwt>
<totfact> 0.10454774E+00</totfact>
</mgrwt>
</event>
<event>
12    6  0.1402540E-007  0.1955713E+04  0.7818608E-02  0.8627611E-01
          2   -1    0    0  501    0  0.00000000000E+00  0.00000000000E+00  0.18695959251E+04  0.18695959251E+04  0.00000000000E+00 0. -1.
         -1   -1    0    0    0  501 -0.00000000000E+00 -0.00000000000E+00 -0.51144945164E+03  0.51144945164E+03  0.00000000000E+00 0.  1.
         24    2    1    2    0    0 -0.47843317201E+03  0.57684590281E+03  0.32890304273E+03  0.82206616958E+03  0.77240403776E+02 0.  0.
        254    2    1    2    0    0  0.47843317201E+03 -0.57684590281E+03  0.10292434307E+04  0.15589792071E+04  0.89968029484E+03 0.  0.
         23    2    4    4    0    0  0.36203942298E+02 -0.29520531965E+02 -0.15259955959E+03  0.18028286180E+03  0.83863564358E+02 0.  0.
         23    2    4    4    0    0  0.44222922972E+03 -0.54732537085E+03  0.11818429903E+04  0.13786963453E+04  0.94440487727E+02 0.  0.
          2    1    3    3  502    0 -0.24723213146E+03  0.35659151334E+03  0.18088581854E+03  0.47010734260E+03  0.00000000000E+00 0. -1.
         -1    1    3    3    0  502 -0.23120104056E+03  0.22025438947E+03  0.14801722419E+03  0.35195882698E+03  0.00000000000E+00 0.  1.
         11    1    5    5    0    0  0.25032595447E+02  0.27896049103E+02 -0.57716677437E+02  0.68818858206E+02  0.00000000000E+00 0. -1.
        -11    1    5    5    0    0  0.11171346851E+02 -0.57416581067E+02 -0.94882882152E+02  0.11146400359E+03  0.00000000000E+00 0.  1.
          1    1    6    6  503    0  0.17992155936E+03 -0.28936298591E+03  0.52625178652E+03  0.62693193247E+03  0.00000000000E+00 0. -1.
         -1    1    6    6    0  503  0.26230767035E+03 -0.25796238494E+03  0.65559120377E+03  0.75176441286E+03  0.00000000000E+00 0.  1.
<mgrwt>
<rscale>  0 0.19557135E+04</rscale>
<asrwt>0</asrwt>
<pdfrwt beam="1">  1        2 0.28763014E+00 0.19557135E+04</pdfrwt>
<pdfrwt beam="2">  1       -1 0.78684532E-01 0.19557135E+04</pdfrwt>
<totfact> 0.13543627E+01</totfact>
</mgrwt>
</event>
<event>
12    6  0.1402540E-007  0.2222355E+04  0.7818608E-02  0.8509181E-01
         -1   -1    0    0    0  501 -0.00000000000E+00  0.00000000000E+00  0.93534933936E+03  0.93534933936E+03  0.00000000000E+00 0.  1.
          2   -1    0    0  501    0  0.00000000000E+00 -0.00000000000E+00 -0.13200584995E+04  0.13200584995E+04  0.00000000000E+00 0. -1.
         24    2    1    2    0    0 -0.92564240721E+03  0.46005923822E+02 -0.16969803940E+03  0.94545954389E+03  0.78523330925E+02 0.  0.
        254    2    1    2    0    0  0.92564240721E+03 -0.46005923822E+02 -0.21501112078E+03  0.13099482950E+04  0.90044674605E+03 0.  0.
         23    2    4    4    0    0  0.78958702645E+03  0.19327859611E+03  0.16294213246E+03  0.83389610229E+03  0.89600685406E+02 0.  0.
         23    2    4    4    0    0  0.13605538076E+03 -0.23928451993E+03 -0.37795325324E+03  0.47605219272E+03  0.89492348509E+02 0.  0.
          2    1    3    3  502    0 -0.16820154472E+03 -0.20795831081E+02 -0.39292483447E+02  0.17397737063E+03  0.00000000000E+00 0. -1.
         -1    1    3    3    0  502 -0.75744086249E+03  0.66801754903E+02 -0.13040555595E+03  0.77148217326E+03  0.00000000000E+00 0.  1.
         11    1    5    5    0    0  0.45841292869E+03  0.66595274393E+02  0.95167578873E+02  0.47289979047E+03  0.00000000000E+00 0.  1.
        -11    1    5    5    0    0  0.33117409776E+03  0.12668332172E+03  0.67774553584E+02  0.36099631182E+03  0.00000000000E+00 0. -1.
          3    1    6    6  503    0  0.80973616798E+02 -0.14828895115E+03 -0.15615350997E+03  0.23006576956E+03  0.00000000000E+00 0. -1.
         -3    1    6    6    0  503  0.55081763962E+02 -0.90995568785E+02 -0.22179974327E+03  0.24598642315E+03  0.00000000000E+00 0.  1.
<mgrwt>
<rscale>  0 0.22223554E+04</rscale>
<asrwt>0</asrwt>
<pdfrwt beam="1">  1        2 0.20308592E+00 0.22223554E+04</pdfrwt>
<pdfrwt beam="2">  1       -1 0.14389990E+00 0.22223554E+04</pdfrwt>
<totfact> 0.65242306E+00</totfact>
</mgrwt>
</event>
<event>
12    6  0.1402540E-007  0.1589604E+04  0.7818608E-02  0.8826960E-01
          2   -1    0    0  501    0  0.00000000000E+00  0.00000000000E+00  0.28959100670E+04  0.28959100670E+04  0.00000000000E+00 0. -1.
         -3   -1    0    0    0  501 -0.00000000000E+00 -0.00000000000E+00 -0.21813887177E+03  0.21813887177E+03  0.00000000000E+00 0.  1.
         24    2    1    2    0    0 -0.18297063232E+03  0.49866441450E+03  0.77387263370E+03  0.94201741442E+03  0.79834236317E+02 0.  0.
        254    2    1    2    0    0  0.18297063232E+03 -0.49866441450E+03  0.19038985615E+04  0.21720315244E+04  0.90041477090E+03 0.  0.
         23    2    4    4    0    0 -0.17133807777E+03  0.13733147275E+02  0.32115011614E+02  0.19722373756E+03  0.91216733432E+02 0.  0.
         23    2    4    4    0    0  0.35430871009E+03 -0.51239756178E+03  0.18717835499E+04  0.19748077868E+04  0.90588154459E+02 0.  0.
          4    1    3    3  502    0 -0.13624870624E+03  0.41518336402E+03  0.67774022414E+03  0.80639490767E+03  0.00000000000E+00 0. -1.
         -3    1    3    3    0  502 -0.46721926074E+02  0.83481050485E+02  0.96132409566E+02  0.13562250674E+03  0.00000000000E+00 0.  1.
         11    1    5    5    0    0 -0.59182190838E+02  0.74146494229E+01  0.56629728220E+02  0.82246184451E+02  0.00000000000E+00 0.  1.
        -11    1    5    5    0    0 -0.11215588693E+03  0.63184978520E+01 -0.24514716606E+02  0.11497755311E+03  0.00000000000E+00 0. -1.
          2    1    6    6  503    0  0.21265970694E+03 -0.33138670193E+03  0.13076938937E+04  0.13656883307E+04  0.00000000000E+00 0. -1.
         -2    1    6    6    0  503  0.14164900315E+03 -0.18101085984E+03  0.56408965625E+03  0.60911945607E+03  0.00000000000E+00 0.  1.
<mgrwt>
<rscale>  0 0.15896044E+04</rscale>
<asrwt>0</asrwt>
<pdfrwt beam="1">  1        2 0.44552460E+00 0.15896044E+04</pdfrwt>
<pdfrwt beam="2">  1       -3 0.33559829E-01 0.15896044E+04</pdfrwt>
<totfact> 0.11065821E+01</totfact>
</mgrwt>
</event>
<event>
12    6  0.1402540E-007  0.2359763E+04  0.7818608E-02  0.8454723E-01
         -1   -1    0    0    0  501 -0.00000000000E+00  0.00000000000E+00  0.52200110100E+03  0.52200110100E+03  0.00000000000E+00 0.  1.
          2   -1    0    0  501    0  0.00000000000E+00 -0.00000000000E+00 -0.26668916396E+04  0.26668916396E+04  0.00000000000E+00 0. -1.
         24    2    1    2    0    0 -0.16158441837E+03  0.98956716577E+03 -0.10325416105E+04  0.14415175665E+04  0.80486130517E+02 0.  0.
        254    2    1    2    0    0  0.16158441837E+03 -0.98956716577E+03 -0.11123489281E+04  0.17473751742E+04  0.90035946238E+03 0.  0.
         23    2    4    4    0    0  0.14289414344E+03  0.12412840080E+03 -0.29704428914E+03  0.36393064291E+03  0.91562039234E+02 0.  0.
         23    2    4    4    0    0  0.18690274930E+02 -0.11136955666E+04 -0.81530463899E+03  0.13834445312E+04  0.92357865316E+02 0.  0.
          4    1    3    3  502    0 -0.15168812752E+03  0.72009562839E+03 -0.77223575111E+03  0.10667216400E+04  0.00000000000E+00 0. -1.
         -3    1    3    3    0  502 -0.98962908424E+01  0.26947153739E+03 -0.26030585941E+03  0.37479592644E+03  0.00000000000E+00 0.  1.
         11    1    5    5    0    0  0.13584212350E+03  0.11613263873E+03 -0.30295475893E+03  0.35174061218E+03  0.00000000000E+00 0.  1.
        -11    1    5    5    0    0  0.70520199328E+01  0.79957620644E+01  0.59104697930E+01  0.12190030734E+02  0.00000000000E+00 0. -1.
          1    1    6    6  503    0  0.46271793448E+02 -0.60011811367E+03 -0.47476606111E+03  0.76660657576E+03  0.00000000000E+00 0. -1.
         -1    1    6    6    0  503 -0.27581518519E+02 -0.51357745290E+03 -0.34053857788E+03  0.61683795548E+03  0.00000000000E+00 0.  1.
<mgrwt>
<rscale>  0 0.23597630E+04</rscale>
<asrwt>0</asrwt>
<pdfrwt beam="1">  1        2 0.41029102E+00 0.23597630E+04</pdfrwt>
<pdfrwt beam="2">  1       -1 0.80307861E-01 0.23597630E+04</pdfrwt>
<totfact> 0.44125475E+00</totfact>
</mgrwt>
</event>
<event>
12    6  0.1402540E-007  0.1528365E+04  0.7818608E-02  0.8865806E-01
         -1   -1    0    0    0  501 -0.00000000000E+00  0.00000000000E+00  0.25935490393E+03  0.25935490393E+03  0.00000000000E+00 0.  1.
          2   -1    0    0  501    0  0.00000000000E+00 -0.00000000000E+00 -0.22516444757E+04  0.22516444757E+04  0.00000000000E+00 0. -1.
         24    2    1    2    0    0  0.33301394307E+03 -0.15892029163E+03 -0.11940887068E+04  0.12523195623E+04  0.79388294215E+02 0.  0.
        254    2    1    2    0    0 -0.33301394307E+03  0.15892029163E+03 -0.79820086503E+03  0.12586798173E+04  0.90055333888E+03 0.  0.
         23    2    4    4    0    0 -0.78894591514E+02  0.26901852407E+03  0.10207703122E+03  0.31246179933E+03  0.92829590514E+02 0.  0.
         23    2    4    4    0    0 -0.25411935155E+03 -0.11009823245E+03 -0.90027789625E+03  0.94621801796E+03  0.90166409600E+02 0.  0.
          2    1    3    3  502    0  0.87206114251E+02 -0.60224420037E+02 -0.45558733564E+03  0.46775175844E+03  0.00000000000E+00 0. -1.
         -1    1    3    3    0  502  0.24580782882E+03 -0.98695871588E+02 -0.73850137112E+03  0.78456780390E+03  0.00000000000E+00 0.  1.
         11    1    5    5    0    0 -0.90271710551E+02  0.22702363746E+03  0.59214307376E+02  0.25138625239E+03  0.00000000000E+00 0. -1.
        -11    1    5    5    0    0  0.11377119036E+02  0.41994886611E+02  0.42862723847E+02  0.61075546945E+02  0.00000000000E+00 0.  1.
          3    1    6    6  503    0 -0.33941692493E+02 -0.49356363309E+02 -0.24713222899E+03  0.25428808013E+03  0.00000000000E+00 0. -1.
         -3    1    6    6    0  503 -0.22017765906E+03 -0.60741869139E+02 -0.65314566726E+03  0.69192993784E+03  0.00000000000E+00 0.  1.
<mgrwt>
<rscale>  0 0.15283652E+04</rscale>
<asrwt>0</asrwt>
<pdfrwt beam="1">  1        2 0.34640685E+00 0.15283652E+04</pdfrwt>
<pdfrwt beam="2">  1       -1 0.39900754E-01 0.15283652E+04</pdfrwt>
<totfact> 0.32483056E+01</totfact>
</mgrwt>
</event>
<event>
12    6  0.1402540E-007  0.1306418E+04  0.7818608E-02  0.9024491E-01
         -1   -1    0    0    0  501 -0.00000000000E+00  0.00000000000E+00  0.29795827118E+04  0.29795827118E+04  0.00000000000E+00 0.  1.
          4   -1    0    0  501    0  0.00000000000E+00 -0.00000000000E+00 -0.14320192053E+03  0.14320192053E+03  0.00000000000E+00 0. -1.
         24    2    1    2    0    0 -0.32817154540E+03 -0.81545830305E+01  0.57518815667E+03  0.66717622894E+03  0.80744315302E+02 0.  0.
        254    2    1    2    0    0  0.32817154540E+03  0.81545830305E+01  0.22611926346E+04  0.24556084034E+04  0.89958737187E+03 0.  0.
         23    2    4    4    0    0  0.33862198425E+03  0.34817759792E+03  0.18453230745E+04  0.19104210053E+04  0.92729068495E+02 0.  0.
         23    2    4    4    0    0 -0.10450438854E+02 -0.34002301489E+03  0.41586956014E+03  0.54518739817E+03  0.92503760736E+02 0.  0.
          2    1    3    3  502    0 -0.87897156883E+02  0.91995607644E+01  0.93801097230E+02  0.12887663849E+03  0.00000000000E+00 0. -1.
         -1    1    3    3    0  502 -0.24027438852E+03 -0.17354143795E+02  0.48138705944E+03  0.53829959045E+03  0.00000000000E+00 0.  1.
         11    1    5    5    0    0  0.20455624425E+03  0.26845115790E+03  0.13164994424E+04  0.13590732368E+04  0.00000000000E+00 0. -1.
        -11    1    5    5    0    0  0.13406574000E+03  0.79726440015E+02  0.52882363210E+03  0.55134776842E+03  0.00000000000E+00 0.  1.
          1    1    6    6  503    0  0.32157032718E+02 -0.22309641964E+03  0.23484434507E+03  0.32551183330E+03  0.00000000000E+00 0. -1.
         -1    1    6    6    0  503 -0.42607471572E+02 -0.11692659525E+03  0.18102521506E+03  0.21967556487E+03  0.00000000000E+00 0.  1.
<mgrwt>
<rscale>  0 0.13064180E+04</rscale>
<asrwt>0</asrwt>
<pdfrwt beam="1">  1        4 0.22031067E-01 0.13064180E+04</pdfrwt>
<pdfrwt beam="2">  1       -1 0.45839730E+00 0.13064180E+04</pdfrwt>
<totfact> 0.23257244E-01</totfact>
</mgrwt>
</event>
<event>
12    6  0.1402540E-007  0.1828819E+04  0.7818608E-02  0.8691122E-01
          2   -1    0    0  501    0  0.00000000000E+00  0.00000000000E+00  0.19154225420E+04  0.19154225420E+04  0.00000000000E+00 0. -1.
         -1   -1    0    0    0  501 -0.00000000000E+00 -0.00000000000E+00 -0.43653289635E+03  0.43653289635E+03  0.00000000000E+00 0.  1.
         24    2    1    2    0    0 -0.53338831568E+03  0.23845217923E+03  0.91094341962E+02  0.59776980136E+03  0.87567226790E+02 0.  0.
        254    2    1    2    0    0  0.53338831568E+03 -0.23845217923E+03  0.13877953037E+04  0.17541856370E+04  0.89990494332E+03 0.  0.
         23    2    4    4    0    0 -0.23480149945E+03  0.31236297893E+02  0.34719861687E+03  0.42982925363E+03  0.89993651298E+02 0.  0.
         23    2    4    4    0    0  0.76818981513E+03 -0.26968847712E+03  0.10405966868E+04  0.13243563834E+04  0.90724300832E+02 0.  0.
          2    1    3    3  502    0 -0.17430513011E+03  0.46561943146E+02  0.56991755271E+02  0.18920452717E+03  0.00000000000E+00 0. -1.
         -1    1    3    3    0  502 -0.35908318556E+03  0.19189023608E+03  0.34102586691E+02  0.40856527419E+03  0.00000000000E+00 0.  1.
         11    1    5    5    0    0 -0.14113205096E+03  0.56087026732E+02  0.25040968995E+03  0.29286348901E+03  0.00000000000E+00 0. -1.
        -11    1    5    5    0    0 -0.93669448488E+02 -0.24850728839E+02  0.96788926918E+02  0.13696576462E+03  0.00000000000E+00 0.  1.
          3    1    6    6  503    0  0.11874123039E+03 -0.55233338538E+02  0.12096232332E+03  0.17827530716E+03  0.00000000000E+00 0. -1.
         -3    1    6    6    0  503  0.64944858474E+03 -0.21445513858E+03  0.91963436352E+03  0.11460810762E+04  0.00000000000E+00 0.  1.
<mgrwt>
<rscale>  0 0.18288192E+04</rscale>
<asrwt>0</asrwt>
<pdfrwt beam="1">  1        2 0.29468039E+00 0.18288192E+04</pdfrwt>
<pdfrwt beam="2">  1       -1 0.67158908E-01 0.18288192E+04</pdfrwt>
<totfact> 0.17935085E+01</totfact>
</mgrwt>
</event>
<event>
12    6  0.1402540E-007  0.1227487E+04  0.7818608E-02  0.9089131E-01
          2   -1    0    0  501    0  0.00000000000E+00  0.00000000000E+00  0.84777424366E+03  0.84777424366E+03  0.00000000000E+00 0. -1.
         -1   -1    0    0    0  501 -0.00000000000E+00 -0.00000000000E+00 -0.44431803974E+03  0.44431803974E+03  0.00000000000E+00 0.  1.
         24    2    1    2    0    0  0.20632337245E+03  0.99977910854E+02 -0.65498746120E+02  0.25230742272E+03  0.82486563380E+02 0.  0.
        254    2    1    2    0    0 -0.20632337245E+03 -0.99977910854E+02  0.46895495005E+03  0.10397848607E+04  0.89926019297E+03 0.  0.
         23    2    4    4    0    0 -0.19277769170E+03  0.38002914338E+03  0.26502755122E+03  0.50929196419E+03  0.86909801781E+02 0.  0.
         23    2    4    4    0    0 -0.13545680749E+02 -0.48000705423E+03  0.20392739883E+03  0.53049289650E+03  0.96156495673E+02 0.  0.
          4    1    3    3  502    0  0.87196093213E+01  0.20768992229E+02  0.12281260829E+02  0.25655642508E+02  0.00000000000E+00 0. -1.
         -3    1    3    3    0  502  0.19760376313E+03  0.79208918625E+02 -0.77780006949E+02  0.22665178021E+03  0.00000000000E+00 0.  1.
         11    1    5    5    0    0 -0.95279126387E+02  0.99448994767E+02  0.78011873519E+02  0.15828476520E+03  0.00000000000E+00 0. -1.
        -11    1    5    5    0    0 -0.97498565311E+02  0.28058014861E+03  0.18701567770E+03  0.35100719898E+03  0.00000000000E+00 0.  1.
          3    1    6    6  503    0  0.38732461283E+02 -0.18861765627E+03  0.62821959334E+02  0.20254239652E+03  0.00000000000E+00 0. -1.
         -3    1    6    6    0  503 -0.52278142032E+02 -0.29138939796E+03  0.14110543949E+03  0.32795049997E+03  0.00000000000E+00 0.  1.
<mgrwt>
<rscale>  0 0.12274875E+04</rscale>
<asrwt>0</asrwt>
<pdfrwt beam="1">  1        2 0.13042681E+00 0.12274875E+04</pdfrwt>
<pdfrwt beam="2">  1       -1 0.68356622E-01 0.12274875E+04</pdfrwt>
<totfact> 0.77594938E+01</totfact>
</mgrwt>
</event>
<event>
12    6  0.1402540E-007  0.2928476E+04  0.7818608E-02  0.8264455E-01
         -1   -1    0    0    0  501 -0.00000000000E+00  0.00000000000E+00  0.28351005325E+04  0.28351005325E+04  0.00000000000E+00 0.  1.
          2   -1    0    0  501    0  0.00000000000E+00 -0.00000000000E+00 -0.75623186326E+03  0.75623186326E+03  0.00000000000E+00 0. -1.
         24    2    1    2    0    0  0.44452999209E+03  0.51093595465E+03  0.23412393195E+04  0.24383378005E+04  0.73669629619E+02 0.  0.
        254    2    1    2    0    0 -0.44452999209E+03 -0.51093595465E+03 -0.26237065030E+03  0.11529945953E+04  0.89548630080E+03 0.  0.
         23    2    4    4    0    0 -0.14989665926E+03 -0.61732232399E+03  0.11682110343E+03  0.65283836207E+03  0.94841428838E+02 0.  0.
         23    2    4    4    0    0 -0.29463333283E+03  0.10638636934E+03 -0.37919175373E+03  0.50015623319E+03  0.90791029868E+02 0.  0.
          4    1    3    3  502    0  0.91413415389E+02  0.12116997148E+03  0.42756970464E+03  0.45371183236E+03  0.00000000000E+00 0. -1.
         -3    1    3    3    0  502  0.35311657670E+03  0.38976598318E+03  0.19136696149E+04  0.19846259681E+04  0.00000000000E+00 0.  1.
         11    1    5    5    0    0 -0.12628992451E+03 -0.49456743859E+03  0.55027024707E+02  0.51339465306E+03  0.00000000000E+00 0. -1.
        -11    1    5    5    0    0 -0.23606734752E+02 -0.12275488540E+03  0.61794078722E+02  0.13944370900E+03  0.00000000000E+00 0.  1.
          1    1    6    6  503    0 -0.12318927572E+03  0.81208477692E+02 -0.13006433101E+03  0.19669047944E+03  0.00000000000E+00 0. -1.
         -1    1    6    6    0  503 -0.17144405711E+03  0.25177891645E+02 -0.24912742272E+03  0.30346575375E+03  0.00000000000E+00 0.  1.
<mgrwt>
<rscale>  0 0.29284763E+04</rscale>
<asrwt>0</asrwt>
<pdfrwt beam="1">  1        2 0.11634337E+00 0.29284763E+04</pdfrwt>
<pdfrwt beam="2">  1       -1 0.43616931E+00 0.29284763E+04</pdfrwt>
<totfact> 0.14669162E-01</totfact>
</mgrwt>
</event>
<event>
12    6  0.1402540E-007  0.1643979E+04  0.7818608E-02  0.8793976E-01
          2   -1    0    0  501    0  0.00000000000E+00  0.00000000000E+00  0.23179367709E+04  0.23179367709E+04  0.00000000000E+00 0. -1.
         -1   -1    0    0    0  501 -0.00000000000E+00 -0.00000000000E+00 -0.29149497313E+03  0.29149497313E+03  0.00000000000E+00 0.  1.
         24    2    1    2    0    0 -0.28776785219E+03  0.49547465633E+03  0.63481000094E+03  0.85911020680E+03  0.82347667391E+02 0.  0.
        254    2    1    2    0    0  0.28776785219E+03 -0.49547465633E+03  0.13916317968E+04  0.17503215372E+04  0.89368951763E+03 0.  0.
         23    2    4    4    0    0  0.12883030726E+03 -0.69813343320E+03  0.67818738276E+03  0.98575206721E+03  0.88212659237E+02 0.  0.
         23    2    4    4    0    0  0.15893754492E+03  0.20265877688E+03  0.71344441403E+03  0.76456946999E+03  0.96082357865E+02 0.  0.
          4    1    3    3  502    0 -0.20853260245E+03  0.38284823979E+03  0.52872431446E+03  0.68527952085E+03  0.00000000000E+00 0. -1.
         -3    1    3    3    0  502 -0.79235249737E+02  0.11262641654E+03  0.10608568648E+03  0.17383068595E+03  0.00000000000E+00 0.  1.
         11    1    5    5    0    0 -0.95241836666E+01 -0.13938831862E+03  0.12799279845E+03  0.18947815151E+03  0.00000000000E+00 0. -1.
        -11    1    5    5    0    0  0.13835449093E+03 -0.55874511458E+03  0.55019458431E+03  0.79627391570E+03  0.00000000000E+00 0.  1.
          1    1    6    6  503    0  0.57424154451E+02  0.11766305625E+02  0.15909586483E+03  0.16955079967E+03  0.00000000000E+00 0. -1.
         -1    1    6    6    0  503  0.10151339047E+03  0.19089247125E+03  0.55434854920E+03  0.59501867032E+03  0.00000000000E+00 0.  1.
<mgrwt>
<rscale>  0 0.16439792E+04</rscale>
<asrwt>0</asrwt>
<pdfrwt beam="1">  1        2 0.35660565E+00 0.16439792E+04</pdfrwt>
<pdfrwt beam="2">  1       -1 0.44845382E-01 0.16439792E+04</pdfrwt>
<totfact> 0.23782634E+01</totfact>
</mgrwt>
</event>
<event>
12    6  0.1402540E-007  0.2411635E+04  0.7818608E-02  0.8435160E-01
          2   -1    0    0  501    0  0.00000000000E+00  0.00000000000E+00  0.21511143197E+04  0.21511143197E+04  0.00000000000E+00 0. -1.
         -1   -1    0    0    0  501 -0.00000000000E+00 -0.00000000000E+00 -0.67592698411E+03  0.67592698411E+03  0.00000000000E+00 0.  1.
         24    2    1    2    0    0 -0.73712506130E+03 -0.23041885513E+03 -0.17396465349E+03  0.79541032146E+03  0.77250721901E+02 0.  0.
        254    2    1    2    0    0  0.73712506130E+03  0.23041885513E+03  0.16491519891E+04  0.20316309824E+04  0.90076409820E+03 0.  0.
         23    2    4    4    0    0  0.17167495412E+03 -0.22140889945E+03  0.85455495772E+02  0.30591953849E+03  0.88260589426E+02 0.  0.
         23    2    4    4    0    0  0.56545010718E+03  0.45182775458E+03  0.15636964934E+04  0.17257114439E+04  0.95137378501E+02 0.  0.
          2    1    3    3  502    0 -0.20419357730E+03 -0.99557837106E+02 -0.59554766165E+02  0.23484792976E+03  0.00000000000E+00 0. -1.
         -1    1    3    3    0  502 -0.53293148400E+03 -0.13086101802E+03 -0.11440988732E+03  0.56056239170E+03  0.00000000000E+00 0.  1.
         11    1    5    5    0    0  0.15872271826E+03 -0.14387022367E+03  0.73038163638E+02  0.22633187115E+03  0.00000000000E+00 0. -1.
        -11    1    5    5    0    0  0.12952235858E+02 -0.77538675780E+02  0.12417332134E+02  0.79587667340E+02  0.00000000000E+00 0.  1.
          3    1    6    6  503    0  0.12533366794E+03  0.14095924641E+03  0.47153592807E+03  0.50786235234E+03  0.00000000000E+00 0. -1.
         -3    1    6    6    0  503  0.44011643924E+03  0.31086850817E+03  0.10921605653E+04  0.12178490916E+04  0.00000000000E+00 0.  1.
<mgrwt>
<rscale>  0 0.24116353E+04</rscale>
<asrwt>0</asrwt>
<pdfrwt beam="1">  1        2 0.33094066E+00 0.24116353E+04</pdfrwt>
<pdfrwt beam="2">  1       -1 0.10398877E+00 0.24116353E+04</pdfrwt>
<totfact> 0.48956621E+00</totfact>
</mgrwt>
</event>
<event>
12    6  0.1402540E-007  0.2743589E+04  0.7818608E-02  0.8320999E-01
          2   -1    0    0  501    0  0.00000000000E+00  0.00000000000E+00  0.12601732430E+04  0.12601732430E+04  0.00000000000E+00 0. -1.
         -1   -1    0    0    0  501 -0.00000000000E+00 -0.00000000000E+00 -0.14933024709E+04  0.14933024709E+04  0.00000000000E+00 0.  1.
         24    2    1    2    0    0  0.96262373728E+03 -0.70291270076E+03 -0.37876195064E+03  0.12533356922E+04  0.81602804771E+02 0.  0.
        254    2    1    2    0    0 -0.96262373728E+03  0.70291270076E+03  0.14563272268E+03  0.15001400217E+04  0.89915542052E+03 0.  0.
         23    2    4    4    0    0 -0.11468295144E+03  0.41129774358E+03  0.36837287314E+03  0.57165232159E+03  0.93647156342E+02 0.  0.
         23    2    4    4    0    0 -0.84794078583E+03  0.29161495718E+03 -0.22274015046E+03  0.92848770008E+03  0.91833409157E+02 0.  0.
          2    1    3    3  502    0  0.67841108754E+03 -0.47743731276E+03 -0.22687726032E+03  0.86003562866E+03  0.00000000000E+00 0. -1.
         -1    1    3    3    0  502  0.28421264974E+03 -0.22547538800E+03 -0.15188469032E+03  0.39330006359E+03  0.00000000000E+00 0.  1.
         11    1    5    5    0    0 -0.87044000475E+02  0.14351460730E+03  0.13611100399E+03  0.21610022197E+03  0.00000000000E+00 0. -1.
        -11    1    5    5    0    0 -0.27638950968E+02  0.26778313629E+03  0.23226186915E+03  0.35555209963E+03  0.00000000000E+00 0.  1.
          4    1    6    6  503    0 -0.80832186314E+03  0.27955597655E+03 -0.23167729553E+03  0.88612084261E+03  0.00000000000E+00 0. -1.
         -4    1    6    6    0  503 -0.39618922694E+02  0.12058980633E+02  0.89371450679E+01  0.42366857463E+02  0.00000000000E+00 0.  1.
<mgrwt>
<rscale>  0 0.27435888E+04</rscale>
<asrwt>0</asrwt>
<pdfrwt beam="1">  1        2 0.19387281E+00 0.27435888E+04</pdfrwt>
<pdfrwt beam="2">  1       -1 0.22973884E+00 0.27435888E+04</pdfrwt>
<totfact> 0.16465942E+00</totfact>
</mgrwt>
</event>
<event>
12    6  0.1402540E-007  0.2346232E+04  0.7818608E-02  0.8459912E-01
         -1   -1    0    0    0  501 -0.00000000000E+00  0.00000000000E+00  0.58889686108E+03  0.58889686108E+03  0.00000000000E+00 0.  1.
          2   -1    0    0  501    0  0.00000000000E+00 -0.00000000000E+00 -0.23369138939E+04  0.23369138939E+04  0.00000000000E+00 0. -1.
         24    2    1    2    0    0  0.11461749815E+03  0.98974348215E+03 -0.82764974309E+03  0.12977381855E+04  0.79943538891E+02 0.  0.
        254    2    1    2    0    0 -0.11461749815E+03 -0.98974348215E+03 -0.92036728977E+03  0.16280725696E+04  0.90045267080E+03 0.  0.
         23    2    4    4    0    0  0.82384823134E+02 -0.17431672076E+03 -0.73336530909E+03  0.76371472617E+03  0.90895149299E+02 0.  0.
         23    2    4    4    0    0 -0.19700232128E+03 -0.81542676139E+03 -0.18700198067E+03  0.86435784339E+03  0.91727983083E+02 0.  0.
          2    1    3    3  502    0  0.97532154214E+02  0.57034670072E+03 -0.44828006089E+03  0.73195825914E+03  0.00000000000E+00 0. -1.
         -1    1    3    3    0  502  0.17085343934E+02  0.41939678143E+03 -0.37936968220E+03  0.56577992631E+03  0.00000000000E+00 0.  1.
         11    1    5    5    0    0  0.14044385831E+02 -0.11221898634E+03 -0.29972443621E+03  0.32035149965E+03  0.00000000000E+00 0.  1.
        -11    1    5    5    0    0  0.68340437303E+02 -0.62097734419E+02 -0.43364087288E+03  0.44336322651E+03  0.00000000000E+00 0. -1.
          4    1    6    6  503    0 -0.14357333126E+03 -0.42252182388E+03 -0.12119209540E+03  0.46241271295E+03  0.00000000000E+00 0. -1.
         -4    1    6    6    0  503 -0.53428990023E+02 -0.39290493750E+03 -0.65809885274E+02  0.40194513045E+03  0.00000000000E+00 0.  1.
<mgrwt>
<rscale>  0 0.23462321E+04</rscale>
<asrwt>0</asrwt>
<pdfrwt beam="1">  1        2 0.35952521E+00 0.23462321E+04</pdfrwt>
<pdfrwt beam="2">  1       -1 0.90599518E-01 0.23462321E+04</pdfrwt>
<totfact> 0.52831052E+00</totfact>
</mgrwt>
</event>
<event>
12    6  0.1402540E-007  0.2482852E+04  0.7818608E-02  0.8409120E-01
          2   -1    0    0  501    0  0.00000000000E+00  0.00000000000E+00  0.19237830069E+04  0.19237830069E+04  0.00000000000E+00 0. -1.
         -1   -1    0    0    0  501 -0.00000000000E+00 -0.00000000000E+00 -0.80109796993E+03  0.80109796993E+03  0.00000000000E+00 0.  1.
         24    2    1    2    0    0 -0.34864196258E+03 -0.79651553538E+03  0.11845288370E+04  0.14715860935E+04  0.80429154031E+02 0.  0.
        254    2    1    2    0    0  0.34864196258E+03  0.79651553538E+03 -0.61843800091E+02  0.12532948832E+04  0.90051940156E+03 0.  0.
         23    2    4    4    0    0  0.18024052462E+03 -0.16035187090E+03 -0.99946145667E+02  0.27664017562E+03  0.91330090995E+02 0.  0.
         23    2    4    4    0    0  0.16840143796E+03  0.95686740627E+03  0.38102345576E+02  0.97665470762E+03  0.91914915421E+02 0.  0.
          4    1    3    3  502    0 -0.18397727389E+03 -0.38480279754E+03  0.64421308369E+03  0.77261331045E+03  0.00000000000E+00 0. -1.
         -3    1    3    3    0  502 -0.16466468869E+03 -0.41171273784E+03  0.54031575333E+03  0.69897278309E+03  0.00000000000E+00 0.  1.
         11    1    5    5    0    0  0.11192011022E+03 -0.12772952452E+03 -0.27849833628E+02  0.17209461275E+03  0.00000000000E+00 0.  1.
        -11    1    5    5    0    0  0.68320414397E+02 -0.32622346380E+02 -0.72096312039E+02  0.10454556287E+03  0.00000000000E+00 0. -1.
          4    1    6    6  503    0  0.13958988112E+03  0.76716972527E+03  0.66908963910E+02  0.78263115944E+03  0.00000000000E+00 0. -1.
         -4    1    6    6    0  503  0.28811556838E+02  0.18969768101E+03 -0.28806618334E+02  0.19402354818E+03  0.00000000000E+00 0.  1.
<mgrwt>
<rscale>  0 0.24828521E+04</rscale>
<asrwt>0</asrwt>
<pdfrwt beam="1">  1        2 0.29596661E+00 0.24828521E+04</pdfrwt>
<pdfrwt beam="2">  1       -1 0.12324584E+00 0.24828521E+04</pdfrwt>
<totfact> 0.43396115E+00</totfact>
</mgrwt>
</event>
<event>
12    6  0.1402540E-007  0.3297825E+04  0.7818608E-02  0.8163449E-01
         -1   -1    0    0    0  501 -0.00000000000E+00  0.00000000000E+00  0.14876155582E+04  0.14876155582E+04  0.00000000000E+00 0.  1.
          2   -1    0    0  501    0  0.00000000000E+00 -0.00000000000E+00 -0.18276985731E+04  0.18276985731E+04  0.00000000000E+00 0. -1.
         24    2    1    2    0    0 -0.13445740833E+03 -0.14430008233E+04  0.31613097015E+03  0.14855771444E+04  0.81673072606E+02 0.  0.
        254    2    1    2    0    0  0.13445740833E+03  0.14430008233E+04 -0.65621398510E+03  0.18297369870E+04  0.90387525492E+03 0.  0.
         23    2    4    4    0    0  0.32299373639E+03  0.18840103398E+03  0.27706208723E+02  0.38559608474E+03  0.89982238328E+02 0.  0.
         23    2    4    4    0    0 -0.18853632806E+03  0.12545997893E+04 -0.68392019383E+03  0.14441409022E+04  0.90716787496E+02 0.  0.
          4    1    3    3  502    0 -0.34890025388E+02 -0.73493423987E+03  0.13634865224E+03  0.74828911910E+03  0.00000000000E+00 0. -1.
         -3    1    3    3    0  502 -0.99567382939E+02 -0.70806658346E+03  0.17978231791E+03  0.73728802526E+03  0.00000000000E+00 0.  1.
         11    1    5    5    0    0  0.23874441691E+03  0.13000512086E+03 -0.19897798686E+02  0.27257320200E+03  0.00000000000E+00 0.  1.
        -11    1    5    5    0    0  0.84249319480E+02  0.58395913121E+02  0.47604007410E+02  0.11302288274E+03  0.00000000000E+00 0. -1.
          4    1    6    6  503    0  0.54854526173E+01  0.14395893338E+03 -0.89168927012E+02  0.16942656885E+03  0.00000000000E+00 0. -1.
         -4    1    6    6    0  503 -0.19402178068E+03  0.11106408560E+04 -0.59475126681E+03  0.12747143334E+04  0.00000000000E+00 0.  1.
<mgrwt>
<rscale>  0 0.32978252E+04</rscale>
<asrwt>0</asrwt>
<pdfrwt beam="1">  1        2 0.28118440E+00 0.32978252E+04</pdfrwt>
<pdfrwt beam="2">  1       -1 0.22886393E+00 0.32978252E+04</pdfrwt>
<totfact> 0.76035494E-01</totfact>
</mgrwt>
</event>
<event>
12    6  0.1402540E-007  0.2763980E+04  0.7818608E-02  0.8314539E-01
          2   -1    0    0  501    0  0.00000000000E+00  0.00000000000E+00  0.16016605422E+04  0.16016605422E+04  0.00000000000E+00 0. -1.
         -1   -1    0    0    0  501 -0.00000000000E+00 -0.00000000000E+00 -0.11924479924E+04  0.11924479924E+04  0.00000000000E+00 0.  1.
         24    2    1    2    0    0  0.23373468672E+03  0.11212333477E+04  0.64617757495E+03  0.13174720124E+04  0.79943238220E+02 0.  0.
        254    2    1    2    0    0 -0.23373468672E+03 -0.11212333477E+04 -0.23696502518E+03  0.14766365222E+04  0.90139163069E+03 0.  0.
         23    2    4    4    0    0 -0.32631024243E+03 -0.17009201837E+03 -0.34199579956E+03  0.51094645655E+03  0.93249587257E+02 0.  0.
         23    2    4    4    0    0  0.92575555712E+02 -0.95114132933E+03  0.10503077438E+03  0.96569006568E+03  0.91026246290E+02 0.  0.
          4    1    3    3  502    0  0.64228983839E+02  0.48574629698E+03  0.25778750524E+03  0.55365081527E+03  0.00000000000E+00 0. -1.
         -3    1    3    3    0  502  0.16950570288E+03  0.63548705072E+03  0.38839006971E+03  0.76382119713E+03  0.00000000000E+00 0.  1.
         11    1    5    5    0    0 -0.14927822967E+03 -0.89962681391E+02 -0.10126929664E+03  0.20157565413E+03  0.00000000000E+00 0.  1.
        -11    1    5    5    0    0 -0.17703201276E+03 -0.80129336975E+02 -0.24072650291E+03  0.30937080242E+03  0.00000000000E+00 0. -1.
          3    1    6    6  503    0  0.49263901655E+02 -0.76415763929E+03  0.57150550274E+02  0.76787369735E+03  0.00000000000E+00 0. -1.
         -3    1    6    6    0  503  0.43311654057E+02 -0.18698369005E+03  0.47880224101E+02  0.19781636833E+03  0.00000000000E+00 0.  1.
<mgrwt>
<rscale>  0 0.27639804E+04</rscale>
<asrwt>0</asrwt>
<pdfrwt beam="1">  1        2 0.24640931E+00 0.27639804E+04</pdfrwt>
<pdfrwt beam="2">  1       -1 0.18345354E+00 0.27639804E+04</pdfrwt>
<totfact> 0.21738857E+00</totfact>
</mgrwt>
</event>
<event>
12    6  0.1402540E-007  0.1300456E+04  0.7818608E-02  0.9029204E-01
         -1   -1    0    0    0  501 -0.00000000000E+00  0.00000000000E+00  0.19104747128E+03  0.19104747128E+03  0.00000000000E+00 0.  1.
          2   -1    0    0  501    0  0.00000000000E+00 -0.00000000000E+00 -0.22130443814E+04  0.22130443814E+04  0.00000000000E+00 0. -1.
         24    2    1    2    0    0  0.43191196267E+02 -0.22569329207E+03 -0.97193400230E+03  0.10019302147E+04  0.80034422307E+02 0.  0.
        254    2    1    2    0    0 -0.43191196267E+02  0.22569329207E+03 -0.10500629078E+04  0.14021616380E+04  0.90034560428E+03 0.  0.
         23    2    4    4    0    0  0.17895158690E+03 -0.63892931366E+02  0.70446594392E+02  0.22046206827E+03  0.86803362560E+02 0.  0.
         23    2    4    4    0    0 -0.22214278316E+03  0.28958622344E+03 -0.11205095022E+04  0.11816995697E+04  0.87548453103E+02 0.  0.
          4    1    3    3  502    0  0.31892491075E+02 -0.13196003105E+03 -0.72421559719E+03  0.73683024639E+03  0.00000000000E+00 0. -1.
         -3    1    3    3    0  502  0.11298705192E+02 -0.93733261022E+02 -0.24771840511E+03  0.26509996830E+03  0.00000000000E+00 0.  1.
         11    1    5    5    0    0  0.40998540679E+01  0.79300549902E+01 -0.11396522095E+02  0.14476715490E+02  0.00000000000E+00 0. -1.
        -11    1    5    5    0    0  0.17485173283E+03 -0.71822986356E+02  0.81843116486E+02  0.20598535278E+03  0.00000000000E+00 0.  1.
          2    1    6    6  503    0 -0.19108635036E+03  0.25137154348E+03 -0.10440671869E+04  0.10907694242E+04  0.00000000000E+00 0.  1.
         -2    1    6    6    0  503 -0.31056432806E+02  0.38214679962E+02 -0.76442315302E+02  0.90930145452E+02  0.00000000000E+00 0. -1.
<mgrwt>
<rscale>  0 0.13004561E+04</rscale>
<asrwt>0</asrwt>
<pdfrwt beam="1">  1        2 0.34046835E+00 0.13004561E+04</pdfrwt>
<pdfrwt beam="2">  1       -1 0.29391920E-01 0.13004561E+04</pdfrwt>
<totfact> 0.60087999E+01</totfact>
</mgrwt>
</event>
<event>
12    6  0.1402540E-007  0.3087526E+04  0.7818608E-02  0.8219170E-01
         -1   -1    0    0    0  501 -0.00000000000E+00  0.00000000000E+00  0.11460868321E+04  0.11460868321E+04  0.00000000000E+00 0.  1.
          2   -1    0    0  501    0  0.00000000000E+00 -0.00000000000E+00 -0.20794268332E+04  0.20794268332E+04  0.00000000000E+00 0. -1.
         24    2    1    2    0    0 -0.11376321593E+04 -0.52053998717E+03 -0.11093381400E+04  0.16740055646E+04  0.80589784252E+02 0.  0.
        254    2    1    2    0    0  0.11376321593E+04  0.52053998717E+03  0.17599813883E+03  0.15515081007E+04  0.90057383573E+03 0.  0.
         23    2    4    4    0    0  0.94858621135E+03 -0.16376381685E+02  0.15594206419E+02  0.95316156123E+03  0.90497493340E+02 0.  0.
         23    2    4    4    0    0  0.18904594795E+03  0.53691636885E+03  0.16040393241E+03  0.59834653948E+03  0.90948349063E+02 0.  0.
          4    1    3    3  502    0 -0.51491361655E+03 -0.27478150000E+03 -0.54159279283E+03  0.79621834850E+03  0.00000000000E+00 0. -1.
         -3    1    3    3    0  502 -0.62271854275E+03 -0.24575848717E+03 -0.56774534716E+03  0.87778721608E+03  0.00000000000E+00 0.  1.
         11    1    5    5    0    0  0.42252011630E+03 -0.37875480810E+02 -0.26039706322E+02  0.42501278455E+03  0.00000000000E+00 0.  1.
        -11    1    5    5    0    0  0.52606609505E+03  0.21499099125E+02  0.41633912741E+02  0.52814877668E+03  0.00000000000E+00 0. -1.
          3    1    6    6  503    0  0.15820277819E+02  0.50295109092E+01  0.71793401057E+00  0.16616034409E+02  0.00000000000E+00 0. -1.
         -3    1    6    6    0  503  0.17322567013E+03  0.53188685794E+03  0.15968599840E+03  0.58173050507E+03  0.00000000000E+00 0.  1.
<mgrwt>
<rscale>  0 0.30875257E+04</rscale>
<asrwt>0</asrwt>
<pdfrwt beam="1">  1        2 0.31991182E+00 0.30875257E+04</pdfrwt>
<pdfrwt beam="2">  1       -1 0.17632105E+00 0.30875257E+04</pdfrwt>
<totfact> 0.12902599E+00</totfact>
</mgrwt>
</event>
<event>
12    6  0.1402540E-007  0.1451323E+04  0.7818608E-02  0.8917484E-01
         -1   -1    0    0    0  501 -0.00000000000E+00  0.00000000000E+00  0.37974279579E+03  0.37974279579E+03  0.00000000000E+00 0.  1.
          2   -1    0    0  501    0  0.00000000000E+00 -0.00000000000E+00 -0.13866880949E+04  0.13866880949E+04  0.00000000000E+00 0. -1.
         24    2    1    2    0    0  0.35209107068E+03  0.26766346083E+03 -0.33548015905E+03  0.56124976134E+03  0.82719448579E+02 0.  0.
        254    2    1    2    0    0 -0.35209107068E+03 -0.26766346083E+03 -0.67146514011E+03  0.12051811294E+04  0.89776626687E+03 0.  0.
         23    2    4    4    0    0 -0.41104204807E+03 -0.29638182891E+03 -0.85119329801E+03  0.99484888711E+03  0.91632547810E+02 0.  0.
         23    2    4    4    0    0  0.58950977388E+02  0.28718368084E+02  0.17972815790E+03  0.21033224228E+03  0.87392671322E+02 0.  0.
          2    1    3    3  502    0  0.22203859264E+03  0.15440173710E+03 -0.25197495461E+03  0.36963821609E+03  0.00000000000E+00 0. -1.
         -1    1    3    3    0  502  0.13005247804E+03  0.11326172372E+03 -0.83505204437E+02  0.19161154525E+03  0.00000000000E+00 0.  1.
         11    1    5    5    0    0 -0.13969918293E+02 -0.35189612986E+02 -0.87509028693E+02  0.95348296167E+02  0.00000000000E+00 0.  1.
        -11    1    5    5    0    0 -0.39707212978E+03 -0.26119221592E+03 -0.76368426932E+03  0.89950059094E+03  0.00000000000E+00 0. -1.
          4    1    6    6  503    0  0.16967762104E+02  0.40043647805E+02  0.15351944522E+03  0.15956070550E+03  0.00000000000E+00 0. -1.
         -4    1    6    6    0  503  0.41983215284E+02 -0.11325279721E+02  0.26208712677E+02  0.50771536775E+02  0.00000000000E+00 0.  1.
<mgrwt>
<rscale>  0 0.14513233E+04</rscale>
<asrwt>0</asrwt>
<pdfrwt beam="1">  1        2 0.21333663E+00 0.14513233E+04</pdfrwt>
<pdfrwt beam="2">  1       -1 0.58421968E-01 0.14513233E+04</pdfrwt>
<totfact> 0.48319633E+01</totfact>
</mgrwt>
</event>
<event>
12    6  0.1402540E-007  0.2302668E+04  0.7818608E-02  0.8476870E-01
          2   -1    0    0  501    0  0.00000000000E+00  0.00000000000E+00  0.15112485234E+04  0.15112485234E+04  0.00000000000E+00 0. -1.
         -1   -1    0    0    0  501 -0.00000000000E+00 -0.00000000000E+00 -0.87713583969E+03  0.87713583969E+03  0.00000000000E+00 0.  1.
         24    2    1    2    0    0  0.92733005874E+03  0.27311650369E+03  0.38568883249E+03  0.10438526069E+04  0.79616122894E+02 0.  0.
        254    2    1    2    0    0 -0.92733005874E+03 -0.27311650369E+03  0.24842385122E+03  0.13445317562E+04  0.90084270052E+03 0.  0.
         23    2    4    4    0    0 -0.86624596510E+03 -0.53887874961E+03  0.13014230474E+03  0.10325255487E+04  0.91649388153E+02 0.  0.
         23    2    4    4    0    0 -0.61084093641E+02  0.26576224592E+03  0.11828154648E+03  0.31200620751E+03  0.94849941660E+02 0.  0.
          2    1    3    3  502    0  0.55324790915E+03  0.20243425534E+03  0.24364947367E+03  0.63751701368E+03  0.00000000000E+00 0. -1.
         -1    1    3    3    0  502  0.37408214959E+03  0.70682248345E+02  0.14203935882E+03  0.40633559323E+03  0.00000000000E+00 0.  1.
         11    1    5    5    0    0 -0.75171406381E+03 -0.42949405019E+03  0.10346819005E+03  0.87192020233E+03  0.00000000000E+00 0. -1.
        -11    1    5    5    0    0 -0.11453190129E+03 -0.10938469941E+03  0.26674114691E+02  0.16060534634E+03  0.00000000000E+00 0.  1.
          1    1    6    6  503    0 -0.10312280609E+02  0.21857267982E+03  0.98197271202E+02  0.23983966221E+03  0.00000000000E+00 0. -1.
         -1    1    6    6    0  503 -0.50771813032E+02  0.47189566095E+02  0.20084275277E+02  0.72166545297E+02  0.00000000000E+00 0.  1.
<mgrwt>
<rscale>  0 0.23026682E+04</rscale>
<asrwt>0</asrwt>
<pdfrwt beam="1">  1        2 0.23249977E+00 0.23026682E+04</pdfrwt>
<pdfrwt beam="2">  1       -1 0.13494398E+00 0.23026682E+04</pdfrwt>
<totfact> 0.59563009E+00</totfact>
</mgrwt>
</event>
<event>
12    6  0.1402540E-007  0.1928160E+04  0.7818608E-02  0.8640965E-01
          2   -1    0    0  501    0  0.00000000000E+00  0.00000000000E+00  0.18031701322E+04  0.18031701322E+04  0.00000000000E+00 0. -1.
         -1   -1    0    0    0  501 -0.00000000000E+00 -0.00000000000E+00 -0.51545320664E+03  0.51545320664E+03  0.00000000000E+00 0.  1.
         24    2    1    2    0    0  0.62444001343E+03 -0.22917510378E+03  0.84839667556E+02  0.67516674580E+03  0.78776943775E+02 0.  0.
        254    2    1    2    0    0 -0.62444001343E+03  0.22917510378E+03  0.12028772580E+04  0.16434565930E+04  0.90088252110E+03 0.  0.
         23    2    4    4    0    0 -0.21173794834E+03  0.38833745886E+02  0.11537964172E+04  0.11772905676E+04  0.91792645143E+02 0.  0.
         23    2    4    4    0    0 -0.41270206509E+03  0.19034135789E+03  0.49080840768E+02  0.46616602538E+03  0.91372902091E+02 0.  0.
          2    1    3    3  502    0  0.40334454193E+03 -0.11877184439E+03  0.79883248900E+02  0.42798937367E+03  0.00000000000E+00 0. -1.
         -1    1    3    3    0  502  0.22109547150E+03 -0.11040325939E+03  0.49564186566E+01  0.24717737212E+03  0.00000000000E+00 0.  1.
         11    1    5    5    0    0 -0.11258215524E+03 -0.15107595144E+02  0.72694646149E+03  0.73576772081E+03  0.00000000000E+00 0. -1.
        -11    1    5    5    0    0 -0.99155793102E+02  0.53941341030E+02  0.42684995572E+03  0.44152284683E+03  0.00000000000E+00 0.  1.
          4    1    6    6  503    0 -0.30056288283E+02  0.39666481295E+02  0.20839525641E+02  0.53954573788E+02  0.00000000000E+00 0. -1.
         -4    1    6    6    0  503 -0.38264577681E+03  0.15067487660E+03  0.28241315127E+02  0.41221145160E+03  0.00000000000E+00 0.  1.
<mgrwt>
<rscale>  0 0.19281596E+04</rscale>
<asrwt>0</asrwt>
<pdfrwt beam="1">  1        2 0.27741079E+00 0.19281596E+04</pdfrwt>
<pdfrwt beam="2">  1       -1 0.79300494E-01 0.19281596E+04</pdfrwt>
<totfact> 0.14534975E+01</totfact>
</mgrwt>
</event>
<event>
12    6  0.1402540E-007  0.2997006E+04  0.7818608E-02  0.8244586E-01
         -1   -1    0    0    0  501 -0.00000000000E+00  0.00000000000E+00  0.95772395239E+03  0.95772395239E+03  0.00000000000E+00 0.  1.
          2   -1    0    0  501    0  0.00000000000E+00 -0.00000000000E+00 -0.23446333800E+04  0.23446333800E+04  0.00000000000E+00 0. -1.
         24    2    1    2    0    0 -0.33864517934E+01 -0.25227171748E+02 -0.21316778144E+04  0.21333252344E+04  0.79864715663E+02 0.  0.
        254    2    1    2    0    0  0.33864517934E+01  0.25227171748E+02  0.74476838682E+03  0.11690320980E+04  0.90072649453E+03 0.  0.
         23    2    4    4    0    0 -0.24879369452E+02  0.16723291070E+03  0.91114989926E+03  0.93100473021E+03  0.89385901002E+02 0.  0.
         23    2    4    4    0    0  0.28265821246E+02 -0.14200573896E+03 -0.16638151244E+03  0.23802736782E+03  0.89496556362E+02 0.  0.
          4    1    3    3  502    0  0.11881763323E+02 -0.42524315723E+02 -0.18974963990E+04  0.18980100310E+04  0.00000000000E+00 0. -1.
         -3    1    3    3    0  502 -0.15268215116E+02  0.17297143974E+02 -0.23418141547E+03  0.23531520337E+03  0.00000000000E+00 0.  1.
         11    1    5    5    0    0 -0.56806020052E+02  0.12048776562E+03  0.58456834839E+03  0.59955348345E+03  0.00000000000E+00 0.  1.
        -11    1    5    5    0    0  0.31926650599E+02  0.46745145088E+02  0.32658155087E+03  0.33145124676E+03  0.00000000000E+00 0. -1.
          4    1    6    6  503    0 -0.24881838985E+02 -0.68860424196E+02 -0.10772613126E+03  0.13025276691E+03  0.00000000000E+00 0. -1.
         -4    1    6    6    0  503  0.53147660231E+02 -0.73145314761E+02 -0.58655381186E+02  0.10777460091E+03  0.00000000000E+00 0.  1.
<mgrwt>
<rscale>  0 0.29970062E+04</rscale>
<asrwt>0</asrwt>
<pdfrwt beam="1">  1        2 0.36071283E+00 0.29970062E+04</pdfrwt>
<pdfrwt beam="2">  1       -1 0.14734215E+00 0.29970062E+04</pdfrwt>
<totfact> 0.15235778E+00</totfact>
</mgrwt>
</event>
<event>
12    6  0.1402540E-007  0.1539240E+04  0.7818608E-02  0.8858770E-01
         -1   -1    0    0    0  501 -0.00000000000E+00  0.00000000000E+00  0.28616025799E+03  0.28616025799E+03  0.00000000000E+00 0.  1.
          2   -1    0    0  501    0  0.00000000000E+00 -0.00000000000E+00 -0.20698703378E+04  0.20698703378E+04  0.00000000000E+00 0. -1.
         24    2    1    2    0    0 -0.27730965183E+03 -0.41715096460E+03 -0.52418163050E+03  0.72919727232E+03  0.77760593791E+02 0.  0.
        254    2    1    2    0    0  0.27730965183E+03  0.41715096460E+03 -0.12595284493E+04  0.16268333235E+04  0.89958833778E+03 0.  0.
         23    2    4    4    0    0  0.36217624954E+03  0.19539728099E+03 -0.91650548863E+02  0.43163136211E+03  0.92488250618E+02 0.  0.
         23    2    4    4    0    0 -0.84866597710E+02  0.22175368361E+03 -0.11678779005E+04  0.11952019614E+04  0.90509129218E+02 0.  0.
          2    1    3    3  502    0 -0.10081916628E+03 -0.11023113684E+03 -0.11795568554E+03  0.19033904374E+03  0.00000000000E+00 0. -1.
         -1    1    3    3    0  502 -0.17649048555E+03 -0.30691982776E+03 -0.40622594496E+03  0.53885822859E+03  0.00000000000E+00 0.  1.
         11    1    5    5    0    0  0.11182371238E+03  0.16247169658E+02 -0.11919508692E+02  0.11362476781E+03  0.00000000000E+00 0. -1.
        -11    1    5    5    0    0  0.25035253716E+03  0.17915011133E+03 -0.79731040170E+02  0.31800659430E+03  0.00000000000E+00 0.  1.
          3    1    6    6  503    0  0.11375484745E+01  0.12318859319E+03 -0.54982537546E+03  0.56345777748E+03  0.00000000000E+00 0. -1.
         -3    1    6    6    0  503 -0.86004146184E+02  0.98565090423E+02 -0.61805252501E+03  0.63174418389E+03  0.00000000000E+00 0.  1.
<mgrwt>
<rscale>  0 0.15392396E+04</rscale>
<asrwt>0</asrwt>
<pdfrwt beam="1">  1        2 0.31844158E+00 0.15392396E+04</pdfrwt>
<pdfrwt beam="2">  1       -1 0.44024656E-01 0.15392396E+04</pdfrwt>
<totfact> 0.34211579E+01</totfact>
</mgrwt>
</event>
<event>
12    6  0.1402540E-007  0.1684811E+04  0.7818608E-02  0.8770075E-01
          2   -1    0    0  501    0  0.00000000000E+00  0.00000000000E+00  0.12827526112E+04  0.12827526112E+04  0.00000000000E+00 0. -1.
         -1   -1    0    0    0  501 -0.00000000000E+00 -0.00000000000E+00 -0.55322214623E+03  0.55322214623E+03  0.00000000000E+00 0.  1.
         24    2    1    2    0    0 -0.48576763436E+03 -0.35567622843E+03  0.33866986886E+03  0.69540747289E+03  0.80115536676E+02 0.  0.
        254    2    1    2    0    0  0.48576763436E+03  0.35567622843E+03  0.39086059609E+03  0.11405672845E+04  0.88636671355E+03 0.  0.
         23    2    4    4    0    0 -0.23663738295E+03  0.19544646923E+03  0.56060158749E+02  0.32323411263E+03  0.84504300644E+02 0.  0.
         23    2    4    4    0    0  0.72240501731E+03  0.16022975921E+03  0.33480043734E+03  0.81733317190E+03  0.91649311381E+02 0.  0.
          2    1    3    3  502    0 -0.29557808273E+03 -0.17690455382E+03  0.21956273501E+03  0.40849653457E+03  0.00000000000E+00 0. -1.
         -1    1    3    3    0  502 -0.19018955162E+03 -0.17877167461E+03  0.11910713385E+03  0.28691093831E+03  0.00000000000E+00 0.  1.
         11    1    5    5    0    0 -0.18857826319E+03  0.11955415207E+03  0.66060873087E+02  0.23284972746E+03  0.00000000000E+00 0.  1.
        -11    1    5    5    0    0 -0.48059119760E+02  0.75892317160E+02 -0.10000714338E+02  0.90384385175E+02  0.00000000000E+00 0. -1.
          2    1    6    6  503    0  0.44491736208E+03  0.88391524813E+02  0.25231942417E+03  0.51906609652E+03  0.00000000000E+00 0. -1.
         -2    1    6    6    0  503  0.27748765522E+03  0.71838234394E+02  0.82481013176E+02  0.29826707538E+03  0.00000000000E+00 0.  1.
<mgrwt>
<rscale>  0 0.16848111E+04</rscale>
<asrwt>0</asrwt>
<pdfrwt beam="1">  1        2 0.19734656E+00 0.16848111E+04</pdfrwt>
<pdfrwt beam="2">  1       -1 0.85111099E-01 0.16848111E+04</pdfrwt>
<totfact> 0.25089999E+01</totfact>
</mgrwt>
</event>
<event>
12    6  0.1402540E-007  0.2840811E+04  0.7818608E-02  0.8290709E-01
          2   -1    0    0  501    0  0.00000000000E+00  0.00000000000E+00  0.28591907928E+04  0.28591907928E+04  0.00000000000E+00 0. -1.
         -3   -1    0    0    0  501 -0.00000000000E+00 -0.00000000000E+00 -0.70563749084E+03  0.70563749084E+03  0.00000000000E+00 0.  1.
         24    2    1    2    0    0 -0.10210076447E+04  0.55758981958E+03  0.16287102689E+04  0.20031373535E+04  0.80616993296E+02 0.  0.
        254    2    1    2    0    0  0.10210076447E+04 -0.55758981958E+03  0.52484303302E+03  0.15616909301E+04  0.90003074080E+03 0.  0.
         23    2    4    4    0    0  0.40767064886E+03  0.34563500152E+01 -0.19272876419E+03  0.46018436214E+03  0.91749475864E+02 0.  0.
         23    2    4    4    0    0  0.61333699584E+03 -0.56104616959E+03  0.71757179720E+03  0.11015065679E+04  0.86327053692E+02 0.  0.
          4    1    3    3  502    0 -0.72536534441E+02  0.50007463527E+02  0.15925770989E+03  0.18200360820E+03  0.00000000000E+00 0. -1.
         -3    1    3    3    0  502 -0.94847111025E+03  0.50758235605E+03  0.14694525590E+04  0.18211337453E+04  0.00000000000E+00 0.  1.
         11    1    5    5    0    0  0.37767271444E+03  0.77376029707E+01 -0.14704070465E+03  0.40536097315E+03  0.00000000000E+00 0. -1.
        -11    1    5    5    0    0  0.29997934419E+02 -0.42812529555E+01 -0.45688059537E+02  0.54823388992E+02  0.00000000000E+00 0.  1.
          4    1    6    6  503    0  0.14203073627E+02 -0.37160403836E+02  0.36768116547E+02  0.54171185220E+02  0.00000000000E+00 0. -1.
         -4    1    6    6    0  503  0.59913392221E+03 -0.52388576576E+03  0.68080368066E+03  0.10473353827E+04  0.00000000000E+00 0.  1.
<mgrwt>
<rscale>  0 0.28408113E+04</rscale>
<asrwt>0</asrwt>
<pdfrwt beam="1">  1        2 0.43987550E+00 0.28408113E+04</pdfrwt>
<pdfrwt beam="2">  1       -3 0.10855962E+00 0.28408113E+04</pdfrwt>
<totfact> 0.84858443E-01</totfact>
</mgrwt>
</event>
<event>
12    6  0.1402540E-007  0.1699307E+04  0.7818608E-02  0.8761760E-01
          2   -1    0    0  501    0  0.00000000000E+00  0.00000000000E+00  0.32771917195E+04  0.32771917195E+04  0.00000000000E+00 0. -1.
         -1   -1    0    0    0  501 -0.00000000000E+00 -0.00000000000E+00 -0.22028343468E+03  0.22028343468E+03  0.00000000000E+00 0.  1.
         24    2    1    2    0    0 -0.57724058873E+03 -0.14833647358E+03  0.13194729727E+04  0.14501004445E+04  0.81067666893E+02 0.  0.
        254    2    1    2    0    0  0.57724058873E+03  0.14833647358E+03  0.17374353121E+04  0.20473747098E+04  0.90435133198E+03 0.  0.
         23    2    4    4    0    0  0.77529272286E+03  0.27050360401E+03  0.14253064534E+04  0.16475447110E+04  0.93027322225E+02 0.  0.
         23    2    4    4    0    0 -0.19805213413E+03 -0.12216713043E+03  0.31212885873E+03  0.39982999877E+03  0.91050249196E+02 0.  0.
          2    1    3    3  502    0 -0.34102927875E+03 -0.95853859389E+02  0.68773817999E+03  0.77361019612E+03  0.00000000000E+00 0. -1.
         -1    1    3    3    0  502 -0.23621130998E+03 -0.52482614187E+02  0.63173479273E+03  0.67649024834E+03  0.00000000000E+00 0.  1.
         11    1    5    5    0    0  0.13401604210E+03  0.40806158352E+02  0.17974353164E+03  0.22788852377E+03  0.00000000000E+00 0.  1.
        -11    1    5    5    0    0  0.64127668076E+03  0.22969744566E+03  0.12455629218E+04  0.14196561872E+04  0.00000000000E+00 0. -1.
          1    1    6    6  503    0 -0.16829849882E+03 -0.82732087588E+02  0.29079175558E+03  0.34601853728E+03  0.00000000000E+00 0.  1.
         -1    1    6    6    0  503 -0.29753635306E+02 -0.39435042845E+02  0.21337103142E+02  0.53811461498E+02  0.00000000000E+00 0. -1.
<mgrwt>
<rscale>  0 0.16993070E+04</rscale>
<asrwt>0</asrwt>
<pdfrwt beam="1">  1        2 0.50418331E+00 0.16993070E+04</pdfrwt>
<pdfrwt beam="2">  1       -1 0.33889762E-01 0.16993070E+04</pdfrwt>
<totfact> 0.10351073E+01</totfact>
</mgrwt>
</event>
<event>
12    6  0.1402540E-007  0.2866871E+04  0.7818608E-02  0.8282803E-01
         -1   -1    0    0    0  501 -0.00000000000E+00  0.00000000000E+00  0.10362415507E+04  0.10362415507E+04  0.00000000000E+00 0.  1.
          2   -1    0    0  501    0  0.00000000000E+00 -0.00000000000E+00 -0.19828749368E+04  0.19828749368E+04  0.00000000000E+00 0. -1.
         24    2    1    2    0    0 -0.10141626774E+04 -0.71279302788E+03 -0.42846710434E+02  0.12428493420E+04  0.78986135567E+02 0.  0.
        254    2    1    2    0    0  0.10141626774E+04  0.71279302788E+03 -0.90378667561E+03  0.17762671455E+04  0.89537410075E+03 0.  0.
         23    2    4    4    0    0  0.48808484852E+03  0.59001181889E+03 -0.95484548635E+03  0.12268361503E+04  0.84001614100E+02 0.  0.
         23    2    4    4    0    0  0.52607782885E+03  0.12278120899E+03  0.51058810738E+02  0.54943099514E+03  0.86222438930E+02 0.  0.
          4    1    3    3  502    0 -0.52008509419E+03 -0.39820128121E+03 -0.51628003362E+02  0.65705267390E+03  0.00000000000E+00 0. -1.
         -3    1    3    3    0  502 -0.49407758318E+03 -0.31459174667E+03  0.87812929275E+01  0.58579666812E+03  0.00000000000E+00 0.  1.
         11    1    5    5    0    0  0.41308054405E+03  0.52922110727E+03 -0.86493640374E+03  0.10949088998E+04  0.00000000000E+00 0. -1.
        -11    1    5    5    0    0  0.75004304467E+02  0.60790711624E+02 -0.89909082607E+02  0.13192725057E+03  0.00000000000E+00 0.  1.
          3    1    6    6  503    0  0.24877487805E+03  0.91231200264E+02 -0.37792043661E+01  0.26500255515E+03  0.00000000000E+00 0. -1.
         -3    1    6    6    0  503  0.27730295080E+03  0.31550008725E+02  0.54838015104E+02  0.28442843999E+03  0.00000000000E+00 0.  1.
<mgrwt>
<rscale>  0 0.28668710E+04</rscale>
<asrwt>0</asrwt>
<pdfrwt beam="1">  1        2 0.30505769E+00 0.28668710E+04</pdfrwt>
<pdfrwt beam="2">  1       -1 0.15942178E+00 0.28668710E+04</pdfrwt>
<totfact> 0.19848859E+00</totfact>
</mgrwt>
</event>
<event>
12    6  0.1402540E-007  0.2837333E+04  0.7818608E-02  0.8291771E-01
         -1   -1    0    0    0  501 -0.00000000000E+00  0.00000000000E+00  0.14275714900E+04  0.14275714900E+04  0.00000000000E+00 0.  1.
          2   -1    0    0  501    0  0.00000000000E+00 -0.00000000000E+00 -0.14098170070E+04  0.14098170070E+04  0.00000000000E+00 0. -1.
         24    2    1    2    0    0 -0.35665498904E+03  0.12117872340E+04  0.17751830161E+03  0.12781959146E+04  0.81492129019E+02 0.  0.
        254    2    1    2    0    0  0.35665498904E+03 -0.12117872340E+04 -0.15976381861E+03  0.15591925824E+04  0.89995885993E+03 0.  0.
         23    2    4    4    0    0 -0.54492062441E+02 -0.11101347037E+04 -0.75355735856E+02  0.11179288169E+04  0.93369735678E+02 0.  0.
         23    2    4    4    0    0  0.41114705148E+03 -0.10165253030E+03 -0.84408082750E+02  0.44126376547E+03  0.90630300833E+02 0.  0.
          4    1    3    3  502    0 -0.10384034705E+03  0.49351888301E+03  0.74389776359E+02  0.50978185961E+03  0.00000000000E+00 0. -1.
         -3    1    3    3    0  502 -0.25281464199E+03  0.71826835101E+03  0.10312852525E+03  0.76841405504E+03  0.00000000000E+00 0.  1.
         11    1    5    5    0    0 -0.73302820398E+02 -0.77359926785E+03 -0.28107381451E+02  0.77757260470E+03  0.00000000000E+00 0. -1.
        -11    1    5    5    0    0  0.18810757956E+02 -0.33653543587E+03 -0.47248354405E+02  0.34035621223E+03  0.00000000000E+00 0.  1.
          2    1    6    6  503    0  0.35461550242E+03 -0.11733225788E+03 -0.82727331945E+02  0.38257394677E+03  0.00000000000E+00 0. -1.
         -2    1    6    6    0  503  0.56531549063E+02  0.15679727582E+02 -0.16807508051E+01  0.58689818707E+02  0.00000000000E+00 0.  1.
<mgrwt>
<rscale>  0 0.28373329E+04</rscale>
<asrwt>0</asrwt>
<pdfrwt beam="1">  1        2 0.21689492E+00 0.28373329E+04</pdfrwt>
<pdfrwt beam="2">  1       -1 0.21962638E+00 0.28373329E+04</pdfrwt>
<totfact> 0.15622230E+00</totfact>
</mgrwt>
</event>
<event>
12    6  0.1402540E-007  0.1918874E+04  0.7818608E-02  0.8645518E-01
          2   -1    0    0  501    0  0.00000000000E+00  0.00000000000E+00  0.26718040686E+04  0.26718040686E+04  0.00000000000E+00 0. -1.
         -1   -1    0    0    0  501 -0.00000000000E+00 -0.00000000000E+00 -0.34453084442E+03  0.34453084442E+03  0.00000000000E+00 0.  1.
         24    2    1    2    0    0 -0.35185864860E+03 -0.65210526027E+03  0.10582836348E+04  0.12930652296E+04  0.54842111569E+02 0.  0.
        254    2    1    2    0    0  0.35185864860E+03  0.65210526027E+03  0.12689895894E+04  0.17232696835E+04  0.90015445611E+03 0.  0.
         23    2    4    4    0    0 -0.28949361113E+03  0.27735967045E+03  0.36885763040E+03  0.55220427393E+03  0.90214582913E+02 0.  0.
         23    2    4    4    0    0  0.64135225973E+03  0.37474558982E+03  0.90013195901E+03  0.11710654095E+04  0.96900317882E+02 0.  0.
          2    1    3    3  502    0 -0.22762007919E+03 -0.36484521542E+03  0.61145730356E+03  0.74753124733E+03  0.00000000000E+00 0. -1.
         -1    1    3    3    0  502 -0.12423856941E+03 -0.28726004485E+03  0.44682633124E+03  0.54553398225E+03  0.00000000000E+00 0.  1.
         11    1    5    5    0    0 -0.25848837978E+03  0.24672573899E+03  0.28267179156E+03  0.45562393978E+03  0.00000000000E+00 0.  1.
        -11    1    5    5    0    0 -0.31005231348E+02  0.30633931462E+02  0.86185838842E+02  0.96580334151E+02  0.00000000000E+00 0. -1.
          1    1    6    6  503    0  0.51352139494E+01  0.16227569574E+02  0.10155110014E+02  0.19819957013E+02  0.00000000000E+00 0. -1.
         -1    1    6    6    0  503  0.63621704578E+03  0.35851802025E+03  0.88997684900E+03  0.11512454525E+04  0.00000000000E+00 0.  1.
<mgrwt>
<rscale>  0 0.19188735E+04</rscale>
<asrwt>0</asrwt>
<pdfrwt beam="1">  1        2 0.41104677E+00 0.19188735E+04</pdfrwt>
<pdfrwt beam="2">  1       -1 0.53004747E-01 0.19188735E+04</pdfrwt>
<totfact> 0.10559601E+01</totfact>
</mgrwt>
</event>
<event>
12    6  0.1402540E-007  0.1258309E+04  0.7818608E-02  0.9063296E-01
         -1   -1    0    0    0  501 -0.00000000000E+00  0.00000000000E+00  0.11449785676E+04  0.11449785676E+04  0.00000000000E+00 0.  1.
          2   -1    0    0  501    0  0.00000000000E+00 -0.00000000000E+00 -0.34571396621E+03  0.34571396621E+03  0.00000000000E+00 0. -1.
         24    2    1    2    0    0  0.64214533982E+00  0.19958519389E+03  0.46193996438E+03  0.50965761362E+03  0.80794123885E+02 0.  0.
        254    2    1    2    0    0 -0.64214533982E+00 -0.19958519389E+03  0.33732463701E+03  0.98103492021E+03  0.89933694573E+03 0.  0.
         23    2    4    4    0    0  0.41423576853E+03 -0.24705313043E+03  0.13246612740E+03  0.50706740525E+03  0.83328010722E+02 0.  0.
         23    2    4    4    0    0 -0.41487791387E+03  0.47467936545E+02  0.20485850962E+03  0.47396751496E+03  0.91111513324E+02 0.  0.
          4    1    3    3  502    0 -0.37511448099E+02  0.12310728011E+03  0.25124692395E+03  0.28228979427E+03  0.00000000000E+00 0. -1.
         -3    1    3    3    0  502  0.38153593439E+02  0.76477913780E+02  0.21069304043E+03  0.22736781935E+03  0.00000000000E+00 0.  1.
         11    1    5    5    0    0  0.25502407265E+03 -0.12049783958E+03  0.10878797009E+03  0.30231081590E+03  0.00000000000E+00 0. -1.
        -11    1    5    5    0    0  0.15921169588E+03 -0.12655529085E+03  0.23678157308E+02  0.20475658935E+03  0.00000000000E+00 0.  1.
          3    1    6    6  503    0 -0.11850706001E+03  0.17042859842E+01  0.16061022385E+02  0.11960260994E+03  0.00000000000E+00 0. -1.
         -3    1    6    6    0  503 -0.29637085385E+03  0.45763650561E+02  0.18879748723E+03  0.35436490502E+03  0.00000000000E+00 0.  1.
<mgrwt>
<rscale>  0 0.12583085E+04</rscale>
<asrwt>0</asrwt>
<pdfrwt beam="1">  1        2 0.53186764E-01 0.12583085E+04</pdfrwt>
<pdfrwt beam="2">  1       -1 0.17615055E+00 0.12583085E+04</pdfrwt>
<totfact> 0.23397151E+01</totfact>
</mgrwt>
</event>
<event>
12    6  0.1402540E-007  0.1247347E+04  0.7818608E-02  0.9072394E-01
         -1   -1    0    0    0  501 -0.00000000000E+00  0.00000000000E+00  0.16663615630E+03  0.16663615630E+03  0.00000000000E+00 0.  1.
          2   -1    0    0  501    0  0.00000000000E+00 -0.00000000000E+00 -0.23342406704E+04  0.23342406704E+04  0.00000000000E+00 0. -1.
         24    2    1    2    0    0 -0.42506463081E+02  0.26929604270E+03 -0.32767760850E+03  0.43374958844E+03  0.80242958198E+02 0.  0.
        254    2    1    2    0    0  0.42506463081E+02 -0.26929604270E+03 -0.18399269056E+04  0.20671272382E+04  0.90186298471E+03 0.  0.
         23    2    4    4    0    0  0.29480936744E+03  0.13577539193E+03 -0.30042509955E+03  0.45279003190E+03  0.97036345608E+02 0.  0.
         23    2    4    4    0    0 -0.25230290436E+03 -0.40507143462E+03 -0.15395018060E+04  0.16143372063E+04  0.90990012137E+02 0.  0.
          4    1    3    3  502    0 -0.65560167608E+02  0.17041694928E+03 -0.21517598673E+03  0.28220697624E+03  0.00000000000E+00 0. -1.
         -3    1    3    3    0  502  0.23053704527E+02  0.98879093423E+02 -0.11250162177E+03  0.15154261219E+03  0.00000000000E+00 0.  1.
         11    1    5    5    0    0  0.12391922082E+03  0.10945630455E+03 -0.15945525903E+03  0.22970118747E+03  0.00000000000E+00 0.  1.
        -11    1    5    5    0    0  0.17089014662E+03  0.26319087371E+02 -0.14096984052E+03  0.22308884443E+03  0.00000000000E+00 0. -1.
          1    1    6    6  503    0 -0.16505290115E+03 -0.22202669662E+03 -0.75633872582E+03  0.80534873338E+03  0.00000000000E+00 0. -1.
         -1    1    6    6    0  503 -0.87250003209E+02 -0.18304473801E+03 -0.78316308020E+03  0.80898847295E+03  0.00000000000E+00 0.  1.
<mgrwt>
<rscale>  0 0.12473474E+04</rscale>
<asrwt>0</asrwt>
<pdfrwt beam="1">  1        2 0.35911392E+00 0.12473474E+04</pdfrwt>
<pdfrwt beam="2">  1       -1 0.25636334E-01 0.12473474E+04</pdfrwt>
<totfact> 0.65395561E+01</totfact>
</mgrwt>
</event>
<event>
12    6  0.1402540E-007  0.1539765E+04  0.7818608E-02  0.8858432E-01
         -1   -1    0    0    0  501 -0.00000000000E+00  0.00000000000E+00  0.36158447187E+03  0.36158447187E+03  0.00000000000E+00 0.  1.
          2   -1    0    0  501    0  0.00000000000E+00 -0.00000000000E+00 -0.16392274276E+04  0.16392274276E+04  0.00000000000E+00 0. -1.
         24    2    1    2    0    0  0.18210930265E+03 -0.42678878027E+03 -0.16490265429E+03  0.49811638371E+03  0.74930536144E+02 0.  0.
        254    2    1    2    0    0 -0.18210930265E+03  0.42678878027E+03 -0.11127403015E+04  0.15026955158E+04  0.89698961732E+03 0.  0.
         23    2    4    4    0    0 -0.36602484261E+03  0.53680382515E+03 -0.43812268018E+03  0.78888358607E+03  0.90847660323E+02 0.  0.
         23    2    4    4    0    0  0.18391553996E+03 -0.11001504488E+03 -0.67461762131E+03  0.71381192973E+03  0.92142824530E+02 0.  0.
          4    1    3    3  502    0  0.11799027737E+03 -0.22594228620E+03 -0.12357541235E+03  0.28327108004E+03  0.00000000000E+00 0. -1.
         -3    1    3    3    0  502  0.64119025286E+02 -0.20084649407E+03 -0.41327241944E+02  0.21484530367E+03  0.00000000000E+00 0.  1.
         11    1    5    5    0    0 -0.11329125693E+03  0.10021988406E+03 -0.11156361065E+03  0.18795045432E+03  0.00000000000E+00 0. -1.
        -11    1    5    5    0    0 -0.25273358568E+03  0.43658394109E+03 -0.32655906953E+03  0.60093313175E+03  0.00000000000E+00 0.  1.
          3    1    6    6  503    0 -0.42237767114E+01 -0.25217566793E+02 -0.10155298276E+03  0.10472236758E+03  0.00000000000E+00 0. -1.
         -3    1    6    6    0  503  0.18813931667E+03 -0.84797478082E+02 -0.57306463855E+03  0.60908956215E+03  0.00000000000E+00 0.  1.
<mgrwt>
<rscale>  0 0.15397652E+04</rscale>
<asrwt>0</asrwt>
<pdfrwt beam="1">  1        2 0.25218884E+00 0.15397652E+04</pdfrwt>
<pdfrwt beam="2">  1       -1 0.55628380E-01 0.15397652E+04</pdfrwt>
<totfact> 0.38026075E+01</totfact>
</mgrwt>
</event>
<event>
12    6  0.1402540E-007  0.2367496E+04  0.7818608E-02  0.8451774E-01
          2   -1    0    0  501    0  0.00000000000E+00  0.00000000000E+00  0.35584030178E+04  0.35584030178E+04  0.00000000000E+00 0. -1.
         -1   -1    0    0    0  501 -0.00000000000E+00 -0.00000000000E+00 -0.39378892331E+03  0.39378892331E+03  0.00000000000E+00 0.  1.
         24    2    1    2    0    0 -0.99889226768E+03  0.47908773419E+02  0.16134126101E+04  0.19001868104E+04  0.86767799360E+02 0.  0.
        254    2    1    2    0    0  0.99889226768E+03 -0.47908773419E+02  0.15512014844E+04  0.20520051307E+04  0.89689352670E+03 0.  0.
         23    2    4    4    0    0 -0.10740321315E+03  0.14664931392E+02 -0.14152466295E+01  0.14240347657E+03  0.92337624007E+02 0.  0.
         23    2    4    4    0    0  0.11062954808E+04 -0.62573704811E+02  0.15526167310E+04  0.19096016541E+04  0.90302849205E+02 0.  0.
          4    1    3    3  502    0 -0.72490186799E+03  0.57499611854E+02  0.12292142016E+04  0.14282004331E+04  0.00000000000E+00 0. -1.
         -3    1    3    3    0  502 -0.27399039970E+03 -0.95908384348E+01  0.38419840849E+03  0.47198637734E+03  0.00000000000E+00 0.  1.
         11    1    5    5    0    0 -0.68182569548E+02 -0.28147384257E+02  0.25977217538E+02  0.78204564200E+02  0.00000000000E+00 0. -1.
        -11    1    5    5    0    0 -0.39220643606E+02  0.42812315649E+02 -0.27392464168E+02  0.64198912369E+02  0.00000000000E+00 0.  1.
          3    1    6    6  503    0  0.91361645819E+03 -0.37188906566E+02  0.13313149933E+04  0.16150782206E+04  0.00000000000E+00 0. -1.
         -3    1    6    6    0  503  0.19267902265E+03 -0.25384798245E+02  0.22130173770E+03  0.29452343346E+03  0.00000000000E+00 0.  1.
<mgrwt>
<rscale>  0 0.23674963E+04</rscale>
<asrwt>0</asrwt>
<pdfrwt beam="1">  1        2 0.54744659E+00 0.23674963E+04</pdfrwt>
<pdfrwt beam="2">  1       -1 0.60582914E-01 0.23674963E+04</pdfrwt>
<totfact> 0.21003116E+00</totfact>
</mgrwt>
</event>
<event>
12    6  0.1402540E-007  0.2241464E+04  0.7818608E-02  0.8501365E-01
          2   -1    0    0  501    0  0.00000000000E+00  0.00000000000E+00  0.98351146471E+03  0.98351146471E+03  0.00000000000E+00 0. -1.
         -1   -1    0    0    0  501 -0.00000000000E+00 -0.00000000000E+00 -0.12770977395E+04  0.12770977395E+04  0.00000000000E+00 0.  1.
         24    2    1    2    0    0  0.61939534572E+02 -0.93418595739E+03 -0.68037687365E+02  0.94200062117E+03  0.78715528643E+02 0.  0.
        254    2    1    2    0    0 -0.61939534572E+02  0.93418595739E+03 -0.22554858741E+03  0.13186085830E+04  0.90073110362E+03 0.  0.
         23    2    4    4    0    0 -0.29663965502E+03  0.91427361837E+03 -0.35937047995E+03  0.10302501685E+04  0.91525589975E+02 0.  0.
         23    2    4    4    0    0  0.23470012044E+03  0.19912339023E+02  0.13382189254E+03  0.28835841455E+03  0.98800954130E+02 0.  0.
          4    1    3    3  502    0  0.32825120784E+02 -0.69840704535E+03 -0.19076694953E+02  0.69943821017E+03  0.00000000000E+00 0. -1.
         -3    1    3    3    0  502  0.29114413788E+02 -0.23577891204E+03 -0.48960992412E+02  0.24256241100E+03  0.00000000000E+00 0.  1.
         11    1    5    5    0    0 -0.16198173122E+03  0.59724877496E+03 -0.19672449914E+03  0.64934175055E+03  0.00000000000E+00 0.  1.
        -11    1    5    5    0    0 -0.13465792380E+03  0.31702484341E+03 -0.16264598080E+03  0.38090841793E+03  0.00000000000E+00 0. -1.
          1    1    6    6  503    0  0.22317073450E+03  0.21012353223E+02  0.14907790685E+03  0.26920423109E+03  0.00000000000E+00 0. -1.
         -1    1    6    6    0  503  0.11529385944E+02 -0.11000141999E+01 -0.15256014309E+02  0.19154183462E+02  0.00000000000E+00 0.  1.
<mgrwt>
<rscale>  0 0.22414640E+04</rscale>
<asrwt>0</asrwt>
<pdfrwt beam="1">  1        2 0.15130946E+00 0.22414640E+04</pdfrwt>
<pdfrwt beam="2">  1       -1 0.19647658E+00 0.22414640E+04</pdfrwt>
<totfact> 0.42693891E+00</totfact>
</mgrwt>
</event>
<event>
12    6  0.1402540E-007  0.2217011E+04  0.7818608E-02  0.8511381E-01
         -1   -1    0    0    0  501 -0.00000000000E+00  0.00000000000E+00  0.70748766132E+03  0.70748766132E+03  0.00000000000E+00 0.  1.
          2   -1    0    0  501    0  0.00000000000E+00 -0.00000000000E+00 -0.17368279059E+04  0.17368279059E+04  0.00000000000E+00 0. -1.
         24    2    1    2    0    0  0.18366210574E+03  0.87416277886E+03 -0.17097364750E+03  0.91293732192E+03  0.79562758802E+02 0.  0.
        254    2    1    2    0    0 -0.18366210574E+03 -0.87416277886E+03 -0.85836659706E+03  0.15313782453E+04  0.90024095783E+03 0.  0.
         23    2    4    4    0    0 -0.29593416379E+02 -0.30549533668E+03  0.15518227991E+03  0.35581223720E+03  0.91201080690E+02 0.  0.
         23    2    4    4    0    0 -0.15406868936E+03 -0.56866744218E+03 -0.10135488770E+04  0.11755660081E+04  0.86915433076E+02 0.  0.
          2    1    3    3  502    0  0.47971341513E+02  0.12347820350E+03 -0.44048710948E+02  0.13960087851E+03  0.00000000000E+00 0. -1.
         -1    1    3    3    0  502  0.13569076422E+03  0.75068457536E+03 -0.12692493655E+03  0.77333644340E+03  0.00000000000E+00 0.  1.
         11    1    5    5    0    0  0.40669181415E+01 -0.33688333498E+02 -0.10737572339E+02  0.35591278381E+02  0.00000000000E+00 0.  1.
        -11    1    5    5    0    0 -0.33660334520E+02 -0.27180700318E+03  0.16591985225E+03  0.32022095882E+03  0.00000000000E+00 0. -1.
          3    1    6    6  503    0 -0.13776995527E+03 -0.51899760960E+03 -0.86532613649E+03  0.10183950127E+04  0.00000000000E+00 0. -1.
         -3    1    6    6    0  503 -0.16298734091E+02 -0.49669832583E+02 -0.14822274048E+03  0.15717099541E+03  0.00000000000E+00 0.  1.
<mgrwt>
<rscale>  0 0.22170109E+04</rscale>
<asrwt>0</asrwt>
<pdfrwt beam="1">  1        2 0.26720429E+00 0.22170109E+04</pdfrwt>
<pdfrwt beam="2">  1       -1 0.10884426E+00 0.22170109E+04</pdfrwt>
<totfact> 0.76077923E+00</totfact>
</mgrwt>
</event>
<event>
12    6  0.1402540E-007  0.2018542E+04  0.7818608E-02  0.8598000E-01
         -1   -1    0    0    0  501 -0.00000000000E+00  0.00000000000E+00  0.14165303023E+04  0.14165303023E+04  0.00000000000E+00 0.  1.
          2   -1    0    0  501    0  0.00000000000E+00 -0.00000000000E+00 -0.71910083633E+03  0.71910083633E+03  0.00000000000E+00 0. -1.
         24    2    1    2    0    0 -0.24992875880E+03 -0.58357673931E+03  0.79778236152E+03  0.10225318879E+04  0.78029290748E+02 0.  0.
        254    2    1    2    0    0  0.24992875880E+03  0.58357673931E+03 -0.10035289558E+03  0.11130992507E+04  0.90878657736E+03 0.  0.
         23    2    4    4    0    0 -0.72582656535E+02  0.79636563875E+02  0.33761504236E+03  0.36580128464E+03  0.90644573363E+02 0.  0.
         23    2    4    4    0    0  0.32251141533E+03  0.50394017544E+03 -0.43796793794E+03  0.74729796610E+03  0.93107583108E+02 0.  0.
          4    1    3    3  502    0 -0.13089402243E+03 -0.28656513418E+03  0.33463363359E+03  0.45960035897E+03  0.00000000000E+00 0. -1.
         -3    1    3    3    0  502 -0.11903473637E+03 -0.29701160513E+03  0.46314872793E+03  0.56293152890E+03  0.00000000000E+00 0.  1.
         11    1    5    5    0    0 -0.10611266857E+02 -0.15561654925E+02  0.10794376303E+03  0.10957472366E+03  0.00000000000E+00 0. -1.
        -11    1    5    5    0    0 -0.61971389678E+02  0.95198218800E+02  0.22967127932E+03  0.25622656097E+03  0.00000000000E+00 0.  1.
          3    1    6    6  503    0 -0.15394377272E+01  0.24387546784E+02 -0.32345455829E+02  0.40538263646E+02  0.00000000000E+00 0. -1.
         -3    1    6    6    0  503  0.32405085306E+03  0.47955262865E+03 -0.40562248211E+03  0.70675970245E+03  0.00000000000E+00 0.  1.
<mgrwt>
<rscale>  0 0.20185422E+04</rscale>
<asrwt>0</asrwt>
<pdfrwt beam="1">  1        2 0.11063090E+00 0.20185422E+04</pdfrwt>
<pdfrwt beam="2">  1       -1 0.21792774E+00 0.20185422E+04</pdfrwt>
<totfact> 0.47633404E+00</totfact>
</mgrwt>
</event>
<event>
12    6  0.1402540E-007  0.2306927E+04  0.7818608E-02  0.8475195E-01
         -1   -1    0    0    0  501 -0.00000000000E+00  0.00000000000E+00  0.11523819778E+04  0.11523819778E+04  0.00000000000E+00 0.  1.
          2   -1    0    0  501    0  0.00000000000E+00 -0.00000000000E+00 -0.11545460894E+04  0.11545460894E+04  0.00000000000E+00 0. -1.
         24    2    1    2    0    0 -0.60796176322E+03 -0.59427896210E+03  0.47772200594E+03  0.97832809852E+03  0.78246808587E+02 0.  0.
        254    2    1    2    0    0  0.60796176322E+03  0.59427896210E+03 -0.47988611759E+03  0.13285999687E+04  0.90116713250E+03 0.  0.
         23    2    4    4    0    0  0.57034053098E+03 -0.54834338480E+02 -0.18118531170E+03  0.60745281136E+03  0.88744999326E+02 0.  0.
         23    2    4    4    0    0  0.37621232240E+02  0.64911330058E+03 -0.29870080588E+03  0.72114715736E+03  0.89819914380E+02 0.  0.
          4    1    3    3  502    0 -0.19765922679E+03 -0.18081310515E+03  0.11077110246E+03  0.28988409075E+03  0.00000000000E+00 0. -1.
         -3    1    3    3    0  502 -0.41030253643E+03 -0.41346585695E+03  0.36695090348E+03  0.68844400777E+03  0.00000000000E+00 0.  1.
         11    1    5    5    0    0  0.54337771720E+03 -0.69113143350E+02 -0.16121197361E+03  0.57098622626E+03  0.00000000000E+00 0.  1.
        -11    1    5    5    0    0  0.26962813775E+02  0.14278804870E+02 -0.19973338088E+02  0.36466585109E+02  0.00000000000E+00 0. -1.
          3    1    6    6  503    0  0.30417626338E+02  0.24231337541E+03 -0.15693678243E+03  0.29029322689E+03  0.00000000000E+00 0. -1.
         -3    1    6    6    0  503  0.72036059021E+01  0.40679992517E+03 -0.14176402345E+03  0.43085393047E+03  0.00000000000E+00 0.  1.
<mgrwt>
<rscale>  0 0.23069271E+04</rscale>
<asrwt>0</asrwt>
<pdfrwt beam="1">  1        2 0.17762247E+00 0.23069271E+04</pdfrwt>
<pdfrwt beam="2">  1       -1 0.17728954E+00 0.23069271E+04</pdfrwt>
<totfact> 0.45365271E+00</totfact>
</mgrwt>
</event>
<event>
12    6  0.1402540E-007  0.1344409E+04  0.7818608E-02  0.8995071E-01
         -1   -1    0    0    0  501 -0.00000000000E+00  0.00000000000E+00  0.25780757651E+03  0.25780757651E+03  0.00000000000E+00 0.  1.
          2   -1    0    0  501    0  0.00000000000E+00 -0.00000000000E+00 -0.17526982797E+04  0.17526982797E+04  0.00000000000E+00 0. -1.
         24    2    1    2    0    0  0.16359638936E+02 -0.30691251031E+03 -0.12123396402E+03  0.34007275514E+03  0.80553572156E+02 0.  0.
        254    2    1    2    0    0 -0.16359638936E+02  0.30691251031E+03 -0.13736567392E+04  0.16704331011E+04  0.89941702306E+03 0.  0.
         23    2    4    4    0    0  0.34263201136E+03 -0.12576587443E+03 -0.61520481762E+03  0.72248219206E+03  0.10143865063E+03 0.  0.
         23    2    4    4    0    0 -0.35899165030E+03  0.43267838474E+03 -0.75845192160E+03  0.94795090906E+03  0.85299583891E+02 0.  0.
          2    1    3    3  502    0  0.38155974220E+02 -0.18905917263E+03 -0.10358852731E+03  0.21892882888E+03  0.00000000000E+00 0. -1.
         -1    1    3    3    0  502 -0.21796335284E+02 -0.11785333767E+03 -0.17645436713E+02  0.12114392626E+03  0.00000000000E+00 0.  1.
         11    1    5    5    0    0  0.14109277245E+03 -0.19086923494E+02 -0.16586432313E+03  0.21859198241E+03  0.00000000000E+00 0. -1.
        -11    1    5    5    0    0  0.20153923891E+03 -0.10667895094E+03 -0.44934049448E+03  0.50389020964E+03  0.00000000000E+00 0.  1.
          4    1    6    6  503    0 -0.36158348784E+03  0.43455542031E+03 -0.75556037720E+03  0.94363791551E+03  0.00000000000E+00 0. -1.
         -4    1    6    6    0  503  0.25918375412E+01 -0.18770355683E+01 -0.28915444006E+01  0.43129935527E+01  0.00000000000E+00 0.  1.
<mgrwt>
<rscale>  0 0.13444090E+04</rscale>
<asrwt>0</asrwt>
<pdfrwt beam="1">  1        2 0.26964590E+00 0.13444090E+04</pdfrwt>
<pdfrwt beam="2">  1       -1 0.39662702E-01 0.13444090E+04</pdfrwt>
<totfact> 0.63129384E+01</totfact>
</mgrwt>
</event>
<event>
12    6  0.1402540E-007  0.3608889E+04  0.7818608E-02  0.8088459E-01
          2   -1    0    0  501    0  0.00000000000E+00  0.00000000000E+00  0.42188967615E+04  0.42188967615E+04  0.00000000000E+00 0. -1.
         -1   -1    0    0    0  501 -0.00000000000E+00 -0.00000000000E+00 -0.77177064097E+03  0.77177064097E+03  0.00000000000E+00 0.  1.
         24    2    1    2    0    0 -0.15810078382E+04  0.46264371381E+03  0.21453739535E+04  0.27061465848E+04  0.83516151129E+02 0.  0.
        254    2    1    2    0    0  0.15810078382E+04 -0.46264371381E+03  0.13017521670E+04  0.22845208177E+04  0.90047302668E+03 0.  0.
         23    2    4    4    0    0 -0.82856369566E+02  0.26046896849E+02  0.17369987256E+03  0.21385470968E+03  0.89546481296E+02 0.  0.
         23    2    4    4    0    0  0.16638642078E+04 -0.48869061066E+03  0.11280522945E+04  0.20706661080E+04  0.88845579600E+02 0.  0.
          2    1    3    3  502    0 -0.10667824563E+04  0.27203439909E+03  0.14451030878E+04  0.18166866702E+04  0.00000000000E+00 0. -1.
         -1    1    3    3    0  502 -0.51422538193E+03  0.19060931473E+03  0.70027086577E+03  0.88945991463E+03  0.00000000000E+00 0.  1.
         11    1    5    5    0    0 -0.15379023256E+02  0.39025349751E+02  0.22106717012E+02  0.47415179179E+02  0.00000000000E+00 0.  1.
        -11    1    5    5    0    0 -0.67477346311E+02 -0.12978452902E+02  0.15159315555E+03  0.16643953051E+03  0.00000000000E+00 0. -1.
          1    1    6    6  503    0  0.13966847575E+04 -0.41070773036E+03  0.98492885302E+03  0.17576956498E+04  0.00000000000E+00 0. -1.
         -1    1    6    6    0  503  0.26717945023E+03 -0.77982880298E+02  0.14312344145E+03  0.31297045825E+03  0.00000000000E+00 0.  1.
<mgrwt>
<rscale>  0 0.36088894E+04</rscale>
<asrwt>0</asrwt>
<pdfrwt beam="1">  1        2 0.64906102E+00 0.36088894E+04</pdfrwt>
<pdfrwt beam="2">  1       -1 0.11873395E+00 0.36088894E+04</pdfrwt>
<totfact> 0.13095490E-01</totfact>
</mgrwt>
</event>
<event>
12    6  0.1402540E-007  0.1689416E+04  0.7818608E-02  0.8767424E-01
         -1   -1    0    0    0  501 -0.00000000000E+00  0.00000000000E+00  0.17571165067E+04  0.17571165067E+04  0.00000000000E+00 0.  1.
          2   -1    0    0  501    0  0.00000000000E+00 -0.00000000000E+00 -0.40608114818E+03  0.40608114818E+03  0.00000000000E+00 0. -1.
         24    2    1    2    0    0  0.15327827331E+03  0.31020581302E+03  0.11147937328E+04  0.11700846415E+04  0.81308830984E+02 0.  0.
        254    2    1    2    0    0 -0.15327827331E+03 -0.31020581302E+03  0.23624162568E+03  0.99311301338E+03  0.90041183696E+03 0.  0.
         23    2    4    4    0    0 -0.28038587339E+03 -0.23392854469E+03  0.53077488139E+03  0.65065004800E+03  0.91020372620E+02 0.  0.
         23    2    4    4    0    0  0.12710760008E+03 -0.76277268329E+02 -0.29453325571E+03  0.34246296538E+03  0.92501244711E+02 0.  0.
          4    1    3    3  502    0  0.14218808021E+03  0.23500507489E+03  0.78575102777E+03  0.83237582439E+03  0.00000000000E+00 0. -1.
         -3    1    3    3    0  502  0.11090193096E+02  0.75200738128E+02  0.32904270505E+03  0.33770881710E+03  0.00000000000E+00 0.  1.
         11    1    5    5    0    0 -0.18797197752E+03 -0.12769086937E+03  0.39105440148E+03  0.45228527211E+03  0.00000000000E+00 0.  1.
        -11    1    5    5    0    0 -0.92413895872E+02 -0.10623767532E+03  0.13972047991E+03  0.19836477589E+03  0.00000000000E+00 0. -1.
          1    1    6    6  503    0  0.49408140163E+02 -0.25756112637E+02 -0.32458811147E+02  0.64483455814E+02  0.00000000000E+00 0. -1.
         -1    1    6    6    0  503  0.77699459920E+02 -0.50521155692E+02 -0.26207444456E+03  0.27797950956E+03  0.00000000000E+00 0.  1.
<mgrwt>
<rscale>  0 0.16894163E+04</rscale>
<asrwt>0</asrwt>
<pdfrwt beam="1">  1        2 0.62474024E-01 0.16894163E+04</pdfrwt>
<pdfrwt beam="2">  1       -1 0.27032561E+00 0.16894163E+04</pdfrwt>
<totfact> 0.43806793E+00</totfact>
</mgrwt>
</event>
<event>
12    6  0.1402540E-007  0.1801529E+04  0.7818608E-02  0.8705487E-01
          2   -1    0    0  501    0  0.00000000000E+00  0.00000000000E+00  0.17986259245E+04  0.17986259245E+04  0.00000000000E+00 0. -1.
         -1   -1    0    0    0  501 -0.00000000000E+00 -0.00000000000E+00 -0.45110898781E+03  0.45110898781E+03  0.00000000000E+00 0.  1.
         24    2    1    2    0    0 -0.20543101907E+03  0.59011065255E+02 -0.29007180370E+03  0.36925584967E+03  0.80771416940E+02 0.  0.
        254    2    1    2    0    0  0.20543101907E+03 -0.59011065255E+02  0.16375887404E+04  0.18804790626E+04  0.89934443506E+03 0.  0.
         23    2    4    4    0    0 -0.12702066708E+02  0.36067116925E+03  0.10878165508E+04  0.11495593883E+04  0.88864527402E+02 0.  0.
         23    2    4    4    0    0  0.21813308578E+03 -0.41968223451E+03  0.54977218957E+03  0.73091967429E+03  0.90988399090E+02 0.  0.
          4    1    3    3  502    0 -0.25280220348E+02 -0.15211990089E+02 -0.17827803082E+02  0.34472086477E+02  0.00000000000E+00 0. -1.
         -3    1    3    3    0  502 -0.18015079872E+03  0.74223055345E+02 -0.27224400062E+03  0.33478376320E+03  0.00000000000E+00 0.  1.
         11    1    5    5    0    0 -0.17835771817E+02  0.36008133037E+03  0.10254566243E+04  0.10869857256E+04  0.00000000000E+00 0.  1.
        -11    1    5    5    0    0  0.51337051089E+01  0.58983888363E+00  0.62359926456E+02  0.62573662715E+02  0.00000000000E+00 0. -1.
          1    1    6    6  503    0  0.30532304947E+02 -0.16279409008E+02  0.23650049557E+02  0.41911402351E+02  0.00000000000E+00 0. -1.
         -1    1    6    6    0  503  0.18760078083E+03 -0.40340282550E+03  0.52612214001E+03  0.68900827194E+03  0.00000000000E+00 0.  1.
<mgrwt>
<rscale>  0 0.18015286E+04</rscale>
<asrwt>0</asrwt>
<pdfrwt beam="1">  1        2 0.27671168E+00 0.18015286E+04</pdfrwt>
<pdfrwt beam="2">  1       -1 0.69401384E-01 0.18015286E+04</pdfrwt>
<totfact> 0.19515095E+01</totfact>
</mgrwt>
</event>
<event>
12    6  0.1402540E-007  0.2581119E+04  0.7818608E-02  0.8374643E-01
         -1   -1    0    0    0  501 -0.00000000000E+00  0.00000000000E+00  0.67218517668E+03  0.67218517668E+03  0.00000000000E+00 0.  1.
          2   -1    0    0  501    0  0.00000000000E+00 -0.00000000000E+00 -0.24778045158E+04  0.24778045158E+04  0.00000000000E+00 0. -1.
         24    2    1    2    0    0 -0.74292010768E+03 -0.85404364394E+03 -0.76595927237E+03  0.13690734067E+04  0.79671538064E+02 0.  0.
        254    2    1    2    0    0  0.74292010768E+03  0.85404364394E+03 -0.10396600667E+04  0.17809162857E+04  0.89969379806E+03 0.  0.
         23    2    4    4    0    0  0.46645492822E+03  0.46107046477E+03 -0.34238873533E+02  0.66277569755E+03  0.89068239350E+02 0.  0.
         23    2    4    4    0    0  0.27646517946E+03  0.39297317916E+03 -0.10054211932E+04  0.11181405882E+04  0.92226266293E+02 0.  0.
          2    1    3    3  502    0 -0.31734419437E+03 -0.31295519989E+03 -0.27836197962E+03  0.52548424004E+03  0.00000000000E+00 0. -1.
         -1    1    3    3    0  502 -0.42557591330E+03 -0.54108844405E+03 -0.48759729276E+03  0.84358916670E+03  0.00000000000E+00 0.  1.
         11    1    5    5    0    0  0.15078878970E+03  0.10568202505E+03 -0.35025138405E+02  0.18743721573E+03  0.00000000000E+00 0.  1.
        -11    1    5    5    0    0  0.31566613851E+03  0.35538843972E+03  0.78626487207E+00  0.47533848182E+03  0.00000000000E+00 0. -1.
          1    1    6    6  503    0  0.13302733187E+03  0.11530908167E+03 -0.39095830909E+03  0.42876666706E+03  0.00000000000E+00 0. -1.
         -1    1    6    6    0  503  0.14343784759E+03  0.27766409749E+03 -0.61446288412E+03  0.68937392112E+03  0.00000000000E+00 0.  1.
<mgrwt>
<rscale>  0 0.25811187E+04</rscale>
<asrwt>0</asrwt>
<pdfrwt beam="1">  1        2 0.38120069E+00 0.25811187E+04</pdfrwt>
<pdfrwt beam="2">  1       -1 0.10341310E+00 0.25811187E+04</pdfrwt>
<totfact> 0.31859627E+00</totfact>
</mgrwt>
</event>
<event>
12    6  0.1402540E-007  0.4138977E+04  0.7818608E-02  0.7977083E-01
          2   -1    0    0  501    0  0.00000000000E+00  0.00000000000E+00  0.23886586203E+04  0.23886586203E+04  0.00000000000E+00 0. -1.
         -1   -1    0    0    0  501 -0.00000000000E+00 -0.00000000000E+00 -0.17929657140E+04  0.17929657140E+04  0.00000000000E+00 0.  1.
         24    2    1    2    0    0 -0.17850435508E+04  0.47319719117E+03 -0.41191299136E+03  0.18938118245E+04  0.80962055440E+02 0.  0.
        254    2    1    2    0    0  0.17850435508E+04 -0.47319719117E+03  0.10076058976E+04  0.22878125097E+04  0.89917761033E+03 0.  0.
         23    2    4    4    0    0  0.17607009126E+04 -0.54356198676E+03  0.72610440265E+03  0.19827297638E+04  0.91991171862E+02 0.  0.
         23    2    4    4    0    0  0.24342638199E+02  0.70364795587E+02  0.28150149499E+03  0.30508274596E+03  0.91041867875E+02 0.  0.
          4    1    3    3  502    0 -0.10618853603E+04  0.28279893535E+03 -0.20433940546E+03  0.11177344715E+04  0.00000000000E+00 0. -1.
         -3    1    3    3    0  502 -0.72315819049E+03  0.19039825582E+03 -0.20757358590E+03  0.77607735301E+03  0.00000000000E+00 0.  1.
         11    1    5    5    0    0  0.41840076885E+03 -0.14131167255E+03  0.13409660197E+03  0.46153016243E+03  0.00000000000E+00 0. -1.
        -11    1    5    5    0    0  0.13423001437E+04 -0.40225031421E+03  0.59200780068E+03  0.15211996013E+04  0.00000000000E+00 0.  1.
          2    1    6    6  503    0  0.49987808698E+02  0.72295775379E+02  0.17915401068E+03  0.19955355095E+03  0.00000000000E+00 0. -1.
         -2    1    6    6    0  503 -0.25645170499E+02 -0.19309797926E+01  0.10234748432E+03  0.10552919501E+03  0.00000000000E+00 0.  1.
<mgrwt>
<rscale>  0 0.41389772E+04</rscale>
<asrwt>0</asrwt>
<pdfrwt beam="1">  1        2 0.36748594E+00 0.41389772E+04</pdfrwt>
<pdfrwt beam="2">  1       -1 0.27584088E+00 0.41389772E+04</pdfrwt>
<totfact> 0.16949808E-01</totfact>
</mgrwt>
</event>
<event>
12    6  0.1402540E-007  0.1312613E+04  0.7818608E-02  0.9019622E-01
         -1   -1    0    0    0  501 -0.00000000000E+00  0.00000000000E+00  0.74173880352E+03  0.74173880352E+03  0.00000000000E+00 0.  1.
          2   -1    0    0  501    0  0.00000000000E+00 -0.00000000000E+00 -0.58071452076E+03  0.58071452076E+03  0.00000000000E+00 0. -1.
         24    2    1    2    0    0 -0.18530702727E+03  0.19443979540E+03 -0.16907641461E+03  0.32793416238E+03  0.82513347300E+02 0.  0.
        254    2    1    2    0    0  0.18530702727E+03 -0.19443979540E+03  0.33010069737E+03  0.99451916191E+03  0.89886392997E+03 0.  0.
         23    2    4    4    0    0  0.26776145641E+03  0.29834257018E+03  0.25043394635E+03  0.48041308270E+03  0.85878296581E+02 0.  0.
         23    2    4    4    0    0 -0.82454429140E+02 -0.49278236559E+03  0.79666751022E+02  0.51410607921E+03  0.91241858497E+02 0.  0.
          4    1    3    3  502    0 -0.33436865785E+02  0.40375815641E+02 -0.76234520655E+02  0.92519903922E+02  0.00000000000E+00 0. -1.
         -3    1    3    3    0  502 -0.15187016149E+03  0.15406397976E+03 -0.92841893959E+02  0.23541425846E+03  0.00000000000E+00 0.  1.
         11    1    5    5    0    0  0.32447507758E+02  0.71885476668E+01  0.35981822874E+02  0.48981706326E+02  0.00000000000E+00 0. -1.
        -11    1    5    5    0    0  0.23531394865E+03  0.29115402252E+03  0.21445212348E+03  0.43143137638E+03  0.00000000000E+00 0.  1.
          2    1    6    6  503    0 -0.51067555379E+02 -0.15318560482E+03 -0.90003839199E+01  0.16172424570E+03  0.00000000000E+00 0. -1.
         -2    1    6    6    0  503 -0.31386873761E+02 -0.33959676077E+03  0.88667134942E+02  0.35238183351E+03  0.00000000000E+00 0.  1.
<mgrwt>
<rscale>  0 0.13126134E+04</rscale>
<asrwt>0</asrwt>
<pdfrwt beam="1">  1        2 0.89340695E-01 0.13126134E+04</pdfrwt>
<pdfrwt beam="2">  1       -1 0.11411366E+00 0.13126134E+04</pdfrwt>
<totfact> 0.40398282E+01</totfact>
</mgrwt>
</event>
<event>
12    6  0.1402540E-007  0.3129249E+04  0.7818608E-02  0.8207756E-01
          2   -1    0    0  501    0  0.00000000000E+00  0.00000000000E+00  0.11834439744E+04  0.11834439744E+04  0.00000000000E+00 0. -1.
         -1   -1    0    0    0  501 -0.00000000000E+00 -0.00000000000E+00 -0.20685814629E+04  0.20685814629E+04  0.00000000000E+00 0.  1.
         24    2    1    2    0    0  0.13666967823E+04 -0.20414168480E+03 -0.78629681511E+01  0.13841957061E+04  0.80012525592E+02 0.  0.
        254    2    1    2    0    0 -0.13666967823E+04  0.20414168480E+03 -0.87727452033E+03  0.18678297312E+04  0.89980186632E+03 0.  0.
         23    2    4    4    0    0 -0.41007310344E+03 -0.33829663139E+03 -0.36051038360E+03  0.64934602761E+03  0.95278360157E+02 0.  0.
         23    2    4    4    0    0 -0.95662367883E+03  0.54243831620E+03 -0.51676413673E+03  0.12184837036E+04  0.91044896340E+02 0.  0.
          2    1    3    3  502    0  0.53414517241E+03 -0.40809522000E+02 -0.87563981082E+01  0.53577341928E+03  0.00000000000E+00 0. -1.
         -1    1    3    3    0  502  0.83255160987E+03 -0.16333216280E+03  0.89342995706E+00  0.84842228678E+03  0.00000000000E+00 0.  1.
         11    1    5    5    0    0 -0.38641929596E+03 -0.33954839406E+03 -0.33182280486E+03  0.61214324959E+03  0.00000000000E+00 0. -1.
        -11    1    5    5    0    0 -0.23653807488E+02  0.12517626685E+01 -0.28687578742E+02  0.37202778022E+02  0.00000000000E+00 0.  1.
          2    1    6    6  503    0 -0.38940458716E+03  0.26137942693E+03 -0.25087327316E+03  0.53187642974E+03  0.00000000000E+00 0. -1.
         -2    1    6    6    0  503 -0.56721909167E+03  0.28105888927E+03 -0.26589086357E+03  0.68660727386E+03  0.00000000000E+00 0.  1.
<mgrwt>
<rscale>  0 0.31292493E+04</rscale>
<asrwt>0</asrwt>
<pdfrwt beam="1">  1        2 0.18206830E+00 0.31292493E+04</pdfrwt>
<pdfrwt beam="2">  1       -1 0.31824330E+00 0.31292493E+04</pdfrwt>
<totfact> 0.46980692E-01</totfact>
</mgrwt>
</event>
<event>
12    6  0.1402540E-007  0.1352019E+04  0.7818608E-02  0.8989301E-01
         -1   -1    0    0    0  501 -0.00000000000E+00  0.00000000000E+00  0.41537585306E+03  0.41537585306E+03  0.00000000000E+00 0.  1.
          2   -1    0    0  501    0  0.00000000000E+00 -0.00000000000E+00 -0.11001820360E+04  0.11001820360E+04  0.00000000000E+00 0. -1.
         24    2    1    2    0    0 -0.19567245814E+03  0.21929044045E+03  0.57296764088E+02  0.31037528323E+03  0.81693874420E+02 0.  0.
        254    2    1    2    0    0  0.19567245814E+03 -0.21929044045E+03 -0.74210294706E+03  0.12051826059E+04  0.90297969040E+03 0.  0.
         23    2    4    4    0    0 -0.11054232810E+02  0.26727098822E+03 -0.57948619638E+03  0.64431988545E+03  0.88248998745E+02 0.  0.
         23    2    4    4    0    0  0.20672669095E+03 -0.48656142867E+03 -0.16261675068E+03  0.56086272041E+03  0.92977604414E+02 0.  0.
          4    1    3    3  502    0 -0.17237387902E+03  0.14865519839E+03  0.61799034158E+02  0.23586064276E+03  0.00000000000E+00 0. -1.
         -3    1    3    3    0  502 -0.23298579119E+02  0.70635242054E+02 -0.45022700701E+01  0.74514640472E+02  0.00000000000E+00 0.  1.
         11    1    5    5    0    0 -0.15739234262E+01  0.61858289380E+02 -0.23608180498E+03  0.24405643577E+03  0.00000000000E+00 0. -1.
        -11    1    5    5    0    0 -0.94803093835E+01  0.20541269884E+03 -0.34340439140E+03  0.40026344967E+03  0.00000000000E+00 0.  1.
          3    1    6    6  503    0  0.15499347046E+03 -0.29947474720E+03 -0.14120572623E+03  0.36557784016E+03  0.00000000000E+00 0. -1.
         -3    1    6    6    0  503  0.51733220496E+02 -0.18708668147E+03 -0.21411024444E+02  0.19528488025E+03  0.00000000000E+00 0.  1.
<mgrwt>
<rscale>  0 0.13520193E+04</rscale>
<asrwt>0</asrwt>
<pdfrwt beam="1">  1        2 0.16925878E+00 0.13520193E+04</pdfrwt>
<pdfrwt beam="2">  1       -1 0.63903977E-01 0.13520193E+04</pdfrwt>
<totfact> 0.60250338E+01</totfact>
</mgrwt>
</event>
<event>
12    6  0.1402540E-007  0.2808863E+04  0.7818608E-02  0.8300522E-01
         -1   -1    0    0    0  501 -0.00000000000E+00  0.00000000000E+00  0.21305648407E+04  0.21305648407E+04  0.00000000000E+00 0.  1.
          2   -1    0    0  501    0  0.00000000000E+00 -0.00000000000E+00 -0.92577714266E+03  0.92577714266E+03  0.00000000000E+00 0. -1.
         24    2    1    2    0    0  0.10953499688E+04  0.54345678547E+03  0.86487955205E+03  0.15000277727E+04  0.83245706040E+02 0.  0.
        254    2    1    2    0    0 -0.10953499688E+04 -0.54345678547E+03  0.33990814595E+03  0.15563142106E+04  0.90079939089E+03 0.  0.
         23    2    4    4    0    0 -0.11569644181E+04 -0.59134196930E+03  0.12063887027E+03  0.13081084249E+04  0.91334137694E+02 0.  0.
         23    2    4    4    0    0  0.61614449354E+02  0.47885183834E+02  0.21926927568E+03  0.24820578572E+03  0.86242481466E+02 0.  0.
          4    1    3    3  502    0  0.73182999472E+03  0.40554467639E+03  0.58145183694E+03  0.10188855993E+04  0.00000000000E+00 0. -1.
         -3    1    3    3    0  502  0.36351997408E+03  0.13791210908E+03  0.28342771511E+03  0.48114217346E+03  0.00000000000E+00 0.  1.
         11    1    5    5    0    0 -0.10819604415E+04 -0.56509123287E+03  0.13230667702E+03  0.12277913321E+04  0.00000000000E+00 0. -1.
        -11    1    5    5    0    0 -0.75003976627E+02 -0.26250736430E+02 -0.11667806743E+02  0.80317092746E+02  0.00000000000E+00 0.  1.
          1    1    6    6  503    0  0.68569148734E+02  0.64202232430E+02  0.20480235901E+03  0.22531680155E+03  0.00000000000E+00 0. -1.
         -1    1    6    6    0  503 -0.69546993792E+01 -0.16317048596E+02  0.14466916671E+02  0.22888984169E+02  0.00000000000E+00 0.  1.
<mgrwt>
<rscale>  0 0.28088633E+04</rscale>
<asrwt>0</asrwt>
<pdfrwt beam="1">  1        2 0.14242725E+00 0.28088633E+04</pdfrwt>
<pdfrwt beam="2">  1       -1 0.32777921E+00 0.28088633E+04</pdfrwt>
<totfact> 0.60787480E-01</totfact>
</mgrwt>
</event>
<event>
12    6  0.1402540E-007  0.6646911E+04  0.7818608E-02  0.7614988E-01
         -1   -1    0    0    0  501 -0.00000000000E+00  0.00000000000E+00  0.22724576765E+04  0.22724576765E+04  0.00000000000E+00 0.  1.
          2   -1    0    0  501    0  0.00000000000E+00 -0.00000000000E+00 -0.48605326938E+04  0.48605326938E+04  0.00000000000E+00 0. -1.
         24    2    1    2    0    0 -0.28269666158E+04  0.15516543590E+04 -0.17976582365E+04  0.36928563436E+04  0.79002165799E+02 0.  0.
        254    2    1    2    0    0  0.28269666158E+04 -0.15516543590E+04 -0.79041678087E+03  0.34401340267E+04  0.90021771669E+03 0.  0.
         23    2    4    4    0    0  0.77925529915E+02 -0.90513742898E+02  0.12172794559E+03  0.19471605015E+03  0.93976175607E+02 0.  0.
         23    2    4    4    0    0  0.27490410859E+04 -0.14611406161E+04 -0.91214472646E+03  0.32454179766E+04  0.92579957524E+02 0.  0.
          2    1    3    3  502    0 -0.21500239265E+04  0.12182384373E+04 -0.13765807057E+04  0.28287244853E+04  0.00000000000E+00 0. -1.
         -1    1    3    3    0  502 -0.67694268935E+03  0.33341592177E+03 -0.42107753081E+03  0.86413185829E+03  0.00000000000E+00 0.  1.
         11    1    5    5    0    0  0.27256243311E+01 -0.47397412755E+01  0.68708122630E+02  0.68925324016E+02  0.00000000000E+00 0. -1.
        -11    1    5    5    0    0  0.75199905584E+02 -0.85774001623E+02  0.53019822960E+02  0.12579072613E+03  0.00000000000E+00 0.  1.
          4    1    6    6  503    0  0.16827232332E+04 -0.88541282160E+03 -0.51070552669E+03  0.19688406434E+04  0.00000000000E+00 0. -1.
         -4    1    6    6    0  503  0.10663178527E+04 -0.57572779455E+03 -0.40143919976E+03  0.12765773332E+04  0.00000000000E+00 0.  1.
<mgrwt>
<rscale>  0 0.66469105E+04</rscale>
<asrwt>0</asrwt>
<pdfrwt beam="1">  1        2 0.74777425E+00 0.66469105E+04</pdfrwt>
<pdfrwt beam="2">  1       -1 0.34960888E+00 0.66469105E+04</pdfrwt>
<totfact> 0.56530190E-04</totfact>
</mgrwt>
</event>
<event>
12    6  0.1402540E-007  0.1764395E+04  0.7818608E-02  0.8725466E-01
         -3   -1    0    0    0  501 -0.00000000000E+00  0.00000000000E+00  0.69739756753E+03  0.69739756753E+03  0.00000000000E+00 0.  1.
          2   -1    0    0  501    0  0.00000000000E+00 -0.00000000000E+00 -0.11159668166E+04  0.11159668166E+04  0.00000000000E+00 0. -1.
         24    2    1    2    0    0  0.41949908819E+03 -0.47953054900E+03 -0.28200002235E+03  0.70137949530E+03  0.80499387621E+02 0.  0.
        254    2    1    2    0    0 -0.41949908819E+03  0.47953054900E+03 -0.13656922671E+03  0.11119848888E+04  0.90107169908E+03 0.  0.
         23    2    4    4    0    0  0.16476718323E+03  0.41161954572E+03  0.11335865675E+03  0.46664820124E+03  0.91276960772E+02 0.  0.
         23    2    4    4    0    0 -0.58426627142E+03  0.67911003275E+02 -0.24992788346E+03  0.64533668759E+03  0.89534982724E+02 0.  0.
          4    1    3    3  502    0  0.16592128316E+03 -0.24878336247E+03 -0.12061540277E+03  0.32244551328E+03  0.00000000000E+00 0. -1.
         -3    1    3    3    0  502  0.25357780503E+03 -0.23074718653E+03 -0.16138461958E+03  0.37893398202E+03  0.00000000000E+00 0.  1.
         11    1    5    5    0    0  0.93216004913E+02  0.12005787322E+03  0.48079205069E+02  0.15941996880E+03  0.00000000000E+00 0. -1.
        -11    1    5    5    0    0  0.71551178320E+02  0.29156167251E+03  0.65279451681E+02  0.30722823244E+03  0.00000000000E+00 0.  1.
          4    1    6    6  503    0 -0.15740696163E+03  0.58368636153E+02 -0.76602794297E+02  0.18453139936E+03  0.00000000000E+00 0. -1.
         -4    1    6    6    0  503 -0.42685930979E+03  0.95423671219E+01 -0.17332508916E+03  0.46080528823E+03  0.00000000000E+00 0.  1.
<mgrwt>
<rscale>  0 0.17643951E+04</rscale>
<asrwt>0</asrwt>
<pdfrwt beam="1">  1        2 0.17168720E+00 0.17643951E+04</pdfrwt>
<pdfrwt beam="2">  1       -3 0.10729193E+00 0.17643951E+04</pdfrwt>
<totfact> 0.94622544E+00</totfact>
</mgrwt>
</event>
<event>
12    6  0.1402540E-007  0.2347012E+04  0.7818608E-02  0.8459612E-01
          2   -1    0    0  501    0  0.00000000000E+00  0.00000000000E+00  0.16944114237E+04  0.16944114237E+04  0.00000000000E+00 0. -1.
         -1   -1    0    0    0  501 -0.00000000000E+00 -0.00000000000E+00 -0.81274008731E+03  0.81274008731E+03  0.00000000000E+00 0.  1.
         24    2    1    2    0    0 -0.99326329359E+03 -0.86218020697E+02  0.31256414484E+03  0.10479139818E+04  0.80136453793E+02 0.  0.
        254    2    1    2    0    0  0.99326329359E+03  0.86218020697E+02  0.56910719150E+03  0.14592375291E+04  0.90082498495E+03 0.  0.
         23    2    4    4    0    0  0.97931343357E+03 -0.18502737307E+03  0.60584640755E+03  0.11699801092E+04  0.92269477756E+02 0.  0.
         23    2    4    4    0    0  0.13949860018E+02  0.27124539377E+03 -0.36739216052E+02  0.28925741988E+03  0.92473902931E+02 0.  0.
          4    1    3    3  502    0 -0.98302615450E+03 -0.80285266890E+02  0.31584223552E+03  0.10356362596E+04  0.00000000000E+00 0. -1.
         -3    1    3    3    0  502 -0.10237139086E+02 -0.59327538073E+01 -0.32780906795E+01  0.12277722220E+02  0.00000000000E+00 0.  1.
         11    1    5    5    0    0  0.17367048385E+03 -0.39485364161E+01  0.12970286114E+03  0.21679451121E+03  0.00000000000E+00 0. -1.
        -11    1    5    5    0    0  0.80564294972E+03 -0.18107883666E+03  0.47614354641E+03  0.95318559803E+03  0.00000000000E+00 0.  1.
          4    1    6    6  503    0  0.26351247716E+01  0.15219077627E+02  0.21474968240E+02  0.26452570145E+02  0.00000000000E+00 0. -1.
         -4    1    6    6    0  503  0.11314735247E+02  0.25602631614E+03 -0.58214184291E+02  0.26280484974E+03  0.00000000000E+00 0.  1.
<mgrwt>
<rscale>  0 0.23470118E+04</rscale>
<asrwt>0</asrwt>
<pdfrwt beam="1">  1        2 0.26067868E+00 0.23470118E+04</pdfrwt>
<pdfrwt beam="2">  1       -1 0.12503694E+00 0.23470118E+04</pdfrwt>
<totfact> 0.56802829E+00</totfact>
</mgrwt>
</event>
<event>
12    6  0.1402540E-007  0.2133771E+04  0.7818608E-02  0.8546511E-01
          2   -1    0    0  501    0  0.00000000000E+00  0.00000000000E+00  0.21597288164E+04  0.21597288164E+04  0.00000000000E+00 0. -1.
         -1   -1    0    0    0  501 -0.00000000000E+00 -0.00000000000E+00 -0.52703141004E+03  0.52703141004E+03  0.00000000000E+00 0.  1.
         24    2    1    2    0    0 -0.75085460890E+03  0.44609995913E+03  0.74042131166E+03  0.11478874754E+04  0.81450108880E+02 0.  0.
        254    2    1    2    0    0  0.75085460890E+03 -0.44609995913E+03  0.89227609474E+03  0.15388727511E+04  0.89954705128E+03 0.  0.
         23    2    4    4    0    0  0.74877940570E+03 -0.13125008623E+02  0.33080563289E+03  0.82400282547E+03  0.93302869077E+02 0.  0.
         23    2    4    4    0    0  0.20752032071E+01 -0.43297495050E+03  0.56147046185E+03  0.71486992559E+03  0.91204806621E+02 0.  0.
          4    1    3    3  502    0 -0.75790211121E+01  0.23061127423E+00  0.18056187622E+02  0.19583683362E+02  0.00000000000E+00 0. -1.
         -3    1    3    3    0  502 -0.74327558779E+03  0.44586934785E+03  0.72236512404E+03  0.11283037921E+04  0.00000000000E+00 0.  1.
         11    1    5    5    0    0  0.23960611579E+03  0.38144182791E+02  0.11752785163E+03  0.26959018030E+03  0.00000000000E+00 0. -1.
        -11    1    5    5    0    0  0.50917328990E+03 -0.51269191414E+02  0.21327778126E+03  0.55441264516E+03  0.00000000000E+00 0.  1.
          3    1    6    6  503    0  0.12664329643E+02 -0.18318420142E+02  0.60492317300E+02  0.64461385450E+02  0.00000000000E+00 0. -1.
         -3    1    6    6    0  503 -0.10589126436E+02 -0.41465653036E+03  0.50097814455E+03  0.65040854014E+03  0.00000000000E+00 0.  1.
<mgrwt>
<rscale>  0 0.21337712E+04</rscale>
<asrwt>0</asrwt>
<pdfrwt beam="1">  1        2 0.33226597E+00 0.21337712E+04</pdfrwt>
<pdfrwt beam="2">  1       -1 0.81081757E-01 0.21337712E+04</pdfrwt>
<totfact> 0.86250480E+00</totfact>
</mgrwt>
</event>
<event>
12    6  0.1402540E-007  0.2393575E+04  0.7818608E-02  0.8441913E-01
          2   -1    0    0  501    0  0.00000000000E+00  0.00000000000E+00  0.26633946441E+04  0.26633946441E+04  0.00000000000E+00 0. -1.
         -1   -1    0    0    0  501 -0.00000000000E+00 -0.00000000000E+00 -0.53777268176E+03  0.53777268176E+03  0.00000000000E+00 0.  1.
         24    2    1    2    0    0 -0.73060070511E+03  0.70433234111E+03  0.71224456528E+03  0.12423797373E+04  0.79709810723E+02 0.  0.
        254    2    1    2    0    0  0.73060070511E+03 -0.70433234111E+03  0.14133773970E+04  0.19587875885E+04  0.89963976869E+03 0.  0.
         23    2    4    4    0    0  0.56448229358E+03 -0.16255809297E+03  0.12132359338E+04  0.13510099009E+04  0.90669333031E+02 0.  0.
         23    2    4    4    0    0  0.16611841153E+03 -0.54177424814E+03  0.20014146320E+03  0.60777768756E+03  0.90677723891E+02 0.  0.
          2    1    3    3  502    0 -0.44835984357E+03  0.48240033420E+03  0.44613550156E+03  0.79547062643E+03  0.00000000000E+00 0. -1.
         -1    1    3    3    0  502 -0.28224086154E+03  0.22193200691E+03  0.26610906373E+03  0.44690911091E+03  0.00000000000E+00 0.  1.
         11    1    5    5    0    0  0.16462056134E+03 -0.60120171133E+01  0.35359700861E+03  0.39008578296E+03  0.00000000000E+00 0. -1.
        -11    1    5    5    0    0  0.39986173223E+03 -0.15654607586E+03  0.85963892521E+03  0.96092411797E+03  0.00000000000E+00 0.  1.
          4    1    6    6  503    0  0.16691266992E+03 -0.42424330653E+03  0.14932820709E+03  0.47973027416E+03  0.00000000000E+00 0.  1.
         -4    1    6    6    0  503 -0.79425838643E+00 -0.11753094162E+03  0.50813256113E+02  0.12804741341E+03  0.00000000000E+00 0. -1.
<mgrwt>
<rscale>  0 0.23935755E+04</rscale>
<asrwt>0</asrwt>
<pdfrwt beam="1">  1        2 0.40975302E+00 0.23935755E+04</pdfrwt>
<pdfrwt beam="2">  1       -1 0.82734260E-01 0.23935755E+04</pdfrwt>
<totfact> 0.41475083E+00</totfact>
</mgrwt>
</event>
<event>
12    6  0.1402540E-007  0.3448808E+04  0.7818608E-02  0.8126030E-01
          2   -1    0    0  501    0  0.00000000000E+00  0.00000000000E+00  0.39585439794E+04  0.39585439794E+04  0.00000000000E+00 0. -1.
         -1   -1    0    0    0  501 -0.00000000000E+00 -0.00000000000E+00 -0.75117742121E+03  0.75117742121E+03  0.00000000000E+00 0.  1.
         24    2    1    2    0    0  0.11311338963E+04  0.67373580353E+03  0.27513916063E+04  0.30510736386E+04  0.74234442367E+02 0.  0.
        254    2    1    2    0    0 -0.11311338963E+04 -0.67373580353E+03  0.45597495182E+03  0.16586477620E+04  0.89989744819E+03 0.  0.
         23    2    4    4    0    0 -0.45456352866E+03 -0.70377570058E+03  0.12113260717E+02  0.84371805904E+03  0.98920138219E+02 0.  0.
         23    2    4    4    0    0 -0.67657036766E+03  0.30039897056E+02  0.44386169110E+03  0.81492970293E+03  0.91909532098E+02 0.  0.
          4    1    3    3  502    0  0.66383865338E+03  0.43293542048E+03  0.16927911728E+04  0.18691326306E+04  0.00000000000E+00 0. -1.
         -3    1    3    3    0  502  0.46729524294E+03  0.24080038304E+03  0.10586004335E+04  0.11819410080E+04  0.00000000000E+00 0.  1.
         11    1    5    5    0    0 -0.41121646361E+03 -0.60318254190E+03  0.38554583232E+02  0.73103667123E+03  0.00000000000E+00 0. -1.
        -11    1    5    5    0    0 -0.43347065056E+02 -0.10059315868E+03 -0.26441322514E+02  0.11268138781E+03  0.00000000000E+00 0.  1.
          1    1    6    6  503    0 -0.40368924863E+03  0.62596078980E+02  0.27267757990E+03  0.49115816306E+03  0.00000000000E+00 0. -1.
         -1    1    6    6    0  503 -0.27288111903E+03 -0.32556181924E+02  0.17118411120E+03  0.32377153987E+03  0.00000000000E+00 0.  1.
<mgrwt>
<rscale>  0 0.34488078E+04</rscale>
<asrwt>0</asrwt>
<pdfrwt beam="1">  1        2 0.60900675E+00 0.34488078E+04</pdfrwt>
<pdfrwt beam="2">  1       -1 0.11556576E+00 0.34488078E+04</pdfrwt>
<totfact> 0.23414385E-01</totfact>
</mgrwt>
</event>
<event>
12    6  0.1402540E-007  0.1716710E+04  0.7818608E-02  0.8751891E-01
          2   -1    0    0  501    0  0.00000000000E+00  0.00000000000E+00  0.14996148243E+04  0.14996148243E+04  0.00000000000E+00 0. -1.
         -1   -1    0    0    0  501 -0.00000000000E+00 -0.00000000000E+00 -0.49130835191E+03  0.49130835191E+03  0.00000000000E+00 0.  1.
         24    2    1    2    0    0  0.57544297253E+03 -0.22784684859E+03  0.38596467175E+03  0.73374961303E+03  0.79818329605E+02 0.  0.
        254    2    1    2    0    0 -0.57544297253E+03  0.22784684859E+03  0.62234180063E+03  0.12571735632E+04  0.90007069172E+03 0.  0.
         23    2    4    4    0    0 -0.45999251577E+03 -0.13266168261E+03 -0.40438726936E+02  0.48853936244E+03  0.88561737866E+02 0.  0.
         23    2    4    4    0    0 -0.11545045675E+03  0.36050853121E+03  0.66278052757E+03  0.76863420074E+03  0.90693427456E+02 0.  0.
          4    1    3    3  502    0  0.15104761714E+03 -0.97084817490E+02  0.12303903853E+03  0.21766820951E+03  0.00000000000E+00 0. -1.
         -3    1    3    3    0  502  0.42439535539E+03 -0.13076203110E+03  0.26292563321E+03  0.51608140352E+03  0.00000000000E+00 0.  1.
         11    1    5    5    0    0 -0.32195895809E+03 -0.10874855458E+03  0.90938206800E+01  0.33995075584E+03  0.00000000000E+00 0. -1.
        -11    1    5    5    0    0 -0.13803355768E+03 -0.23913128031E+02 -0.49532547616E+02  0.14858860660E+03  0.00000000000E+00 0.  1.
          4    1    6    6  503    0 -0.16107279061E+02  0.19815029801E+03  0.32935274131E+03  0.38470275961E+03  0.00000000000E+00 0. -1.
         -4    1    6    6    0  503 -0.99343177693E+02  0.16235823320E+03  0.33342778626E+03  0.38393144113E+03  0.00000000000E+00 0.  1.
<mgrwt>
<rscale>  0 0.17167100E+04</rscale>
<asrwt>0</asrwt>
<pdfrwt beam="1">  1        2 0.23070997E+00 0.17167100E+04</pdfrwt>
<pdfrwt beam="2">  1       -1 0.75585901E-01 0.17167100E+04</pdfrwt>
<totfact> 0.24190231E+01</totfact>
</mgrwt>
</event>
<event>
12    6  0.1402540E-007  0.1810582E+04  0.7818608E-02  0.8700692E-01
          2   -1    0    0  501    0  0.00000000000E+00  0.00000000000E+00  0.10158262530E+04  0.10158262530E+04  0.00000000000E+00 0. -1.
         -1   -1    0    0    0  501 -0.00000000000E+00 -0.00000000000E+00 -0.80678302361E+03  0.80678302361E+03  0.00000000000E+00 0.  1.
         24    2    1    2    0    0  0.28610022654E+03  0.46684458298E+03 -0.32512570349E+03  0.64174358922E+03  0.79566996556E+02 0.  0.
        254    2    1    2    0    0 -0.28610022654E+03 -0.46684458298E+03  0.53416893291E+03  0.11808656874E+04  0.89961665089E+03 0.  0.
         23    2    4    4    0    0  0.15917671106E+03 -0.34025853035E+03 -0.92098218445E+02  0.39683840977E+03  0.88800612639E+02 0.  0.
         23    2    4    4    0    0 -0.44527693760E+03 -0.12658605264E+03  0.62626715135E+03  0.78402727766E+03  0.90513244157E+02 0.  0.
          2    1    3    3  502    0  0.29170062714E+02  0.85987178613E+02 -0.29688408936E+02  0.95530566154E+02  0.00000000000E+00 0. -1.
         -1    1    3    3    0  502  0.25693016383E+03  0.38085740437E+03 -0.29543729456E+03  0.54621302306E+03  0.00000000000E+00 0.  1.
         11    1    5    5    0    0  0.68518572300E+02 -0.58751200173E+02 -0.21697383702E+02  0.92829277339E+02  0.00000000000E+00 0.  1.
        -11    1    5    5    0    0  0.90658138763E+02 -0.28150733018E+03 -0.70400834742E+02  0.30400913243E+03  0.00000000000E+00 0. -1.
          3    1    6    6  503    0 -0.23099458511E+03 -0.68464903775E+02  0.40048086403E+03  0.46736587793E+03  0.00000000000E+00 0. -1.
         -3    1    6    6    0  503 -0.21428235250E+03 -0.58121148861E+02  0.22578628732E+03  0.31666139973E+03  0.00000000000E+00 0.  1.
<mgrwt>
<rscale>  0 0.18105815E+04</rscale>
<asrwt>0</asrwt>
<pdfrwt beam="1">  1        2 0.15628096E+00 0.18105815E+04</pdfrwt>
<pdfrwt beam="2">  1       -1 0.12412046E+00 0.18105815E+04</pdfrwt>
<totfact> 0.15083054E+01</totfact>
</mgrwt>
</event>
<event>
12    6  0.1402540E-007  0.2092473E+04  0.7818608E-02  0.8564566E-01
         -1   -1    0    0    0  501 -0.00000000000E+00  0.00000000000E+00  0.87605352230E+03  0.87605352230E+03  0.00000000000E+00 0.  1.
          2   -1    0    0  501    0  0.00000000000E+00 -0.00000000000E+00 -0.12494790205E+04  0.12494790205E+04  0.00000000000E+00 0. -1.
         24    2    1    2    0    0  0.39970538543E+02  0.64968913179E+03 -0.70918911799E+03  0.96589291264E+03  0.79412226399E+02 0.  0.
        254    2    1    2    0    0 -0.39970538543E+02 -0.64968913179E+03  0.33576361982E+03  0.11596396301E+04  0.89907355175E+03 0.  0.
         23    2    4    4    0    0  0.33680572665E+03 -0.25987867936E+02  0.22684408718E+03  0.41722066246E+03  0.92202898599E+02 0.  0.
         23    2    4    4    0    0 -0.37677626519E+03 -0.62370126385E+03  0.10891953264E+03  0.74241896767E+03  0.91426683323E+02 0.  0.
          4    1    3    3  502    0  0.18208618956E+02  0.61089017373E+03 -0.66516057686E+03  0.90330335501E+03  0.00000000000E+00 0. -1.
         -3    1    3    3    0  502  0.21761919587E+02  0.38798958058E+02 -0.44028541128E+02  0.62589557630E+02  0.00000000000E+00 0.  1.
         11    1    5    5    0    0  0.66861783885E+02 -0.39279149298E+02  0.31281701684E+02  0.83617549439E+02  0.00000000000E+00 0. -1.
        -11    1    5    5    0    0  0.26994394276E+03  0.13291281362E+02  0.19556238550E+03  0.33360311302E+03  0.00000000000E+00 0.  1.
          1    1    6    6  503    0 -0.23201019150E+03 -0.30494599261E+03  0.36391059707E+02  0.38489621536E+03  0.00000000000E+00 0. -1.
         -1    1    6    6    0  503 -0.14476607369E+03 -0.31875527124E+03  0.72528472930E+02  0.35752275231E+03  0.00000000000E+00 0.  1.
<mgrwt>
<rscale>  0 0.20924727E+04</rscale>
<asrwt>0</asrwt>
<pdfrwt beam="1">  1        2 0.19222754E+00 0.20924727E+04</pdfrwt>
<pdfrwt beam="2">  1       -1 0.13477746E+00 0.20924727E+04</pdfrwt>
<totfact> 0.86076768E+00</totfact>
</mgrwt>
</event>
<event>
12    6  0.1402540E-007  0.3008906E+04  0.7818608E-02  0.8241192E-01
         -1   -1    0    0    0  501 -0.00000000000E+00  0.00000000000E+00  0.62461658668E+03  0.62461658668E+03  0.00000000000E+00 0.  1.
          2   -1    0    0  501    0  0.00000000000E+00 -0.00000000000E+00 -0.36236284248E+04  0.36236284248E+04  0.00000000000E+00 0. -1.
         24    2    1    2    0    0  0.12913091748E+04  0.40496079069E+03 -0.10769213189E+04  0.17310897613E+04  0.73753694232E+02 0.  0.
        254    2    1    2    0    0 -0.12913091748E+04 -0.40496079069E+03 -0.19220905192E+04  0.25171552503E+04  0.90009219680E+03 0.  0.
         23    2    4    4    0    0 -0.32272010786E+03 -0.39234975318E+03 -0.11978452777E+04  0.13042734158E+04  0.90604838541E+02 0.  0.
         23    2    4    4    0    0 -0.96858906696E+03 -0.12611037505E+02 -0.72424524149E+03  0.12128818345E+04  0.90704772412E+02 0.  0.
          4    1    3    3  502    0  0.43587606265E+03  0.11133670310E+03 -0.38984641868E+03  0.59528483401E+03  0.00000000000E+00 0. -1.
         -3    1    3    3    0  502  0.85543311218E+03  0.29362408759E+03 -0.68707490023E+03  0.11358049272E+04  0.00000000000E+00 0.  1.
         11    1    5    5    0    0 -0.30419711946E+03 -0.33712168774E+03 -0.10049491031E+04  0.11027736031E+04  0.00000000000E+00 0.  1.
        -11    1    5    5    0    0 -0.18522988405E+02 -0.55228065440E+02 -0.19289617463E+03  0.20149981265E+03  0.00000000000E+00 0. -1.
          3    1    6    6  503    0 -0.34167717463E+02 -0.64640756601E+01 -0.84370703539E+01  0.35782696194E+02  0.00000000000E+00 0. -1.
         -3    1    6    6    0  503 -0.93442134950E+03 -0.61469618448E+01 -0.71580817114E+03  0.11770991383E+04  0.00000000000E+00 0.  1.
<mgrwt>
<rscale>  0 0.30089057E+04</rscale>
<asrwt>0</asrwt>
<pdfrwt beam="1">  1        2 0.55748129E+00 0.30089057E+04</pdfrwt>
<pdfrwt beam="2">  1       -1 0.96094860E-01 0.30089057E+04</pdfrwt>
<totfact> 0.67254425E-01</totfact>
</mgrwt>
</event>
<event>
12    6  0.1402540E-007  0.1423375E+04  0.7818608E-02  0.8937070E-01
         -1   -1    0    0    0  501 -0.00000000000E+00  0.00000000000E+00  0.16057201215E+04  0.16057201215E+04  0.00000000000E+00 0.  1.
          2   -1    0    0  501    0  0.00000000000E+00 -0.00000000000E+00 -0.31543405343E+03  0.31543405343E+03  0.00000000000E+00 0. -1.
         24    2    1    2    0    0 -0.26657398008E+03 -0.24767940221E+03  0.99115734181E+02  0.38420650522E+03  0.73375314362E+02 0.  0.
        254    2    1    2    0    0  0.26657398008E+03  0.24767940221E+03  0.11911703339E+04  0.15369476697E+04  0.90050796884E+03 0.  0.
         23    2    4    4    0    0  0.32285384038E+03  0.51412007263E+03  0.10545004289E+04  0.12201938837E+04  0.91366886915E+02 0.  0.
         23    2    4    4    0    0 -0.56279860291E+02 -0.26644067043E+03  0.13666990501E+03  0.31675378599E+03  0.86580855107E+02 0.  0.
          2    1    3    3  502    0 -0.33010738972E+01 -0.90159928978E+01 -0.86008719132E+01  0.12890314755E+02  0.00000000000E+00 0. -1.
         -1    1    3    3    0  502 -0.26327290619E+03 -0.23866340931E+03  0.10771660609E+03  0.37131619047E+03  0.00000000000E+00 0.  1.
         11    1    5    5    0    0  0.29371489692E+03  0.44200107073E+03  0.96751797219E+03  0.11035055114E+04  0.00000000000E+00 0. -1.
        -11    1    5    5    0    0  0.29138943458E+02  0.72119001902E+02  0.86982456722E+02  0.11668837234E+03  0.00000000000E+00 0.  1.
          4    1    6    6  503    0 -0.44050628188E+02 -0.20083975311E+03  0.58089501318E+02  0.21366200982E+03  0.00000000000E+00 0. -1.
         -4    1    6    6    0  503 -0.12229232103E+02 -0.65600917312E+02  0.78580403695E+02  0.10309177618E+03  0.00000000000E+00 0.  1.
<mgrwt>
<rscale>  0 0.14233746E+04</rscale>
<asrwt>0</asrwt>
<pdfrwt beam="1">  1        2 0.48528317E-01 0.14233746E+04</pdfrwt>
<pdfrwt beam="2">  1       -1 0.24703386E+00 0.14233746E+04</pdfrwt>
<totfact> 0.84277222E+00</totfact>
</mgrwt>
</event>
<event>
12    6  0.1402540E-007  0.1469995E+04  0.7818608E-02  0.8904655E-01
         -1   -1    0    0    0  501 -0.00000000000E+00  0.00000000000E+00  0.25943958957E+03  0.25943958957E+03  0.00000000000E+00 0.  1.
          2   -1    0    0  501    0  0.00000000000E+00 -0.00000000000E+00 -0.20822616251E+04  0.20822616251E+04  0.00000000000E+00 0. -1.
         24    2    1    2    0    0  0.21795868467E+03 -0.33792895657E+03 -0.90828311784E+03  0.99654760871E+03  0.80168237901E+02 0.  0.
        254    2    1    2    0    0 -0.21795868467E+03  0.33792895657E+03 -0.91453891766E+03  0.13451536059E+04  0.90075236537E+03 0.  0.
         23    2    4    4    0    0 -0.53868546447E+01 -0.28431107763E+03 -0.15506434972E+03  0.33663806203E+03  0.91751976463E+02 0.  0.
         23    2    4    4    0    0 -0.21257183002E+03  0.62224003421E+03 -0.75947456794E+03  0.10085155439E+04  0.89064807007E+02 0.  0.
          2    1    3    3  502    0  0.13573762380E+03 -0.19508073304E+03 -0.62703202887E+03  0.67055973645E+03  0.00000000000E+00 0. -1.
         -1    1    3    3    0  502  0.82221060874E+02 -0.14284822353E+03 -0.28125108896E+03  0.32598787226E+03  0.00000000000E+00 0.  1.
         11    1    5    5    0    0  0.39207815822E+02 -0.94485598049E+02 -0.37549326422E+02  0.10897124839E+03  0.00000000000E+00 0.  1.
        -11    1    5    5    0    0 -0.44594670467E+02 -0.18982547958E+03 -0.11751502330E+03  0.22766681364E+03  0.00000000000E+00 0. -1.
          2    1    6    6  503    0 -0.20521497063E+03  0.50155695848E+03 -0.63868174203E+03  0.83760786432E+03  0.00000000000E+00 0.  1.
         -2    1    6    6    0  503 -0.73568593902E+01  0.12068307572E+03 -0.12079282592E+03  0.17090767958E+03  0.00000000000E+00 0. -1.
<mgrwt>
<rscale>  0 0.14699947E+04</rscale>
<asrwt>0</asrwt>
<pdfrwt beam="1">  1        2 0.32034795E+00 0.14699947E+04</pdfrwt>
<pdfrwt beam="2">  1       -1 0.39913782E-01 0.14699947E+04</pdfrwt>
<totfact> 0.40576618E+01</totfact>
</mgrwt>
</event>
<event>
12    6  0.1402540E-007  0.1784670E+04  0.7818608E-02  0.8714495E-01
          2   -1    0    0  501    0  0.00000000000E+00  0.00000000000E+00  0.15078210823E+04  0.15078210823E+04  0.00000000000E+00 0. -1.
         -1   -1    0    0    0  501 -0.00000000000E+00 -0.00000000000E+00 -0.52808744425E+03  0.52808744425E+03  0.00000000000E+00 0.  1.
         24    2    1    2    0    0  0.30193453574E+03 -0.52507644168E+03  0.67255172720E+03  0.90861093481E+03  0.79864082203E+02 0.  0.
        254    2    1    2    0    0 -0.30193453574E+03  0.52507644168E+03  0.30718191083E+03  0.11272975917E+04  0.89976074624E+03 0.  0.
         23    2    4    4    0    0 -0.50524486521E+03  0.65064675595E+03  0.24294306369E+03  0.86368342109E+03  0.91181932505E+02 0.  0.
         23    2    4    4    0    0  0.20331032947E+03 -0.12557031428E+03  0.64238847141E+02  0.26361417063E+03  0.90899986663E+02 0.  0.
          2    1    3    3  502    0  0.14064598111E+03 -0.24195345299E+03  0.25199707696E+03  0.37659698912E+03  0.00000000000E+00 0. -1.
         -1    1    3    3    0  502  0.16128855464E+03 -0.28312298869E+03  0.42055465023E+03  0.53201394569E+03  0.00000000000E+00 0.  1.
         11    1    5    5    0    0 -0.20954096343E+03  0.19954860770E+03  0.90375576747E+02  0.30314156274E+03  0.00000000000E+00 0.  1.
        -11    1    5    5    0    0 -0.29570390178E+03  0.45109814826E+03  0.15256748694E+03  0.56054185835E+03  0.00000000000E+00 0. -1.
          3    1    6    6  503    0  0.78371590293E+02 -0.92628638183E+02  0.49065190677E+01  0.12143411673E+03  0.00000000000E+00 0. -1.
         -3    1    6    6    0  503  0.12493873918E+03 -0.32941676095E+02  0.59332328073E+02  0.14218005390E+03  0.00000000000E+00 0.  1.
<mgrwt>
<rscale>  0 0.17846696E+04</rscale>
<asrwt>0</asrwt>
<pdfrwt beam="1">  1        2 0.23197247E+00 0.17846696E+04</pdfrwt>
<pdfrwt beam="2">  1       -1 0.81244223E-01 0.17846696E+04</pdfrwt>
<totfact> 0.20425390E+01</totfact>
</mgrwt>
</event>
<event>
12    6  0.1402540E-007  0.1941836E+04  0.7818608E-02  0.8634308E-01
         -1   -1    0    0    0  501 -0.00000000000E+00  0.00000000000E+00  0.27770075227E+03  0.27770075227E+03  0.00000000000E+00 0.  1.
          2   -1    0    0  501    0  0.00000000000E+00 -0.00000000000E+00 -0.33945942466E+04  0.33945942466E+04  0.00000000000E+00 0. -1.
         24    2    1    2    0    0 -0.52871576401E+03 -0.39617252688E+03 -0.19371976753E+04  0.20483350262E+04  0.80302652734E+02 0.  0.
        254    2    1    2    0    0  0.52871576401E+03  0.39617252688E+03 -0.11796958189E+04  0.16239599726E+04  0.89948359478E+03 0.  0.
         23    2    4    4    0    0  0.43757376025E+03 -0.65761034622E+00 -0.11157275828E+04  0.12019762924E+04  0.91802724591E+02 0.  0.
         23    2    4    4    0    0  0.91142003759E+02  0.39683013723E+03 -0.63968236136E+02  0.42198368026E+03  0.90538768017E+02 0.  0.
          4    1    3    3  502    0 -0.40628063711E+03 -0.28988374240E+03 -0.15561532643E+04  0.16342305597E+04  0.00000000000E+00 0. -1.
         -1    1    3    3    0  502 -0.12243512690E+03 -0.10628878448E+03 -0.38104441103E+03  0.41410446651E+03  0.00000000000E+00 0.  1.
         11    1    5    5    0    0  0.33331541917E+03  0.28772814285E+02 -0.76647406698E+03  0.83630708406E+03  0.00000000000E+00 0. -1.
        -11    1    5    5    0    0  0.10425834108E+03 -0.29430424631E+02 -0.34925351583E+03  0.36566920830E+03  0.00000000000E+00 0.  1.
          3    1    6    6  503    0  0.51991914374E+02  0.35343630414E+03 -0.66966509015E+02  0.36346236885E+03  0.00000000000E+00 0. -1.
         -3    1    6    6    0  503  0.39150089384E+02  0.43393833090E+02  0.29982728784E+01  0.58521311411E+02  0.00000000000E+00 0.  1.
<mgrwt>
<rscale>  0 0.19418356E+04</rscale>
<asrwt>0</asrwt>
<pdfrwt beam="1">  1        2 0.52224529E+00 0.19418356E+04</pdfrwt>
<pdfrwt beam="2">  1       -1 0.42723191E-01 0.19418356E+04</pdfrwt>
<totfact> 0.55412915E+00</totfact>
</mgrwt>
</event>
<event>
12    6  0.1402540E-007  0.1732374E+04  0.7818608E-02  0.8743113E-01
         -1   -1    0    0    0  501 -0.00000000000E+00  0.00000000000E+00  0.78130483723E+03  0.78130483723E+03  0.00000000000E+00 0.  1.
          2   -1    0    0  501    0  0.00000000000E+00 -0.00000000000E+00 -0.96029052789E+03  0.96029052789E+03  0.00000000000E+00 0. -1.
         24    2    1    2    0    0 -0.52719941110E+03  0.18994379312E+03 -0.35569005091E+03  0.66654912366E+03  0.61273634881E+02 0.  0.
        254    2    1    2    0    0  0.52719941110E+03 -0.18994379312E+03  0.17670436024E+03  0.10750462415E+04  0.90026780835E+03 0.  0.
         23    2    4    4    0    0  0.21858993868E+03 -0.42627244722E+03 -0.19931961081E+03  0.52691799949E+03  0.91785131571E+02 0.  0.
         23    2    4    4    0    0  0.30860947241E+03  0.23632865411E+03  0.37602397104E+03  0.54812824197E+03  0.89216050311E+02 0.  0.
          2    1    3    3  502    0 -0.32149056727E+03  0.10391468196E+03 -0.24680233224E+03  0.41840869634E+03  0.00000000000E+00 0. -1.
         -1    1    3    3    0  502 -0.20570884383E+03  0.86029111159E+02 -0.10888771866E+03  0.24814042732E+03  0.00000000000E+00 0.  1.
         11    1    5    5    0    0  0.12046894943E+03 -0.28617615643E+03 -0.87582937756E+02  0.32261483424E+03  0.00000000000E+00 0.  1.
        -11    1    5    5    0    0  0.98120989252E+02 -0.14009629079E+03 -0.11173667305E+03  0.20430316525E+03  0.00000000000E+00 0. -1.
          1    1    6    6  503    0  0.26134224690E+03  0.15252018033E+03  0.28505522811E+03  0.41571463589E+03  0.00000000000E+00 0. -1.
         -1    1    6    6    0  503  0.47267225513E+02  0.83808473770E+02  0.90968742936E+02  0.13241360608E+03  0.00000000000E+00 0.  1.
<mgrwt>
<rscale>  0 0.17323737E+04</rscale>
<asrwt>0</asrwt>
<pdfrwt beam="1">  1        2 0.14773700E+00 0.17323737E+04</pdfrwt>
<pdfrwt beam="2">  1       -1 0.12020074E+00 0.17323737E+04</pdfrwt>
<totfact> 0.17850986E+01</totfact>
</mgrwt>
</event>
<event>
12    6  0.1402540E-007  0.1211310E+04  0.7818608E-02  0.9103014E-01
         -3   -1    0    0    0  501 -0.00000000000E+00  0.00000000000E+00  0.50865226020E+03  0.50865226020E+03  0.00000000000E+00 0.  1.
          2   -1    0    0  501    0  0.00000000000E+00 -0.00000000000E+00 -0.72115693252E+03  0.72115693252E+03  0.00000000000E+00 0. -1.
         24    2    1    2    0    0 -0.24809597472E+03  0.66540543585E+01 -0.13332356879E+03  0.29354063786E+03  0.82432050624E+02 0.  0.
        254    2    1    2    0    0  0.24809597472E+03 -0.66540543585E+01 -0.79181103530E+02  0.93626855486E+03  0.89929598606E+03 0.  0.
         23    2    4    4    0    0  0.90227668447E+01  0.41743147220E+03 -0.10126041350E+03  0.44000924925E+03  0.94994861828E+02 0.  0.
         23    2    4    4    0    0  0.23907320787E+03 -0.42408552656E+03  0.22079309971E+02  0.49625930561E+03  0.93708430328E+02 0.  0.
          2    1    3    3  502    0 -0.20564372043E+03  0.52962008443E+01 -0.14229377704E+03  0.25012978327E+03  0.00000000000E+00 0. -1.
         -1    1    3    3    0  502 -0.42452254291E+02  0.13578535143E+01  0.89702082447E+01  0.43410854593E+02  0.00000000000E+00 0.  1.
         11    1    5    5    0    0  0.47156525649E+02  0.23487024578E+03 -0.35072515151E+02  0.24211123803E+03  0.00000000000E+00 0. -1.
        -11    1    5    5    0    0 -0.38133758805E+02  0.18256122643E+03 -0.66187898351E+02  0.19789801122E+03  0.00000000000E+00 0.  1.
          3    1    6    6  503    0  0.72548417370E+02 -0.17467037514E+03 -0.31117925907E+02  0.19168030188E+03  0.00000000000E+00 0. -1.
         -3    1    6    6    0  503  0.16652479050E+03 -0.24941515142E+03  0.53197235878E+02  0.30457900373E+03  0.00000000000E+00 0.  1.
<mgrwt>
<rscale>  0 0.12113102E+04</rscale>
<asrwt>0</asrwt>
<pdfrwt beam="1">  1        2 0.11094722E+00 0.12113102E+04</pdfrwt>
<pdfrwt beam="2">  1       -3 0.78254194E-01 0.12113102E+04</pdfrwt>
<totfact> 0.37615747E+01</totfact>
</mgrwt>
</event>
<event>
12    6  0.1402540E-007  0.3258713E+04  0.7818608E-02  0.8173481E-01
          2   -1    0    0  501    0  0.00000000000E+00  0.00000000000E+00  0.18793615568E+04  0.18793615568E+04  0.00000000000E+00 0. -1.
         -1   -1    0    0    0  501 -0.00000000000E+00 -0.00000000000E+00 -0.14126085557E+04  0.14126085557E+04  0.00000000000E+00 0.  1.
         24    2    1    2    0    0  0.12318123747E+04 -0.20724690574E+03  0.10600595229E+04  0.16402503801E+04  0.79888115532E+02 0.  0.
        254    2    1    2    0    0 -0.12318123747E+04  0.20724690574E+03 -0.59330652180E+03  0.16517197323E+04  0.90324550307E+03 0.  0.
         23    2    4    4    0    0 -0.11465622879E+04 -0.15216965916E+03 -0.43444537624E+03  0.12388901664E+04  0.91353020230E+02 0.  0.
         23    2    4    4    0    0 -0.85250086862E+02  0.35941656490E+03 -0.15886114556E+03  0.41282956592E+03  0.93506911493E+02 0.  0.
          2    1    3    3  502    0  0.74240487894E+03 -0.13925459371E+03  0.68817402868E+03  0.10218318550E+04  0.00000000000E+00 0. -1.
         -3    1    3    3    0  502  0.48940749581E+03 -0.67992312024E+02  0.37188549419E+03  0.61841852514E+03  0.00000000000E+00 0.  1.
         11    1    5    5    0    0 -0.18673792347E+03 -0.30192860213E+02 -0.10764074780E+03  0.21764464491E+03  0.00000000000E+00 0. -1.
        -11    1    5    5    0    0 -0.95982436442E+03 -0.12197679895E+03 -0.32680462844E+03  0.10212455215E+04  0.00000000000E+00 0.  1.
          3    1    6    6  503    0  0.19146841281E+01  0.14275988087E+03 -0.29243734535E+02  0.14573690545E+03  0.00000000000E+00 0. -1.
         -3    1    6    6    0  503 -0.87164770991E+02  0.21665668403E+03 -0.12961741102E+03  0.26709266047E+03  0.00000000000E+00 0.  1.
<mgrwt>
<rscale>  0 0.32587128E+04</rscale>
<asrwt>0</asrwt>
<pdfrwt beam="1">  1        2 0.28913255E+00 0.32587128E+04</pdfrwt>
<pdfrwt beam="2">  1       -1 0.21732439E+00 0.32587128E+04</pdfrwt>
<totfact> 0.85263367E-01</totfact>
</mgrwt>
</event>
<event>
12    6  0.1402540E-007  0.2425237E+04  0.7818608E-02  0.8430115E-01
         -1   -1    0    0    0  501 -0.00000000000E+00  0.00000000000E+00  0.10985779575E+04  0.10985779575E+04  0.00000000000E+00 0.  1.
          2   -1    0    0  501    0  0.00000000000E+00 -0.00000000000E+00 -0.13384973938E+04  0.13384973938E+04  0.00000000000E+00 0. -1.
         24    2    1    2    0    0 -0.53481236396E+03  0.89657544381E+03 -0.77355773437E+02  0.10498561528E+04  0.79638148817E+02 0.  0.
        254    2    1    2    0    0  0.53481236396E+03 -0.89657544381E+03 -0.16256366287E+03  0.13872191986E+04  0.89893179351E+03 0.  0.
         23    2    4    4    0    0  0.74818067641E+03 -0.59356331427E+03  0.30840969600E+02  0.96073536397E+03  0.99847591773E+02 0.  0.
         23    2    4    4    0    0 -0.21336831246E+03 -0.30301212954E+03 -0.19340463247E+03  0.42648383462E+03  0.84502792408E+02 0.  0.
          4    1    3    3  502    0 -0.35438145517E+03  0.66187956260E+03 -0.64386699918E+02  0.75353594359E+03  0.00000000000E+00 0. -1.
         -3    1    3    3    0  502 -0.18043090878E+03  0.23469588121E+03 -0.12969073519E+02  0.29632020919E+03  0.00000000000E+00 0.  1.
         11    1    5    5    0    0  0.22932433891E+03 -0.16770378654E+03 -0.35090540411E+02  0.28626134643E+03  0.00000000000E+00 0. -1.
        -11    1    5    5    0    0  0.51885633750E+03 -0.42585952773E+03  0.65931510011E+02  0.67447401754E+03  0.00000000000E+00 0.  1.
          4    1    6    6  503    0 -0.85015446872E+02 -0.64269558589E+02 -0.33220766615E+02  0.11163252977E+03  0.00000000000E+00 0. -1.
         -4    1    6    6    0  503 -0.12835286559E+03 -0.23874257096E+03 -0.16018386585E+03  0.31485130486E+03  0.00000000000E+00 0.  1.
<mgrwt>
<rscale>  0 0.24252371E+04</rscale>
<asrwt>0</asrwt>
<pdfrwt beam="1">  1        2 0.20592268E+00 0.24252371E+04</pdfrwt>
<pdfrwt beam="2">  1       -1 0.16901199E+00 0.24252371E+04</pdfrwt>
<totfact> 0.40172989E+00</totfact>
</mgrwt>
</event>
<event>
12    6  0.1402540E-007  0.2535512E+04  0.7818608E-02  0.8390442E-01
         -1   -1    0    0    0  501 -0.00000000000E+00  0.00000000000E+00  0.47414642558E+03  0.47414642558E+03  0.00000000000E+00 0.  1.
          2   -1    0    0  501    0  0.00000000000E+00 -0.00000000000E+00 -0.33896810460E+04  0.33896810460E+04  0.00000000000E+00 0. -1.
         24    2    1    2    0    0 -0.84210982337E+03 -0.62028864881E+03 -0.18262413231E+04  0.21060870642E+04  0.80860306741E+02 0.  0.
        254    2    1    2    0    0  0.84210982337E+03  0.62028864881E+03 -0.10892932973E+04  0.17577404074E+04  0.89954682468E+03 0.  0.
         23    2    4    4    0    0 -0.10409561576E+02  0.14960617784E+03  0.11230204746E+03  0.20843541070E+03  0.91341136136E+02 0.  0.
         23    2    4    4    0    0  0.85251938495E+03  0.47068247097E+03 -0.12015953448E+04  0.15493049967E+04  0.90461649526E+02 0.  0.
          4    1    3    3  502    0 -0.27931737148E+03 -0.20216831270E+03 -0.68001474114E+03  0.76243705893E+03  0.00000000000E+00 0. -1.
         -3    1    3    3    0  502 -0.56279245189E+03 -0.41812033612E+03 -0.11462265820E+04  0.13436500052E+04  0.00000000000E+00 0.  1.
         11    1    5    5    0    0  0.37173134492E+02  0.59235779993E+02  0.66499237455E+02  0.96503202752E+02  0.00000000000E+00 0.  1.
        -11    1    5    5    0    0 -0.47582696067E+02  0.90370397849E+02  0.45802810004E+02  0.11193220795E+03  0.00000000000E+00 0. -1.
          2    1    6    6  503    0  0.10084288375E+03  0.81625057853E+02 -0.12870282254E+03  0.18274669300E+03  0.00000000000E+00 0. -1.
         -2    1    6    6    0  503  0.75167650119E+03  0.38905741312E+03 -0.10728925223E+04  0.13665583037E+04  0.00000000000E+00 0.  1.
<mgrwt>
<rscale>  0 0.25355119E+04</rscale>
<asrwt>0</asrwt>
<pdfrwt beam="1">  1        2 0.52148941E+00 0.25355119E+04</pdfrwt>
<pdfrwt beam="2">  1       -1 0.72945602E-01 0.25355119E+04</pdfrwt>
<totfact> 0.18579567E+00</totfact>
</mgrwt>
</event>
<event>
12    6  0.1402540E-007  0.1141174E+04  0.7818608E-02  0.9165964E-01
          2   -1    0    0  501    0  0.00000000000E+00  0.00000000000E+00  0.91919813208E+03  0.91919813208E+03  0.00000000000E+00 0. -1.
         -1   -1    0    0    0  501 -0.00000000000E+00 -0.00000000000E+00 -0.35418888056E+03  0.35418888056E+03  0.00000000000E+00 0.  1.
         24    2    1    2    0    0  0.16023628968E+03 -0.76703651278E+01 -0.30736511124E+02  0.18204252572E+03  0.80375649445E+02 0.  0.
        254    2    1    2    0    0 -0.16023628968E+03  0.76703651278E+01  0.59574576264E+03  0.10913444869E+04  0.90021401477E+03 0.  0.
         23    2    4    4    0    0 -0.27992841851E+03 -0.16539693912E+03 -0.10517110432E+03  0.35371719981E+03  0.91317190614E+02 0.  0.
         23    2    4    4    0    0  0.11969212883E+03  0.17306730424E+03  0.70091686696E+03  0.73762728710E+03  0.92363752509E+02 0.  0.
          2    1    3    3  502    0  0.31196595761E+01  0.12117701350E+02  0.12707048566E+02  0.17833677275E+02  0.00000000000E+00 0. -1.
         -1    1    3    3    0  502  0.15711663010E+03 -0.19788066478E+02 -0.43443559690E+02  0.16420884845E+03  0.00000000000E+00 0.  1.
         11    1    5    5    0    0 -0.10987327996E+03 -0.19239790758E+02 -0.17288251895E+02  0.11287688360E+03  0.00000000000E+00 0. -1.
        -11    1    5    5    0    0 -0.17005513855E+03 -0.14615714836E+03 -0.87882852426E+02  0.24084031621E+03  0.00000000000E+00 0.  1.
          3    1    6    6  503    0  0.89242193062E+02  0.81538938617E+02  0.26657162610E+03  0.29269984519E+03  0.00000000000E+00 0. -1.
         -3    1    6    6    0  503  0.30449935773E+02  0.91528365626E+02  0.43434524087E+03  0.44492744191E+03  0.00000000000E+00 0.  1.
<mgrwt>
<rscale>  0 0.11411744E+04</rscale>
<asrwt>0</asrwt>
<pdfrwt beam="1">  1        2 0.14141510E+00 0.11411744E+04</pdfrwt>
<pdfrwt beam="2">  1       -1 0.54490598E-01 0.11411744E+04</pdfrwt>
<totfact> 0.10939508E+02</totfact>
</mgrwt>
</event>
<event>
12    6  0.1402540E-007  0.2337827E+04  0.7818608E-02  0.8463154E-01
          2   -1    0    0  501    0  0.00000000000E+00  0.00000000000E+00  0.84297025236E+03  0.84297025236E+03  0.00000000000E+00 0. -1.
         -1   -1    0    0    0  501 -0.00000000000E+00 -0.00000000000E+00 -0.16208867282E+04  0.16208867282E+04  0.00000000000E+00 0.  1.
         24    2    1    2    0    0 -0.69716519974E+03  0.64937246349E+03 -0.28489153692E+02  0.95649669854E+03  0.79689336627E+02 0.  0.
        254    2    1    2    0    0  0.69716519974E+03 -0.64937246349E+03 -0.74942732214E+03  0.15073602820E+04  0.89597421645E+03 0.  0.
         23    2    4    4    0    0  0.66659745835E+03 -0.24518262712E+03 -0.81701924011E+03  0.10862758080E+04  0.89487431054E+02 0.  0.
         23    2    4    4    0    0  0.30567741388E+02 -0.40418983638E+03  0.67591917967E+02  0.42108447396E+03  0.91867601442E+02 0.  0.
          4    1    3    3  502    0 -0.14190187417E+03  0.91597378550E+02  0.11230259752E+01  0.16890080769E+03  0.00000000000E+00 0. -1.
         -3    1    3    3    0  502 -0.55526332557E+03  0.55777508494E+03 -0.29612179668E+02  0.78759589085E+03  0.00000000000E+00 0.  1.
         11    1    5    5    0    0  0.20541764974E+03 -0.86512056067E+02 -0.19739074741E+03  0.29773117713E+03  0.00000000000E+00 0. -1.
        -11    1    5    5    0    0  0.46117980861E+03 -0.15867057105E+03 -0.61962849270E+03  0.78854463092E+03  0.00000000000E+00 0.  1.
          3    1    6    6  503    0 -0.24338232809E+02 -0.24433895940E+03  0.54762372646E+02  0.25158059169E+03  0.00000000000E+00 0. -1.
         -3    1    6    6    0  503  0.54905974197E+02 -0.15985087698E+03  0.12829545321E+02  0.16950388227E+03  0.00000000000E+00 0.  1.
<mgrwt>
<rscale>  0 0.23378274E+04</rscale>
<asrwt>0</asrwt>
<pdfrwt beam="1">  1        2 0.12968773E+00 0.23378274E+04</pdfrwt>
<pdfrwt beam="2">  1       -1 0.24936719E+00 0.23378274E+04</pdfrwt>
<totfact> 0.23292862E+00</totfact>
</mgrwt>
</event>
<event>
12    6  0.1402540E-007  0.2135795E+04  0.7818608E-02  0.8545637E-01
         -1   -1    0    0    0  501 -0.00000000000E+00  0.00000000000E+00  0.97587959444E+03  0.97587959444E+03  0.00000000000E+00 0.  1.
          2   -1    0    0  501    0  0.00000000000E+00 -0.00000000000E+00 -0.11685916531E+04  0.11685916531E+04  0.00000000000E+00 0. -1.
         24    2    1    2    0    0  0.23025799454E+03 -0.80601014052E+03 -0.34192190159E+03  0.90828473735E+03  0.73481199272E+02 0.  0.
        254    2    1    2    0    0 -0.23025799454E+03  0.80601014052E+03  0.14920984290E+03  0.12361865102E+04  0.89622676827E+03 0.  0.
         23    2    4    4    0    0 -0.32076666527E+03  0.77989028673E+03  0.41219494522E+03  0.94300173598E+03  0.90705503223E+02 0.  0.
         23    2    4    4    0    0  0.90508670729E+02  0.26119853796E+02 -0.26298510232E+03  0.29318477424E+03  0.89006076001E+02 0.  0.
          4    1    3    3  502    0  0.16873070547E+03 -0.67788542352E+03 -0.29846158060E+03  0.75965651019E+03  0.00000000000E+00 0. -1.
         -3    1    3    3    0  502  0.61527289070E+02 -0.12812471701E+03 -0.43460320995E+02  0.14862822716E+03  0.00000000000E+00 0.  1.
         11    1    5    5    0    0 -0.14804995809E+03  0.43449139472E+03  0.18461944751E+03  0.49475842850E+03  0.00000000000E+00 0.  1.
        -11    1    5    5    0    0 -0.17271670718E+03  0.34539889201E+03  0.22757549772E+03  0.44824330748E+03  0.00000000000E+00 0. -1.
          3    1    6    6  503    0 -0.12277371935E+02  0.20822175069E+02 -0.30355617403E+02  0.38804127927E+02  0.00000000000E+00 0. -1.
         -3    1    6    6    0  503  0.10278604266E+03  0.52976787268E+01 -0.23262948492E+03  0.25438064632E+03  0.00000000000E+00 0.  1.
<mgrwt>
<rscale>  0 0.21357947E+04</rscale>
<asrwt>0</asrwt>
<pdfrwt beam="1">  1        2 0.17978333E+00 0.21357947E+04</pdfrwt>
<pdfrwt beam="2">  1       -1 0.15013532E+00 0.21357947E+04</pdfrwt>
<totfact> 0.72137163E+00</totfact>
</mgrwt>
</event>
<event>
12    6  0.1402540E-007  0.2147737E+04  0.7818608E-02  0.8540501E-01
          2   -1    0    0  501    0  0.00000000000E+00  0.00000000000E+00  0.28299842044E+04  0.28299842044E+04  0.00000000000E+00 0. -1.
         -1   -1    0    0    0  501 -0.00000000000E+00 -0.00000000000E+00 -0.40749134772E+03  0.40749134772E+03  0.00000000000E+00 0.  1.
         24    2    1    2    0    0  0.25260880351E+03  0.83834616340E+03  0.11756052547E+04  0.14680377764E+04  0.80322480163E+02 0.  0.
        254    2    1    2    0    0 -0.25260880351E+03 -0.83834616340E+03  0.12468876020E+04  0.17694377757E+04  0.89974766064E+03 0.  0.
         23    2    4    4    0    0  0.14623293772E+03  0.19168920843E+02  0.58962681850E+03  0.61423178059E+03  0.88709501177E+02 0.  0.
         23    2    4    4    0    0 -0.39884174123E+03 -0.85751508424E+03  0.65726078351E+03  0.11552059951E+04  0.90012773493E+02 0.  0.
          2    1    3    3  502    0  0.14228988424E+03  0.35031345842E+03  0.53714626370E+03  0.65688053626E+03  0.00000000000E+00 0. -1.
         -1    1    3    3    0  502  0.11031891927E+03  0.48803270498E+03  0.63845899099E+03  0.81115724015E+03  0.00000000000E+00 0.  1.
         11    1    5    5    0    0  0.93873556035E+02  0.13375349584E+02  0.20325080199E+03  0.22428114724E+03  0.00000000000E+00 0.  1.
        -11    1    5    5    0    0  0.52359381689E+02  0.57935712582E+01  0.38637601651E+03  0.38995063335E+03  0.00000000000E+00 0. -1.
          2    1    6    6  503    0 -0.31033770465E+03 -0.74310213873E+03  0.56160425605E+03  0.98178898951E+03  0.00000000000E+00 0. -1.
         -2    1    6    6    0  503 -0.88504036578E+02 -0.11441294551E+03  0.95656527464E+02  0.17341700562E+03  0.00000000000E+00 0.  1.
<mgrwt>
<rscale>  0 0.21477375E+04</rscale>
<asrwt>0</asrwt>
<pdfrwt beam="1">  1        2 0.43538217E+00 0.21477375E+04</pdfrwt>
<pdfrwt beam="2">  1       -1 0.62690978E-01 0.21477375E+04</pdfrwt>
<totfact> 0.59838967E+00</totfact>
</mgrwt>
</event>
<event>
12    6  0.1402540E-007  0.1034871E+04  0.7818608E-02  0.9271105E-01
          2   -1    0    0  501    0  0.00000000000E+00  0.00000000000E+00  0.43910634012E+03  0.43910634012E+03  0.00000000000E+00 0. -1.
         -1   -1    0    0    0  501 -0.00000000000E+00 -0.00000000000E+00 -0.60973692265E+03  0.60973692265E+03  0.00000000000E+00 0.  1.
         24    2    1    2    0    0  0.57869748706E+02  0.13602903652E+02  0.63636751377E+02  0.11841223079E+03  0.80236360036E+02 0.  0.
        254    2    1    2    0    0 -0.57869748706E+02 -0.13602903652E+02 -0.23426733391E+03  0.93043103198E+03  0.89849138823E+03 0.  0.
         23    2    4    4    0    0  0.39942022754E+03  0.42821777660E+02 -0.20490706625E+03  0.45978600970E+03  0.89699755336E+02 0.  0.
         23    2    4    4    0    0 -0.45728997625E+03 -0.56424681312E+02 -0.29360267665E+02  0.47064502228E+03  0.91361067407E+02 0.  0.
          4    1    3    3  502    0  0.22467282889E+02  0.12973992950E+02  0.76469249184E+02  0.80750537857E+02  0.00000000000E+00 0. -1.
         -3    1    3    3    0  502  0.35402465817E+02  0.62891070221E+00 -0.12832497807E+02  0.37661692933E+02  0.00000000000E+00 0.  1.
         11    1    5    5    0    0  0.83358439191E+02  0.18370687442E+01 -0.85552232448E+02  0.11946208052E+03  0.00000000000E+00 0.  1.
        -11    1    5    5    0    0  0.31606178835E+03  0.40984708916E+02 -0.11935483380E+03  0.34032392918E+03  0.00000000000E+00 0. -1.
          3    1    6    6  503    0 -0.41745668777E+03 -0.65544956357E+02 -0.48824334876E+02  0.42538223182E+03  0.00000000000E+00 0. -1.
         -3    1    6    6    0  503 -0.39833288472E+02  0.91202750448E+01  0.19464067211E+02  0.45262790456E+02  0.00000000000E+00 0.  1.
<mgrwt>
<rscale>  0 0.10348707E+04</rscale>
<asrwt>0</asrwt>
<pdfrwt beam="1">  1        2 0.67554822E-01 0.10348707E+04</pdfrwt>
<pdfrwt beam="2">  1       -1 0.93805680E-01 0.10348707E+04</pdfrwt>
<totfact> 0.89897710E+01</totfact>
</mgrwt>
</event>
<event>
12    6  0.1402540E-007  0.2838023E+04  0.7818608E-02  0.8291560E-01
         -1   -1    0    0    0  501 -0.00000000000E+00  0.00000000000E+00  0.11755330673E+04  0.11755330673E+04  0.00000000000E+00 0.  1.
          2   -1    0    0  501    0  0.00000000000E+00 -0.00000000000E+00 -0.17129196810E+04  0.17129196810E+04  0.00000000000E+00 0. -1.
         24    2    1    2    0    0 -0.10536832237E+04 -0.51090106327E+03  0.27172009590E+03  0.12044160161E+04  0.74282548580E+02 0.  0.
        254    2    1    2    0    0  0.10536832237E+04  0.51090106327E+03 -0.80910670960E+03  0.16840367321E+04  0.90003211900E+03 0.  0.
         23    2    4    4    0    0  0.98391100848E+03  0.21201050872E+03 -0.89779307585E+03  0.13519153292E+04  0.92807983775E+02 0.  0.
         23    2    4    4    0    0  0.69772215230E+02  0.29889055455E+03  0.88686366250E+02  0.33212140292E+03  0.90750366953E+02 0.  0.
          4    1    3    3  502    0 -0.54250508027E+03 -0.27455477603E+03  0.17762668307E+03  0.63343770467E+03  0.00000000000E+00 0. -1.
         -3    1    3    3    0  502 -0.51117814344E+03 -0.23634628724E+03  0.94093412832E+02  0.57097831147E+03  0.00000000000E+00 0.  1.
         11    1    5    5    0    0  0.25266788020E+03  0.26107802221E+02 -0.18798377404E+03  0.31600723777E+03  0.00000000000E+00 0. -1.
        -11    1    5    5    0    0  0.73124312828E+03  0.18590270650E+03 -0.70980930182E+03  0.10359080914E+04  0.00000000000E+00 0.  1.
          2    1    6    6  503    0  0.68477901988E+02  0.10028877048E+03  0.35361993831E+02  0.12648134705E+03  0.00000000000E+00 0.  1.
         -2    1    6    6    0  503  0.12943132418E+01  0.19860178407E+03  0.53324372419E+02  0.20564005587E+03  0.00000000000E+00 0. -1.
<mgrwt>
<rscale>  0 0.28380231E+04</rscale>
<asrwt>0</asrwt>
<pdfrwt beam="1">  1        2 0.26352610E+00 0.28380231E+04</pdfrwt>
<pdfrwt beam="2">  1       -1 0.18085124E+00 0.28380231E+04</pdfrwt>
<totfact> 0.19544578E+00</totfact>
</mgrwt>
</event>
<event>
12    6  0.1402540E-007  0.1268860E+04  0.7818608E-02  0.9054631E-01
         -1   -1    0    0    0  501 -0.00000000000E+00  0.00000000000E+00  0.32630422049E+03  0.32630422049E+03  0.00000000000E+00 0.  1.
          2   -1    0    0  501    0  0.00000000000E+00 -0.00000000000E+00 -0.12335156853E+04  0.12335156853E+04  0.00000000000E+00 0. -1.
         24    2    1    2    0    0  0.28520676203E+03 -0.88452057499E+02 -0.12053574533E+03  0.33220117425E+03  0.81621631253E+02 0.  0.
        254    2    1    2    0    0 -0.28520676203E+03  0.88452057499E+02 -0.78667571950E+03  0.12276187316E+04  0.89388052829E+03 0.  0.
         23    2    4    4    0    0  0.15061357781E+03 -0.30188048558E+03 -0.24947720238E+03  0.42824585880E+03  0.85670086274E+02 0.  0.
         23    2    4    4    0    0 -0.43582033984E+03  0.39033254308E+03 -0.53719851713E+03  0.79937287276E+03  0.90088179593E+02 0.  0.
          2    1    3    3  502    0  0.26130070284E+03 -0.10318224234E+03 -0.10371437232E+03  0.29946836806E+03  0.00000000000E+00 0. -1.
         -1    1    3    3    0  502  0.23906059185E+02  0.14730184845E+02 -0.16821373003E+02  0.32732806190E+02  0.00000000000E+00 0.  1.
         11    1    5    5    0    0  0.12864016090E+03 -0.18642221151E+03 -0.19424872838E+03  0.29838582476E+03  0.00000000000E+00 0.  1.
        -11    1    5    5    0    0  0.21973416907E+02 -0.11545827407E+03 -0.55228473998E+02  0.12986003404E+03  0.00000000000E+00 0. -1.
          1    1    6    6  503    0 -0.20381241043E+03  0.17626083712E+03 -0.30817858340E+03  0.40936709762E+03  0.00000000000E+00 0. -1.
         -1    1    6    6    0  503 -0.23200792941E+03  0.21407170596E+03 -0.22901993373E+03  0.39000577514E+03  0.00000000000E+00 0.  1.
<mgrwt>
<rscale>  0 0.12688599E+04</rscale>
<asrwt>0</asrwt>
<pdfrwt beam="1">  1        2 0.18977164E+00 0.12688599E+04</pdfrwt>
<pdfrwt beam="2">  1       -1 0.50200650E-01 0.12688599E+04</pdfrwt>
<totfact> 0.80665425E+01</totfact>
</mgrwt>
</event>
<event>
12    6  0.1402540E-007  0.2165535E+04  0.7818608E-02  0.8532912E-01
          2   -1    0    0  501    0  0.00000000000E+00  0.00000000000E+00  0.14080232200E+04  0.14080232200E+04  0.00000000000E+00 0. -1.
         -1   -1    0    0    0  501 -0.00000000000E+00 -0.00000000000E+00 -0.83264616359E+03  0.83264616359E+03  0.00000000000E+00 0.  1.
         24    2    1    2    0    0 -0.82950902286E+03  0.27032945283E+03  0.26120964677E+02  0.87637422202E+03  0.78652655099E+02 0.  0.
        254    2    1    2    0    0  0.82950902286E+03 -0.27032945283E+03  0.54925609172E+03  0.13642951616E+04  0.89356354081E+03 0.  0.
         23    2    4    4    0    0  0.80521516217E+03  0.14072761090E+03  0.41775253718E+03  0.92234662773E+03  0.89612507469E+02 0.  0.
         23    2    4    4    0    0  0.24293860693E+02 -0.41105706373E+03  0.13150355454E+03  0.44194853382E+03  0.92017500427E+02 0.  0.
          4    1    3    3  502    0 -0.71457114007E+03  0.20333135142E+03  0.23532683355E+02  0.74330972002E+03  0.00000000000E+00 0. -1.
         -3    1    3    3    0  502 -0.11493788280E+03  0.66998101406E+02  0.25882813222E+01  0.13306450200E+03  0.00000000000E+00 0.  1.
         11    1    5    5    0    0  0.33269895285E+03  0.99668704929E+02  0.19562269923E+03  0.39861094368E+03  0.00000000000E+00 0. -1.
        -11    1    5    5    0    0  0.47251620933E+03  0.41058905973E+02  0.22212983795E+03  0.52373568405E+03  0.00000000000E+00 0.  1.
          4    1    6    6  503    0 -0.41085135813E+01 -0.51427730366E+02 -0.13209927916E+02  0.53255924834E+02  0.00000000000E+00 0. -1.
         -4    1    6    6    0  503  0.28402374274E+02 -0.35962933336E+03  0.14471348246E+03  0.38869260899E+03  0.00000000000E+00 0.  1.
<mgrwt>
<rscale>  0 0.21655347E+04</rscale>
<asrwt>0</asrwt>
<pdfrwt beam="1">  1        2 0.21661896E+00 0.21655347E+04</pdfrwt>
<pdfrwt beam="2">  1       -1 0.12809941E+00 0.21655347E+04</pdfrwt>
<totfact> 0.78719369E+00</totfact>
</mgrwt>
</event>
<event>
12    6  0.1402540E-007  0.3158394E+04  0.7818608E-02  0.8199892E-01
         -1   -1    0    0    0  501 -0.00000000000E+00  0.00000000000E+00  0.11829123905E+04  0.11829123905E+04  0.00000000000E+00 0.  1.
          2   -1    0    0  501    0  0.00000000000E+00 -0.00000000000E+00 -0.21082399911E+04  0.21082399911E+04  0.00000000000E+00 0. -1.
         24    2    1    2    0    0  0.10364556825E+04 -0.90157048193E+03 -0.90836650098E+03  0.16490298387E+04  0.84261457198E+02 0.  0.
        254    2    1    2    0    0 -0.10364556825E+04  0.90157048193E+03 -0.16961099682E+02  0.16421225429E+04  0.89956047663E+03 0.  0.
         23    2    4    4    0    0 -0.83671180392E+03  0.87497887462E+03  0.30468450510E+03  0.12516809858E+04  0.90542634335E+02 0.  0.
         23    2    4    4    0    0 -0.19974387862E+03  0.26591607312E+02 -0.32164560478E+03  0.39044155710E+03  0.91564096729E+02 0.  0.
          2    1    3    3  502    0  0.52024465020E+03 -0.47771208104E+03 -0.51186524466E+03  0.87227825670E+03  0.00000000000E+00 0. -1.
         -1    1    3    3    0  502  0.51621103234E+03 -0.42385840089E+03 -0.39650125632E+03  0.77675158203E+03  0.00000000000E+00 0.  1.
         11    1    5    5    0    0 -0.31591980380E+02  0.25231443050E+02  0.26953852605E+02  0.48592068416E+02  0.00000000000E+00 0. -1.
        -11    1    5    5    0    0 -0.80511982354E+03  0.84974743157E+03  0.27773065249E+03  0.12030889173E+04  0.00000000000E+00 0.  1.
          1    1    6    6  503    0 -0.47310608136E+02 -0.15885311355E+01 -0.20187406081E+02  0.51462106813E+02  0.00000000000E+00 0. -1.
         -1    1    6    6    0  503 -0.15243327049E+03  0.28180138447E+02 -0.30145819870E+03  0.33897945028E+03  0.00000000000E+00 0.  1.
<mgrwt>
<rscale>  0 0.31583940E+04</rscale>
<asrwt>0</asrwt>
<pdfrwt beam="1">  1        2 0.32434461E+00 0.31583940E+04</pdfrwt>
<pdfrwt beam="2">  1       -1 0.18198652E+00 0.31583940E+04</pdfrwt>
<totfact> 0.11250762E+00</totfact>
</mgrwt>
</event>
<event>
12    6  0.1402540E-007  0.1526842E+04  0.7818608E-02  0.8866797E-01
          2   -1    0    0  501    0  0.00000000000E+00  0.00000000000E+00  0.33106388986E+04  0.33106388986E+04  0.00000000000E+00 0. -1.
         -1   -1    0    0    0  501 -0.00000000000E+00 -0.00000000000E+00 -0.17604194808E+03  0.17604194808E+03  0.00000000000E+00 0.  1.
         24    2    1    2    0    0  0.30826998602E+03  0.37666653988E+03  0.12278652134E+04  0.13226461469E+04  0.69511014794E+02 0.  0.
        254    2    1    2    0    0 -0.30826998602E+03 -0.37666653988E+03  0.19067317371E+04  0.21640346997E+04  0.90028450938E+03 0.  0.
         23    2    4    4    0    0 -0.24639176455E+03 -0.40483406313E+03  0.19746159447E+04  0.20331500528E+04  0.99957430054E+02 0.  0.
         23    2    4    4    0    0 -0.61878221476E+02  0.28167523248E+02 -0.67884207595E+02  0.13088464693E+03  0.88883077711E+02 0.  0.
          2    1    3    3  502    0  0.19483878544E+03  0.18362803684E+03  0.66045220362E+03  0.71265596293E+03  0.00000000000E+00 0. -1.
         -1    1    3    3    0  502  0.11343120058E+03  0.19303850304E+03  0.56741300979E+03  0.60999018402E+03  0.00000000000E+00 0.  1.
         11    1    5    5    0    0 -0.16189123132E+02 -0.62925092201E+02  0.41170849240E+03  0.41680395590E+03  0.00000000000E+00 0. -1.
        -11    1    5    5    0    0 -0.23020264141E+03 -0.34190897093E+03  0.15629074523E+04  0.16163460969E+04  0.00000000000E+00 0.  1.
          3    1    6    6  503    0 -0.26243274062E+02 -0.31534265414E+02 -0.15600342381E+02  0.43891798905E+02  0.00000000000E+00 0. -1.
         -3    1    6    6    0  503 -0.35634947414E+02  0.59701788662E+02 -0.52283865214E+02  0.86992848030E+02  0.00000000000E+00 0.  1.
<mgrwt>
<rscale>  0 0.15268416E+04</rscale>
<asrwt>0</asrwt>
<pdfrwt beam="1">  1        2 0.50932902E+00 0.15268416E+04</pdfrwt>
<pdfrwt beam="2">  1       -1 0.27083379E-01 0.15268416E+04</pdfrwt>
<totfact> 0.14835964E+01</totfact>
</mgrwt>
</event>
<event>
12    6  0.1402540E-007  0.2126038E+04  0.7818608E-02  0.8549859E-01
         -1   -1    0    0    0  501 -0.00000000000E+00  0.00000000000E+00  0.33860325400E+03  0.33860325400E+03  0.00000000000E+00 0.  1.
          2   -1    0    0  501    0  0.00000000000E+00 -0.00000000000E+00 -0.33372664845E+04  0.33372664845E+04  0.00000000000E+00 0. -1.
         24    2    1    2    0    0  0.68917089180E+03  0.16875121495E+03 -0.36093322684E+03  0.79999912896E+03  0.79324154222E+02 0.  0.
        254    2    1    2    0    0 -0.68917089180E+03 -0.16875121495E+03 -0.26377300036E+04  0.28758706095E+04  0.89976591398E+03 0.  0.
         23    2    4    4    0    0 -0.85583212413E+03 -0.26938618871E+03 -0.18374840783E+04  0.20471929541E+04  0.98151464714E+02 0.  0.
         23    2    4    4    0    0  0.16666123233E+03  0.10063497376E+03 -0.80024592530E+03  0.82867765537E+03  0.91704695848E+02 0.  0.
          2    1    3    3  502    0  0.30519915537E+03  0.11354531399E+03 -0.15148908491E+03  0.35914900197E+03  0.00000000000E+00 0. -1.
         -1    1    3    3    0  502  0.38397173643E+03  0.55205900962E+02 -0.20944414193E+03  0.44085012699E+03  0.00000000000E+00 0.  1.
         11    1    5    5    0    0 -0.42162285009E+03 -0.10101564232E+03 -0.97371970235E+03  0.10658799400E+04  0.00000000000E+00 0. -1.
        -11    1    5    5    0    0 -0.43420927404E+03 -0.16837054639E+03 -0.86376437597E+03  0.98131301415E+03  0.00000000000E+00 0.  1.
          3    1    6    6  503    0  0.30373883442E+02  0.47743344053E+02 -0.11698078330E+03  0.12994807947E+03  0.00000000000E+00 0. -1.
         -3    1    6    6    0  503  0.13628734889E+03  0.52891629705E+02 -0.68326514200E+03  0.69872957590E+03  0.00000000000E+00 0.  1.
<mgrwt>
<rscale>  0 0.21260379E+04</rscale>
<asrwt>0</asrwt>
<pdfrwt beam="1">  1        2 0.51342561E+00 0.21260379E+04</pdfrwt>
<pdfrwt beam="2">  1       -1 0.52092808E-01 0.21260379E+04</pdfrwt>
<totfact> 0.40969258E+00</totfact>
</mgrwt>
</event>
<event>
12    6  0.1402540E-007  0.2433589E+04  0.7818608E-02  0.8427034E-01
          2   -1    0    0  501    0  0.00000000000E+00  0.00000000000E+00  0.18643911393E+04  0.18643911393E+04  0.00000000000E+00 0. -1.
         -1   -1    0    0    0  501 -0.00000000000E+00 -0.00000000000E+00 -0.79414044744E+03  0.79414044744E+03  0.00000000000E+00 0.  1.
         24    2    1    2    0    0  0.38947164675E+03  0.96963715524E+03  0.35853542196E+03  0.11067868788E+04  0.67417875463E+02 0.  0.
        254    2    1    2    0    0 -0.38947164675E+03 -0.96963715524E+03  0.71171526988E+03  0.15517447079E+04  0.89971586435E+03 0.  0.
         23    2    4    4    0    0 -0.33047068337E+03 -0.68327704779E+03 -0.13394793368E+02  0.76465847630E+03  0.91895420378E+02 0.  0.
         23    2    4    4    0    0 -0.59000963383E+02 -0.28636010745E+03  0.72511006325E+03  0.78708623157E+03  0.90757408978E+02 0.  0.
          2    1    3    3  502    0  0.21410271541E+03  0.61815680077E+03  0.21592061306E+03  0.68889731762E+03  0.00000000000E+00 0. -1.
         -1    1    3    3    0  502  0.17536893134E+03  0.35148035447E+03  0.14261480890E+03  0.41788956122E+03  0.00000000000E+00 0.  1.
         11    1    5    5    0    0 -0.87480717756E+02 -0.11254027846E+03 -0.22351900800E+02  0.14428374033E+03  0.00000000000E+00 0.  1.
        -11    1    5    5    0    0 -0.24298996561E+03 -0.57073676933E+03  0.89571074320E+01  0.62037473597E+03  0.00000000000E+00 0. -1.
          1    1    6    6  503    0 -0.39078842678E+02 -0.27572076719E+03  0.69975488976E+03  0.75313080083E+03  0.00000000000E+00 0. -1.
         -1    1    6    6    0  503 -0.19922120705E+02 -0.10639340266E+02  0.25355173482E+02  0.33955430743E+02  0.00000000000E+00 0.  1.
<mgrwt>
<rscale>  0 0.24335886E+04</rscale>
<asrwt>0</asrwt>
<pdfrwt beam="1">  1        2 0.28682940E+00 0.24335886E+04</pdfrwt>
<pdfrwt beam="2">  1       -1 0.12217545E+00 0.24335886E+04</pdfrwt>
<totfact> 0.48042637E+00</totfact>
</mgrwt>
</event>
<event>
12    6  0.1402540E-007  0.2643658E+04  0.7818608E-02  0.8353521E-01
          2   -1    0    0  501    0  0.00000000000E+00  0.00000000000E+00  0.25101287909E+04  0.25101287909E+04  0.00000000000E+00 0. -1.
         -1   -1    0    0    0  501 -0.00000000000E+00 -0.00000000000E+00 -0.69607236889E+03  0.69607236889E+03  0.00000000000E+00 0.  1.
         24    2    1    2    0    0 -0.11358599236E+04 -0.11000491666E+03  0.50805219600E+03  0.12516404465E+04  0.78790391199E+02 0.  0.
        254    2    1    2    0    0  0.11358599236E+04  0.11000491666E+03  0.13060042260E+04  0.19545607132E+04  0.90132219299E+03 0.  0.
         23    2    4    4    0    0  0.84305253069E+03  0.14835473541E+03  0.31605839270E+03  0.91732806200E+03  0.94080650045E+02 0.  0.
         23    2    4    4    0    0  0.29280739294E+03 -0.38349818750E+02  0.98994583329E+03  0.10372326512E+04  0.93015815621E+02 0.  0.
          2    1    3    3  502    0 -0.59766329967E+03 -0.83316084134E+02  0.30128633801E+03  0.67447494180E+03  0.00000000000E+00 0. -1.
         -1    1    3    3    0  502 -0.53819662396E+03 -0.26688832531E+02  0.20676585799E+03  0.57716550474E+03  0.00000000000E+00 0.  1.
         11    1    5    5    0    0  0.46714185647E+03  0.55708528029E+02  0.21465879016E+03  0.51711057846E+03  0.00000000000E+00 0.  1.
        -11    1    5    5    0    0  0.37591067422E+03  0.92646207386E+02  0.10139960253E+03  0.40021748354E+03  0.00000000000E+00 0. -1.
          1    1    6    6  503    0  0.24026026056E+03 -0.30335276108E+02  0.65985936423E+03  0.70289373475E+03  0.00000000000E+00 0. -1.
         -1    1    6    6    0  503  0.52547132376E+02 -0.80145426418E+01  0.33008646905E+03  0.33433891647E+03  0.00000000000E+00 0.  1.
<mgrwt>
<rscale>  0 0.26436575E+04</rscale>
<asrwt>0</asrwt>
<pdfrwt beam="1">  1        2 0.38617366E+00 0.26436575E+04</pdfrwt>
<pdfrwt beam="2">  1       -1 0.10708806E+00 0.26436575E+04</pdfrwt>
<totfact> 0.27976296E+00</totfact>
</mgrwt>
</event>
<event>
12    6  0.1402540E-007  0.1465829E+04  0.7818608E-02  0.8907500E-01
         -1   -1    0    0    0  501 -0.00000000000E+00  0.00000000000E+00  0.63371332400E+03  0.63371332400E+03  0.00000000000E+00 0.  1.
          2   -1    0    0  501    0  0.00000000000E+00 -0.00000000000E+00 -0.84764455619E+03  0.84764455619E+03  0.00000000000E+00 0. -1.
         24    2    1    2    0    0 -0.29121169747E+03 -0.29628123184E+03  0.11126532994E+03  0.43755498018E+03  0.80545427883E+02 0.  0.
        254    2    1    2    0    0  0.29121169747E+03  0.29628123184E+03 -0.32519656213E+03  0.10438029000E+04  0.90065801997E+03 0.  0.
         23    2    4    4    0    0  0.50818438131E+03  0.39530109610E+03 -0.26412483335E+02  0.65090621205E+03  0.92016061757E+02 0.  0.
         23    2    4    4    0    0 -0.21697268384E+03 -0.99019864257E+02 -0.29878407879E+03  0.39289668795E+03  0.90630031503E+02 0.  0.
          4    1    3    3  502    0 -0.19370358630E+03 -0.20447866654E+03  0.11335554111E+03  0.30361502452E+03  0.00000000000E+00 0. -1.
         -3    1    3    3    0  502 -0.97508111172E+02 -0.91802565304E+02 -0.20902111724E+01  0.13393995566E+03  0.00000000000E+00 0.  1.
         11    1    5    5    0    0  0.78256850859E+02  0.47982828264E+02 -0.34746879919E+02  0.98152086980E+02  0.00000000000E+00 0. -1.
        -11    1    5    5    0    0  0.42992753046E+03  0.34731826783E+03  0.83343965842E+01  0.55275412507E+03  0.00000000000E+00 0.  1.
          4    1    6    6  503    0 -0.15437999927E+03 -0.11057048100E+03 -0.24192108267E+03  0.30754646102E+03  0.00000000000E+00 0.  1.
         -4    1    6    6    0  503 -0.62592684572E+02  0.11550616747E+02 -0.56862996120E+02  0.85350226929E+02  0.00000000000E+00 0. -1.
<mgrwt>
<rscale>  0 0.14658290E+04</rscale>
<asrwt>0</asrwt>
<pdfrwt beam="1">  1        2 0.13040685E+00 0.14658290E+04</pdfrwt>
<pdfrwt beam="2">  1       -1 0.97494358E-01 0.14658290E+04</pdfrwt>
<totfact> 0.35587964E+01</totfact>
</mgrwt>
</event>
<event>
12    6  0.1402540E-007  0.1576027E+04  0.7818608E-02  0.8835413E-01
         -1   -1    0    0    0  501 -0.00000000000E+00  0.00000000000E+00  0.28167531454E+03  0.28167531454E+03  0.00000000000E+00 0.  1.
          2   -1    0    0  501    0  0.00000000000E+00 -0.00000000000E+00 -0.22045421693E+04  0.22045421693E+04  0.00000000000E+00 0. -1.
         24    2    1    2    0    0 -0.24491727117E+03  0.40753474579E+03 -0.28795540201E+03  0.56073819626E+03  0.73756168958E+02 0.  0.
        254    2    1    2    0    0  0.24491727117E+03 -0.40753474579E+03 -0.16349114528E+04  0.19254792876E+04  0.89914736825E+03 0.  0.
         23    2    4    4    0    0 -0.21248810648E+03 -0.48383011899E+03 -0.74320675913E+03  0.91623447868E+03  0.88806270374E+02 0.  0.
         23    2    4    4    0    0  0.45740537765E+03  0.76295373207E+02 -0.89170469366E+03  0.10092448089E+04  0.91636020202E+02 0.  0.
          2    1    3    3  502    0 -0.15343723971E+03  0.20737426940E+03 -0.18698072430E+03  0.31860455960E+03  0.00000000000E+00 0. -1.
         -1    1    3    3    0  502 -0.91480031465E+02  0.20016047639E+03 -0.10097467770E+03  0.24213363666E+03  0.00000000000E+00 0.  1.
         11    1    5    5    0    0 -0.31180223045E+02 -0.79995455290E+02 -0.71241215297E+02  0.11156518244E+03  0.00000000000E+00 0. -1.
        -11    1    5    5    0    0 -0.18130788343E+03 -0.40383466371E+03 -0.67196554384E+03  0.80466929624E+03  0.00000000000E+00 0.  1.
          3    1    6    6  503    0  0.17010503652E+03 -0.12824425091E+02 -0.35930518692E+03  0.39774414725E+03  0.00000000000E+00 0. -1.
         -3    1    6    6    0  503  0.28730034113E+03  0.89119798298E+02 -0.53239950674E+03  0.61150066169E+03  0.00000000000E+00 0.  1.
<mgrwt>
<rscale>  0 0.15760268E+04</rscale>
<asrwt>0</asrwt>
<pdfrwt beam="1">  1        2 0.33916033E+00 0.15760268E+04</pdfrwt>
<pdfrwt beam="2">  1       -1 0.43334664E-01 0.15760268E+04</pdfrwt>
<totfact> 0.29536470E+01</totfact>
</mgrwt>
</event>
<event>
12    6  0.1402540E-007  0.1767001E+04  0.7818608E-02  0.8724047E-01
         -1   -1    0    0    0  501 -0.00000000000E+00  0.00000000000E+00  0.64971292748E+03  0.64971292748E+03  0.00000000000E+00 0.  1.
          2   -1    0    0  501    0  0.00000000000E+00 -0.00000000000E+00 -0.12014129124E+04  0.12014129124E+04  0.00000000000E+00 0. -1.
         24    2    1    2    0    0 -0.12678458199E+03  0.52488228515E+03  0.19200563164E+03  0.57855755407E+03  0.79290209343E+02 0.  0.
        254    2    1    2    0    0  0.12678458199E+03 -0.52488228515E+03 -0.74370561657E+03  0.12725682858E+04  0.88020239403E+03 0.  0.
         23    2    4    4    0    0 -0.21651191573E+03  0.31380699669E+02  0.47874492280E+02  0.24218889310E+03  0.92202684157E+02 0.  0.
         23    2    4    4    0    0  0.34329649772E+03 -0.55626298482E+03 -0.79158010885E+03  0.10303793927E+04  0.88326839505E+02 0.  0.
          4    1    3    3  502    0 -0.15162373479E+02  0.21531450631E+03  0.60391977025E+02  0.22413706763E+03  0.00000000000E+00 0. -1.
         -3    1    3    3    0  502 -0.11162220851E+03  0.30956777884E+03  0.13161365462E+03  0.35442048644E+03  0.00000000000E+00 0.  1.
         11    1    5    5    0    0 -0.13165775138E+03 -0.20320373435E+02  0.51332742988E+02  0.14276460198E+03  0.00000000000E+00 0.  1.
        -11    1    5    5    0    0 -0.84854164349E+02  0.51701073103E+02 -0.34582507078E+01  0.99424291124E+02  0.00000000000E+00 0. -1.
          1    1    6    6  503    0  0.10419128854E+03 -0.23397476829E+03 -0.26810792921E+03  0.37078548854E+03  0.00000000000E+00 0. -1.
         -1    1    6    6    0  503  0.23910520918E+03 -0.32228821652E+03 -0.52347217964E+03  0.65959390417E+03  0.00000000000E+00 0.  1.
<mgrwt>
<rscale>  0 0.17670014E+04</rscale>
<asrwt>0</asrwt>
<pdfrwt beam="1">  1        2 0.18483275E+00 0.17670014E+04</pdfrwt>
<pdfrwt beam="2">  1       -1 0.99955837E-01 0.17670014E+04</pdfrwt>
<totfact> 0.19468814E+01</totfact>
</mgrwt>
</event>
<event>
12    6  0.1402540E-007  0.1719563E+04  0.7818608E-02  0.8750285E-01
          2   -1    0    0  501    0  0.00000000000E+00  0.00000000000E+00  0.36068105846E+04  0.36068105846E+04  0.00000000000E+00 0. -1.
         -1   -1    0    0    0  501 -0.00000000000E+00 -0.00000000000E+00 -0.20495229036E+03  0.20495229036E+03  0.00000000000E+00 0.  1.
         24    2    1    2    0    0  0.40879363315E+03 -0.86046122984E+02  0.22011894868E+03  0.47857676416E+03  0.77892219393E+02 0.  0.
        254    2    1    2    0    0 -0.40879363315E+03  0.86046122984E+02  0.31817393456E+04  0.33331861108E+04  0.90119266329E+03 0.  0.
         23    2    4    4    0    0 -0.51586753902E+03  0.19386224640E+03  0.10097458013E+04  0.11540170634E+04  0.92015818790E+02 0.  0.
         23    2    4    4    0    0  0.10707390587E+03 -0.10781612342E+03  0.21719935443E+04  0.21791690475E+04  0.90181168596E+02 0.  0.
          2    1    3    3  502    0  0.90533608193E+02 -0.18429380073E+02  0.87418126253E+02  0.12719239388E+03  0.00000000000E+00 0. -1.
         -3    1    3    3    0  502  0.31826002496E+03 -0.67616742911E+02  0.13270082243E+03  0.35138437029E+03  0.00000000000E+00 0.  1.
         11    1    5    5    0    0 -0.37119562371E+03  0.95006179428E+02  0.67402086643E+03  0.77531702778E+03  0.00000000000E+00 0. -1.
        -11    1    5    5    0    0 -0.14467191531E+03  0.98856066976E+02  0.33572493485E+03  0.37870003557E+03  0.00000000000E+00 0.  1.
          1    1    6    6  503    0  0.62372415733E+02 -0.72476437584E+02  0.18270496717E+04  0.18295501237E+04  0.00000000000E+00 0. -1.
         -1    1    6    6    0  503  0.44701490139E+02 -0.35339685835E+02  0.34494387256E+03  0.34961892373E+03  0.00000000000E+00 0.  1.
<mgrwt>
<rscale>  0 0.17195628E+04</rscale>
<asrwt>0</asrwt>
<pdfrwt beam="1">  1        2 0.55489389E+00 0.17195628E+04</pdfrwt>
<pdfrwt beam="2">  1       -1 0.31531124E-01 0.17195628E+04</pdfrwt>
<totfact> 0.69772880E+00</totfact>
</mgrwt>
</event>
<event>
12    6  0.1402540E-007  0.1615193E+04  0.7818608E-02  0.8811268E-01
          2   -1    0    0  501    0  0.00000000000E+00  0.00000000000E+00  0.12346648454E+04  0.12346648454E+04  0.00000000000E+00 0. -1.
         -1   -1    0    0    0  501 -0.00000000000E+00 -0.00000000000E+00 -0.52825024554E+03  0.52825024554E+03  0.00000000000E+00 0.  1.
         24    2    1    2    0    0 -0.33992195646E+03 -0.15338400136E+03 -0.20208674348E+03  0.43134305195E+03  0.78384872376E+02 0.  0.
        254    2    1    2    0    0  0.33992195646E+03  0.15338400136E+03  0.90850134333E+03  0.13315720390E+04  0.89924180053E+03 0.  0.
         23    2    4    4    0    0 -0.10913404693E+03  0.35012713079E+03  0.11650331586E+03  0.39558953356E+03  0.91754065528E+02 0.  0.
         23    2    4    4    0    0  0.44905600340E+03 -0.19674312942E+03  0.79199802747E+03  0.93598250543E+03  0.91887005548E+02 0.  0.
          2    1    3    3  502    0 -0.10293972957E+03 -0.41858349361E+02 -0.21441361632E+02  0.11317438458E+03  0.00000000000E+00 0. -1.
         -3    1    3    3    0  502 -0.23698222689E+03 -0.11152565200E+03 -0.18064538185E+03  0.31816866737E+03  0.00000000000E+00 0.  1.
         11    1    5    5    0    0 -0.52636005505E+02  0.23954553385E+03  0.11623744038E+03  0.27141067483E+03  0.00000000000E+00 0.  1.
        -11    1    5    5    0    0 -0.56498041429E+02  0.11058159694E+03  0.26587548074E+00  0.12417885873E+03  0.00000000000E+00 0. -1.
          1    1    6    6  503    0  0.33893260858E+03 -0.11229710102E+03  0.52236621285E+03  0.63273407715E+03  0.00000000000E+00 0. -1.
         -1    1    6    6    0  503  0.11012339482E+03 -0.84446028408E+02  0.26963181462E+03  0.30324842828E+03  0.00000000000E+00 0.  1.
<mgrwt>
<rscale>  0 0.16151929E+04</rscale>
<asrwt>0</asrwt>
<pdfrwt beam="1">  1        2 0.18994844E+00 0.16151929E+04</pdfrwt>
<pdfrwt beam="2">  1       -1 0.81269269E-01 0.16151929E+04</pdfrwt>
<totfact> 0.29752624E+01</totfact>
</mgrwt>
</event>
<event>
12    6  0.1402540E-007  0.2160178E+04  0.7818608E-02  0.8535188E-01
          2   -1    0    0  501    0  0.00000000000E+00  0.00000000000E+00  0.27260969489E+04  0.27260969489E+04  0.00000000000E+00 0. -1.
         -1   -1    0    0    0  501 -0.00000000000E+00 -0.00000000000E+00 -0.42793499384E+03  0.42793499384E+03  0.00000000000E+00 0.  1.
         24    2    1    2    0    0  0.11366037728E+03 -0.77449592095E+03  0.15708719101E+04  0.17570038505E+04  0.81617152996E+02 0.  0.
        254    2    1    2    0    0 -0.11366037728E+03  0.77449592095E+03  0.72729004498E+03  0.13970280923E+04  0.89998559333E+03 0.  0.
         23    2    4    4    0    0 -0.26532730317E+03 -0.94405773198E+02  0.26397279379E+03  0.39592608819E+03  0.88118123132E+02 0.  0.
         23    2    4    4    0    0  0.15166692589E+03  0.86890169415E+03  0.46331725119E+03  0.10011020041E+04  0.97720708500E+02 0.  0.
          4    1    3    3  502    0  0.10094799996E+03 -0.74706081759E+03  0.15347474588E+04  0.17098947705E+04  0.00000000000E+00 0. -1.
         -3    1    3    3    0  502  0.12712377321E+02 -0.27435103363E+02  0.36124451304E+02  0.47109079971E+02  0.00000000000E+00 0.  1.
         11    1    5    5    0    0 -0.12296890268E+03 -0.69268852760E+02  0.18003968734E+03  0.22876584974E+03  0.00000000000E+00 0. -1.
        -11    1    5    5    0    0 -0.14235840049E+03 -0.25136920438E+02  0.83933106450E+02  0.16716023845E+03  0.00000000000E+00 0.  1.
          1    1    6    6  503    0  0.62798621748E+02  0.44185160698E+03  0.18151329800E+03  0.48179205767E+03  0.00000000000E+00 0. -1.
         -1    1    6    6    0  503  0.88868304144E+02  0.42705008717E+03  0.28180395319E+03  0.51930994644E+03  0.00000000000E+00 0.  1.
<mgrwt>
<rscale>  0 0.21601780E+04</rscale>
<asrwt>0</asrwt>
<pdfrwt beam="1">  1        2 0.41939952E+00 0.21601780E+04</pdfrwt>
<pdfrwt beam="2">  1       -1 0.65836155E-01 0.21601780E+04</pdfrwt>
<totfact> 0.62556358E+00</totfact>
</mgrwt>
</event>
<event>
12    6  0.1402540E-007  0.2228077E+04  0.7818608E-02  0.8506832E-01
         -1   -1    0    0    0  501 -0.00000000000E+00  0.00000000000E+00  0.52807970856E+03  0.52807970856E+03  0.00000000000E+00 0.  1.
          2   -1    0    0  501    0  0.00000000000E+00 -0.00000000000E+00 -0.23501793152E+04  0.23501793152E+04  0.00000000000E+00 0. -1.
         24    2    1    2    0    0 -0.70541669362E+02 -0.67670684188E+03 -0.15894702199E+04  0.17308397158E+04  0.80512514512E+02 0.  0.
        254    2    1    2    0    0  0.70541669362E+02  0.67670684188E+03 -0.23262938675E+03  0.11474193079E+04  0.89417356239E+03 0.  0.
         23    2    4    4    0    0 -0.26066145044E+03  0.32167877555E+03  0.22002003134E+03  0.47753058541E+03  0.90581562275E+02 0.  0.
         23    2    4    4    0    0  0.33120311981E+03  0.35502806633E+03 -0.45264941809E+03  0.66988872252E+03  0.90105329544E+02 0.  0.
          2    1    3    3  502    0 -0.53352601282E+02 -0.64719128286E+03 -0.15325859660E+04  0.16644887503E+04  0.00000000000E+00 0. -1.
         -1    1    3    3    0  502 -0.17189068080E+02 -0.29515559012E+02 -0.56884253824E+02  0.66350965467E+02  0.00000000000E+00 0.  1.
         11    1    5    5    0    0 -0.56493764405E+02  0.13783241127E+03  0.82787964661E+02  0.17042055658E+03  0.00000000000E+00 0.  1.
        -11    1    5    5    0    0 -0.20416768604E+03  0.18384636428E+03  0.13723206668E+03  0.30711002883E+03  0.00000000000E+00 0. -1.
          1    1    6    6  503    0  0.25292583850E+03  0.32039761602E+03 -0.37682374106E+03  0.55553779706E+03  0.00000000000E+00 0. -1.
         -1    1    6    6    0  503  0.78277281307E+02  0.34630450308E+02 -0.75825677030E+02  0.11435092546E+03  0.00000000000E+00 0.  1.
<mgrwt>
<rscale>  0 0.22280772E+04</rscale>
<asrwt>0</asrwt>
<pdfrwt beam="1">  1        2 0.36156605E+00 0.22280772E+04</pdfrwt>
<pdfrwt beam="2">  1       -1 0.81243032E-01 0.22280772E+04</pdfrwt>
<totfact> 0.66486431E+00</totfact>
</mgrwt>
</event>
<event>
12    6  0.1402540E-007  0.1464457E+04  0.7818608E-02  0.8908439E-01
          2   -1    0    0  501    0  0.00000000000E+00  0.00000000000E+00  0.97448373855E+03  0.97448373855E+03  0.00000000000E+00 0. -1.
         -1   -1    0    0    0  501 -0.00000000000E+00 -0.00000000000E+00 -0.55019776195E+03  0.55019776195E+03  0.00000000000E+00 0.  1.
         24    2    1    2    0    0 -0.37868667987E+03 -0.24288824514E+03  0.17545688029E+03  0.48929238711E+03  0.78889936608E+02 0.  0.
        254    2    1    2    0    0  0.37868667987E+03  0.24288824514E+03  0.24882909630E+03  0.10353891134E+04  0.89873043557E+03 0.  0.
         23    2    4    4    0    0  0.33152678180E+03  0.56053702550E+03  0.24506872340E+03  0.70201235128E+03  0.93010204596E+02 0.  0.
         23    2    4    4    0    0  0.47159898074E+02 -0.31764878035E+03  0.37603729044E+01  0.33337676212E+03  0.89448988082E+02 0.  0.
          2    1    3    3  502    0 -0.30979461214E+03 -0.22694126348E+03  0.16433569739E+03  0.41770954049E+03  0.00000000000E+00 0. -1.
         -1    1    3    3    0  502 -0.68892067732E+02 -0.15946981663E+02  0.11121182906E+02  0.71582846616E+02  0.00000000000E+00 0.  1.
         11    1    5    5    0    0  0.29706746331E+03  0.43852158708E+03  0.17939700521E+03  0.55922584487E+03  0.00000000000E+00 0. -1.
        -11    1    5    5    0    0  0.34459318487E+02  0.12201543841E+03  0.65671718191E+02  0.14278650641E+03  0.00000000000E+00 0.  1.
          1    1    6    6  503    0  0.47076357824E+01 -0.23514243550E+03 -0.24294149025E+02  0.23644097040E+03  0.00000000000E+00 0. -1.
         -1    1    6    6    0  503  0.42452262292E+02 -0.82506344850E+02  0.28054521929E+02  0.96935791712E+02  0.00000000000E+00 0.  1.
<mgrwt>
<rscale>  0 0.14644573E+04</rscale>
<asrwt>0</asrwt>
<pdfrwt beam="1">  1        2 0.14992057E+00 0.14644573E+04</pdfrwt>
<pdfrwt beam="2">  1       -1 0.84645810E-01 0.14644573E+04</pdfrwt>
<totfact> 0.39967324E+01</totfact>
</mgrwt>
</event>
<event>
12    6  0.1938402E-007  0.4552805E+04  0.7818608E-02  0.7901457E-01
          2   -1    0    0  501    0  0.00000000000E+00  0.00000000000E+00  0.21487818883E+04  0.21487818883E+04  0.00000000000E+00 0. -1.
         -1   -1    0    0    0  501 -0.00000000000E+00 -0.00000000000E+00 -0.24116022620E+04  0.24116022620E+04  0.00000000000E+00 0.  1.
         24    2    1    2    0    0  0.71847649143E+03  0.19951897693E+04  0.40808261690E+03  0.21609660073E+04  0.79069453375E+02 0.  0.
        254    2    1    2    0    0 -0.71847649143E+03 -0.19951897693E+04 -0.67090299058E+03  0.23994181430E+04  0.90005884131E+03 0.  0.
         23    2    4    4    0    0 -0.91717009992E+03 -0.17144316239E+04 -0.54546921115E+03  0.20214768481E+04  0.91406794349E+02 0.  0.
         23    2    4    4    0    0  0.19869360849E+03 -0.28075814544E+03 -0.12543377943E+03  0.37794129487E+03  0.93817392099E+02 0.  0.
          4    1    3    3  502    0  0.38849707619E+03  0.96459726020E+03  0.19183023834E+03  0.10574387419E+04  0.00000000000E+00 0. -1.
         -3    1    3    3    0  502  0.32997941524E+03  0.10305925091E+04  0.21625237856E+03  0.11035272654E+04  0.00000000000E+00 0.  1.
         11    1    5    5    0    0 -0.51732494179E+03 -0.92365553380E+03 -0.25465316829E+03  0.10888585200E+04  0.00000000000E+00 0. -1.
        -11    1    5    5    0    0 -0.39984515813E+03 -0.79077609005E+03 -0.29081604285E+03  0.93261832807E+03  0.00000000000E+00 0.  1.
          3    1    6    6  503    0  0.10633993353E+03 -0.21915359532E+03 -0.10406393382E+03  0.26488824460E+03  0.00000000000E+00 0. -1.
         -3    1    6    6    0  503  0.92353674962E+02 -0.61604550122E+02 -0.21369845613E+02  0.11305305027E+03  0.00000000000E+00 0.  1.
<mgrwt>
<rscale>  0 0.45528045E+04</rscale>
<asrwt>0</asrwt>
<pdfrwt beam="1">  1        2 0.33058183E+00 0.45528045E+04</pdfrwt>
<pdfrwt beam="2">  1       -1 0.37101573E+00 0.45528045E+04</pdfrwt>
<totfact> 0.53280874E-02</totfact>
</mgrwt>
</event>
<event>
12    6  0.1402540E-007  0.1866626E+04  0.7818608E-02  0.8671650E-01
          2   -1    0    0  501    0  0.00000000000E+00  0.00000000000E+00  0.72993468325E+03  0.72993468325E+03  0.00000000000E+00 0. -1.
         -1   -1    0    0    0  501 -0.00000000000E+00 -0.00000000000E+00 -0.11933571030E+04  0.11933571030E+04  0.00000000000E+00 0.  1.
         24    2    1    2    0    0  0.48639724262E+03  0.41312409255E+03 -0.50734112124E+03  0.81912615268E+03  0.79491177101E+02 0.  0.
        254    2    1    2    0    0 -0.48639724262E+03 -0.41312409255E+03  0.43918701540E+02  0.11041656335E+04  0.89999950024E+03 0.  0.
         23    2    4    4    0    0 -0.15710628558E+03 -0.53101739688E+03  0.32364226468E+03  0.64778901670E+03  0.90688664712E+02 0.  0.
         23    2    4    4    0    0 -0.32929095703E+03  0.11789330433E+03 -0.27972356314E+03  0.45637661682E+03  0.87766616751E+02 0.  0.
          2    1    3    3  502    0  0.39621091878E+03  0.29576287545E+03 -0.37457595084E+03  0.62029502143E+03  0.00000000000E+00 0. -1.
         -1    1    3    3    0  502  0.90186323833E+02  0.11736121709E+03 -0.13276517040E+03  0.19883113126E+03  0.00000000000E+00 0.  1.
         11    1    5    5    0    0 -0.18532345094E+02 -0.75452006173E+02  0.85008736745E+02  0.11516483132E+03  0.00000000000E+00 0.  1.
        -11    1    5    5    0    0 -0.13857394049E+03 -0.45556539071E+03  0.23863352794E+03  0.53262418538E+03  0.00000000000E+00 0. -1.
          1    1    6    6  503    0 -0.98911198856E+02  0.78063388893E+02 -0.11264403898E+03  0.16901478474E+03  0.00000000000E+00 0. -1.
         -1    1    6    6    0  503 -0.23037975818E+03  0.39829915441E+02 -0.16707952416E+03  0.28736183208E+03  0.00000000000E+00 0.  1.
<mgrwt>
<rscale>  0 0.18666256E+04</rscale>
<asrwt>0</asrwt>
<pdfrwt beam="1">  1        2 0.11229764E+00 0.18666256E+04</pdfrwt>
<pdfrwt beam="2">  1       -1 0.18359340E+00 0.18666256E+04</pdfrwt>
<totfact> 0.81661541E+00</totfact>
</mgrwt>
</event>
<event>
12    6  0.1402540E-007  0.2053355E+04  0.7818608E-02  0.8582074E-01
          2   -1    0    0  501    0  0.00000000000E+00  0.00000000000E+00  0.49387986751E+03  0.49387986751E+03  0.00000000000E+00 0. -1.
         -1   -1    0    0    0  501 -0.00000000000E+00 -0.00000000000E+00 -0.21342572100E+04  0.21342572100E+04  0.00000000000E+00 0.  1.
         24    2    1    2    0    0  0.23141523126E+03  0.25346148477E+02 -0.16806397255E+04  0.16985724042E+04  0.80018052884E+02 0.  0.
        254    2    1    2    0    0 -0.23141523126E+03 -0.25346148477E+02  0.40262383026E+02  0.92956467331E+03  0.89904059190E+03 0.  0.
         23    2    4    4    0    0  0.16430028429E+03  0.32226600737E+03  0.11378463228E+03  0.39087322684E+03  0.94789102711E+02 0.  0.
         23    2    4    4    0    0 -0.39571551555E+03 -0.34761215585E+03 -0.73522249257E+02  0.53869144647E+03  0.85778629203E+02 0.  0.
          4    1    3    3  502    0  0.67045648336E+02 -0.89360596800E+01 -0.28742481006E+03  0.29527613104E+03  0.00000000000E+00 0. -1.
         -3    1    3    3    0  502  0.16436958292E+03  0.34282208157E+02 -0.13932149154E+04  0.14032962731E+04  0.00000000000E+00 0.  1.
         11    1    5    5    0    0  0.86718002698E+02  0.25406785461E+03  0.10082173281E+03  0.28676734219E+03  0.00000000000E+00 0. -1.
        -11    1    5    5    0    0  0.77582281590E+02  0.68198152762E+02  0.12962899472E+02  0.10410588465E+03  0.00000000000E+00 0.  1.
          4    1    6    6  503    0 -0.18310305724E+03 -0.16496905912E+03  0.86332885351E+01  0.24660911116E+03  0.00000000000E+00 0. -1.
         -4    1    6    6    0  503 -0.21261245831E+03 -0.18264309673E+03 -0.82155537792E+02  0.29208233531E+03  0.00000000000E+00 0.  1.
<mgrwt>
<rscale>  0 0.20533550E+04</rscale>
<asrwt>0</asrwt>
<pdfrwt beam="1">  1        2 0.75981518E-01 0.20533550E+04</pdfrwt>
<pdfrwt beam="2">  1       -1 0.32834727E+00 0.20533550E+04</pdfrwt>
<totfact> 0.14262136E+00</totfact>
</mgrwt>
</event>
<event>
12    6  0.1402540E-007  0.1313822E+04  0.7818608E-02  0.9018675E-01
          2   -1    0    0  501    0  0.00000000000E+00  0.00000000000E+00  0.78438258933E+03  0.78438258933E+03  0.00000000000E+00 0. -1.
         -1   -1    0    0    0  501 -0.00000000000E+00 -0.00000000000E+00 -0.55015501939E+03  0.55015501939E+03  0.00000000000E+00 0.  1.
         24    2    1    2    0    0  0.19827969879E+03  0.19188806210E+03 -0.14271146529E+03  0.32062876524E+03  0.79374904381E+02 0.  0.
        254    2    1    2    0    0 -0.19827969879E+03 -0.19188806210E+03  0.37693903522E+03  0.10139088435E+04  0.89988456998E+03 0.  0.
         23    2    4    4    0    0 -0.23550551693E+03  0.32304025079E+03  0.22938638291E+03  0.46970807493E+03  0.90497021276E+02 0.  0.
         23    2    4    4    0    0  0.37225818142E+02 -0.51492831289E+03  0.14755265231E+03  0.54420076855E+03  0.88576308005E+02 0.  0.
          4    1    3    3  502    0  0.62224076034E+02  0.92802246779E+02 -0.22971094983E+02  0.11406911874E+03  0.00000000000E+00 0. -1.
         -3    1    3    3    0  502  0.13605562275E+03  0.99085815324E+02 -0.11974037030E+03  0.20655964650E+03  0.00000000000E+00 0.  1.
         11    1    5    5    0    0 -0.17326913093E+03  0.29379475074E+03  0.19330773223E+03  0.39205283653E+03  0.00000000000E+00 0. -1.
        -11    1    5    5    0    0 -0.62236386003E+02  0.29245500043E+02  0.36078650684E+02  0.77655238398E+02  0.00000000000E+00 0.  1.
          1    1    6    6  503    0  0.51427985029E+02 -0.48263773722E+03  0.12149663185E+03  0.50034533533E+03  0.00000000000E+00 0. -1.
         -1    1    6    6    0  503 -0.14202166887E+02 -0.32290575670E+02  0.26056020459E+02  0.43855433227E+02  0.00000000000E+00 0.  1.
<mgrwt>
<rscale>  0 0.13138219E+04</rscale>
<asrwt>0</asrwt>
<pdfrwt beam="1">  1        2 0.12067425E+00 0.13138219E+04</pdfrwt>
<pdfrwt beam="2">  1       -1 0.84639233E-01 0.13138219E+04</pdfrwt>
<totfact> 0.54653090E+01</totfact>
</mgrwt>
</event>
<event>
12    6  0.1402540E-007  0.5437071E+04  0.7818608E-02  0.7764408E-01
          2   -1    0    0  501    0  0.00000000000E+00  0.00000000000E+00  0.46226522408E+04  0.46226522408E+04  0.00000000000E+00 0. -1.
         -1   -1    0    0    0  501 -0.00000000000E+00 -0.00000000000E+00 -0.15987433925E+04  0.15987433925E+04  0.00000000000E+00 0.  1.
         24    2    1    2    0    0  0.25004150255E+04 -0.84932496542E+03  0.13235797108E+04  0.29549413785E+04  0.79919353696E+02 0.  0.
        254    2    1    2    0    0 -0.25004150255E+04  0.84932496542E+03  0.17003291375E+04  0.32664542549E+04  0.89731601267E+03 0.  0.
         23    2    4    4    0    0 -0.84940186681E+03  0.68252234526E+03  0.92666703401E+03  0.14333221716E+04  0.91544375478E+02 0.  0.
         23    2    4    4    0    0 -0.16510131587E+04  0.16680262016E+03  0.77366210353E+03  0.18331320832E+04  0.90291859428E+02 0.  0.
          2    1    3    3  502    0  0.82440650975E+03 -0.24351438398E+03  0.44679367447E+03  0.96879819161E+03  0.00000000000E+00 0. -1.
         -3    1    3    3    0  502  0.16760085158E+04 -0.60581058144E+03  0.87678603630E+03  0.19861431869E+04  0.00000000000E+00 0.  1.
         11    1    5    5    0    0 -0.41795582835E+03  0.39164531327E+03  0.46710237051E+03  0.73909251816E+03  0.00000000000E+00 0.  1.
        -11    1    5    5    0    0 -0.43144603846E+03  0.29087703199E+03  0.45956466349E+03  0.69422965348E+03  0.00000000000E+00 0. -1.
          4    1    6    6  503    0 -0.38649109897E+03  0.19381524357E+02  0.14462450139E+03  0.41311894108E+03  0.00000000000E+00 0. -1.
         -4    1    6    6    0  503 -0.12645220597E+04  0.14742109580E+03  0.62903760214E+03  0.14200131422E+04  0.00000000000E+00 0.  1.
<mgrwt>
<rscale>  0 0.54370708E+04</rscale>
<asrwt>0</asrwt>
<pdfrwt beam="1">  1        2 0.71117726E+00 0.54370708E+04</pdfrwt>
<pdfrwt beam="2">  1       -1 0.24596052E+00 0.54370708E+04</pdfrwt>
<totfact> 0.54063875E-03</totfact>
</mgrwt>
</event>
<event>
12    6  0.1402540E-007  0.2614569E+04  0.7818608E-02  0.8363269E-01
         -1   -1    0    0    0  501 -0.00000000000E+00  0.00000000000E+00  0.45910434960E+03  0.45910434960E+03  0.00000000000E+00 0.  1.
          2   -1    0    0  501    0  0.00000000000E+00 -0.00000000000E+00 -0.37224494677E+04  0.37224494677E+04  0.00000000000E+00 0. -1.
         24    2    1    2    0    0 -0.93066601339E+03 -0.48443381397E+03 -0.66540327075E+03  0.12448512181E+04  0.77959565649E+02 0.  0.
        254    2    1    2    0    0  0.93066601339E+03  0.48443381397E+03 -0.25979418474E+04  0.29367025992E+04  0.87983235070E+03 0.  0.
         23    2    4    4    0    0  0.45209629378E+03 -0.14182015303E+03 -0.15422666646E+04  0.16160693086E+04  0.92679722742E+02 0.  0.
         23    2    4    4    0    0  0.47856971961E+03  0.62625396700E+03 -0.10556751828E+04  0.13206332906E+04  0.91647088946E+02 0.  0.
          2    1    3    3  502    0 -0.28046586053E+03 -0.11667384371E+03 -0.22103221168E+03  0.37567156311E+03  0.00000000000E+00 0. -1.
         -1    1    3    3    0  502 -0.65020015287E+03 -0.36775997026E+03 -0.44437105907E+03  0.86917965499E+03  0.00000000000E+00 0.  1.
         11    1    5    5    0    0  0.29034819326E+03 -0.52000110978E+02 -0.10305842322E+04  0.10719654586E+04  0.00000000000E+00 0. -1.
        -11    1    5    5    0    0  0.16174810053E+03 -0.89820042050E+02 -0.51168243242E+03  0.54410385004E+03  0.00000000000E+00 0.  1.
          1    1    6    6  503    0  0.28851929317E+03  0.39380127872E+03 -0.57980111119E+03  0.75795260946E+03  0.00000000000E+00 0. -1.
         -1    1    6    6    0  503  0.19005042644E+03  0.23245268828E+03 -0.47587407162E+03  0.56268068113E+03  0.00000000000E+00 0.  1.
<mgrwt>
<rscale>  0 0.26145690E+04</rscale>
<asrwt>0</asrwt>
<pdfrwt beam="1">  1        2 0.57268454E+00 0.26145690E+04</pdfrwt>
<pdfrwt beam="2">  1       -1 0.70631438E-01 0.26145690E+04</pdfrwt>
<totfact> 0.11443425E+00</totfact>
</mgrwt>
</event>
<event>
12    6  0.1402540E-007  0.1280512E+04  0.7818608E-02  0.9045164E-01
          2   -1    0    0  501    0  0.00000000000E+00  0.00000000000E+00  0.20942572595E+04  0.20942572595E+04  0.00000000000E+00 0. -1.
         -1   -1    0    0    0  501 -0.00000000000E+00 -0.00000000000E+00 -0.19573900795E+03  0.19573900795E+03  0.00000000000E+00 0.  1.
         24    2    1    2    0    0  0.98648409415E+01 -0.26136214264E+03  0.81065425305E+03  0.85517058428E+03  0.75821669249E+02 0.  0.
        254    2    1    2    0    0 -0.98648409415E+01  0.26136214264E+03  0.10878639985E+04  0.14348256832E+04  0.89825896999E+03 0.  0.
         23    2    4    4    0    0  0.14955312935E+02  0.34090815124E+03  0.13583269861E+02  0.35345115817E+03  0.91110850216E+02 0.  0.
         23    2    4    4    0    0 -0.24820153876E+02 -0.79546008592E+02  0.10742807286E+04  0.10813745250E+04  0.91368330912E+02 0.  0.
          4    1    3    3  502    0  0.25491999958E+02 -0.54628692304E+02  0.25689748906E+03  0.26387583438E+03  0.00000000000E+00 0. -1.
         -3    1    3    3    0  502 -0.15627159017E+02 -0.20673345034E+03  0.55375676399E+03  0.59129474990E+03  0.00000000000E+00 0.  1.
         11    1    5    5    0    0  0.25795567030E+02  0.32302196025E+03 -0.69734205525E+01  0.32412532557E+03  0.00000000000E+00 0.  1.
        -11    1    5    5    0    0 -0.10840254095E+02  0.17886190984E+02  0.20556690413E+02  0.29325832597E+02  0.00000000000E+00 0. -1.
          4    1    6    6  503    0 -0.21625358762E+02 -0.31198157694E+02  0.11992212391E+03  0.12578671228E+03  0.00000000000E+00 0. -1.
         -4    1    6    6    0  503 -0.31947951143E+01 -0.48347850898E+02  0.95435860470E+03  0.95558781270E+03  0.00000000000E+00 0.  1.
<mgrwt>
<rscale>  0 0.12805121E+04</rscale>
<asrwt>0</asrwt>
<pdfrwt beam="1">  1        2 0.32219341E+00 0.12805121E+04</pdfrwt>
<pdfrwt beam="2">  1       -1 0.30113695E-01 0.12805121E+04</pdfrwt>
<totfact> 0.67181958E+01</totfact>
</mgrwt>
</event>
<event>
12    6  0.1402540E-007  0.1684118E+04  0.7818608E-02  0.8770474E-01
         -1   -1    0    0    0  501 -0.00000000000E+00  0.00000000000E+00  0.17912029222E+03  0.17912029222E+03  0.00000000000E+00 0.  1.
          2   -1    0    0  501    0  0.00000000000E+00 -0.00000000000E+00 -0.39585897415E+04  0.39585897415E+04  0.00000000000E+00 0. -1.
         24    2    1    2    0    0 -0.40875710763E+03  0.41979093846E+03 -0.10362078101E+04  0.11918132380E+04  0.58183877013E+02 0.  0.
        254    2    1    2    0    0  0.40875710763E+03 -0.41979093846E+03 -0.27432616391E+04  0.29458967957E+04  0.89973146263E+03 0.  0.
         23    2    4    4    0    0 -0.20851753370E+03 -0.95025536522E+02 -0.14772699757E+04  0.14977006408E+04  0.90946214656E+02 0.  0.
         23    2    4    4    0    0  0.61727464133E+03 -0.32476540194E+03 -0.12659916635E+04  0.14481961549E+04  0.89647430997E+02 0.  0.
          2    1    3    3  502    0 -0.21892066952E+03  0.21879598486E+03 -0.60520957044E+03  0.67976213979E+03  0.00000000000E+00 0. -1.
         -1    1    3    3    0  502 -0.18983643811E+03  0.20099495360E+03 -0.43099823965E+03  0.51205109822E+03  0.00000000000E+00 0.  1.
         11    1    5    5    0    0 -0.11088695608E+03 -0.98803048182E+02 -0.85368972929E+03  0.86651261575E+03  0.00000000000E+00 0. -1.
        -11    1    5    5    0    0 -0.97630577617E+02  0.37775116604E+01 -0.62358024636E+03  0.63118802502E+03  0.00000000000E+00 0.  1.
          4    1    6    6  503    0  0.12283031319E+03 -0.73264317714E+02 -0.33843704642E+03  0.36741608631E+03  0.00000000000E+00 0. -1.
         -4    1    6    6    0  503  0.49444432814E+03 -0.25150108422E+03 -0.92755461708E+03  0.10807800686E+04  0.00000000000E+00 0.  1.
<mgrwt>
<rscale>  0 0.16841185E+04</rscale>
<asrwt>0</asrwt>
<pdfrwt beam="1">  1        2 0.60901379E+00 0.16841185E+04</pdfrwt>
<pdfrwt beam="2">  1       -1 0.27556969E-01 0.16841185E+04</pdfrwt>
<totfact> 0.48248483E+00</totfact>
</mgrwt>
</event>
<event>
12    6  0.1402540E-007  0.3084653E+04  0.7818608E-02  0.8219962E-01
          2   -1    0    0  501    0  0.00000000000E+00  0.00000000000E+00  0.27438586491E+04  0.27438586491E+04  0.00000000000E+00 0. -1.
         -1   -1    0    0    0  501 -0.00000000000E+00 -0.00000000000E+00 -0.86694394653E+03  0.86694394653E+03  0.00000000000E+00 0.  1.
         24    2    1    2    0    0  0.11094654649E+04 -0.75533872263E+03  0.13636257189E+04  0.19153725384E+04  0.87901398748E+02 0.  0.
        254    2    1    2    0    0 -0.11094654649E+04  0.75533872263E+03  0.51328898375E+03  0.16954300573E+04  0.89975957612E+03 0.  0.
         23    2    4    4    0    0 -0.21036679398E+03 -0.13571461718E+03 -0.10258641473E+03  0.28501855934E+03  0.89660255163E+02 0.  0.
         23    2    4    4    0    0 -0.89909867088E+03  0.89105333981E+03  0.61587539848E+03  0.14104114980E+04  0.87198697420E+02 0.  0.
          4    1    3    3  502    0  0.90395011093E+03 -0.65028809387E+03  0.11058101782E+04  0.15693363433E+04  0.00000000000E+00 0. -1.
         -3    1    3    3    0  502  0.20551535393E+03 -0.10505062876E+03  0.25781554062E+03  0.34603619506E+03  0.00000000000E+00 0.  1.
         11    1    5    5    0    0 -0.96025345807E+02 -0.35116779236E+02 -0.82551800480E+02  0.13141101546E+03  0.00000000000E+00 0. -1.
        -11    1    5    5    0    0 -0.11434144817E+03 -0.10059783794E+03 -0.20034614246E+02  0.15360754388E+03  0.00000000000E+00 0.  1.
          1    1    6    6  503    0 -0.40416556927E+03  0.39138674506E+03  0.32149267086E+03  0.64798991428E+03  0.00000000000E+00 0. -1.
         -1    1    6    6    0  503 -0.49493310161E+03  0.49966659475E+03  0.29438272761E+03  0.76242158370E+03  0.00000000000E+00 0.  1.
<mgrwt>
<rscale>  0 0.30846534E+04</rscale>
<asrwt>0</asrwt>
<pdfrwt beam="1">  1        2 0.42213210E+00 0.30846534E+04</pdfrwt>
<pdfrwt beam="2">  1       -1 0.13337599E+00 0.30846534E+04</pdfrwt>
<totfact> 0.11468145E+00</totfact>
</mgrwt>
</event>
<event>
12    6  0.1402540E-007  0.1822156E+04  0.7818608E-02  0.8694605E-01
         -1   -1    0    0    0  501 -0.00000000000E+00  0.00000000000E+00  0.16755766656E+04  0.16755766656E+04  0.00000000000E+00 0.  1.
          2   -1    0    0  501    0  0.00000000000E+00 -0.00000000000E+00 -0.49538972153E+03  0.49538972153E+03  0.00000000000E+00 0. -1.
         24    2    1    2    0    0  0.44911567582E+03 -0.44688032263E+02 -0.16841118933E+03  0.48826882395E+03  0.79637963673E+02 0.  0.
        254    2    1    2    0    0 -0.44911567582E+03  0.44688032263E+02  0.13485981334E+04  0.16826975631E+04  0.89947331989E+03 0.  0.
         23    2    4    4    0    0 -0.26399737552E+03  0.42058456140E+03  0.10325788121E+04  0.11493553091E+04  0.90623593892E+02 0.  0.
         23    2    4    4    0    0 -0.18511830030E+03 -0.37589652914E+03  0.31601932121E+03  0.53334225400E+03  0.94967166964E+02 0.  0.
          2    1    3    3  502    0  0.64255596243E+02 -0.34714068265E+02 -0.33211055765E+02  0.80229809978E+02  0.00000000000E+00 0. -1.
         -1    1    3    3    0  502  0.38486007957E+03 -0.99739639982E+01 -0.13520013356E+03  0.40803901397E+03  0.00000000000E+00 0.  1.
         11    1    5    5    0    0 -0.16991303256E+03  0.20686968389E+03  0.48300729341E+03  0.55223323897E+03  0.00000000000E+00 0. -1.
        -11    1    5    5    0    0 -0.94084342965E+02  0.21371487751E+03  0.54957151874E+03  0.59712207016E+03  0.00000000000E+00 0.  1.
          3    1    6    6  503    0 -0.17550888925E+03 -0.30253136471E+03  0.29177673974E+03  0.45548025500E+03  0.00000000000E+00 0. -1.
         -3    1    6    6    0  503 -0.96094110468E+01 -0.73365164427E+02  0.24242581466E+02  0.77861999000E+02  0.00000000000E+00 0.  1.
<mgrwt>
<rscale>  0 0.18221564E+04</rscale>
<asrwt>0</asrwt>
<pdfrwt beam="1">  1        2 0.76213804E-01 0.18221564E+04</pdfrwt>
<pdfrwt beam="2">  1       -1 0.25778102E+00 0.18221564E+04</pdfrwt>
<totfact> 0.41590373E+00</totfact>
</mgrwt>
</event>
<event>
12    6  0.1402540E-007  0.1953860E+04  0.7818608E-02  0.8628502E-01
         -1   -1    0    0    0  501 -0.00000000000E+00  0.00000000000E+00  0.10424440912E+04  0.10424440912E+04  0.00000000000E+00 0.  1.
          2   -1    0    0  501    0  0.00000000000E+00 -0.00000000000E+00 -0.91553312543E+03  0.91553312543E+03  0.00000000000E+00 0. -1.
         24    2    1    2    0    0 -0.38832022667E+03  0.66129502695E+03  0.42613934618E+02  0.77220848346E+03  0.79914225279E+02 0.  0.
        254    2    1    2    0    0  0.38832022667E+03 -0.66129502695E+03  0.84297031103E+02  0.11857687331E+04  0.90046531742E+03 0.  0.
         23    2    4    4    0    0  0.30659538944E+02 -0.39288505596E+03 -0.36499897379E+03  0.54486835153E+03  0.91425352673E+02 0.  0.
         23    2    4    4    0    0  0.35766068772E+03 -0.26840997099E+03  0.44929600489E+03  0.64090038158E+03  0.94452734370E+02 0.  0.
          4    1    3    3  502    0 -0.55574730877E+02  0.55654330365E+02 -0.94758941187E+01  0.79219617329E+02  0.00000000000E+00 0. -1.
         -3    1    3    3    0  502 -0.33274549579E+03  0.60564069659E+03  0.52089828737E+02  0.69298886614E+03  0.00000000000E+00 0.  1.
         11    1    5    5    0    0  0.32604157704E+02 -0.48400262354E+02 -0.71586428392E+02  0.92359261720E+02  0.00000000000E+00 0.  1.
        -11    1    5    5    0    0 -0.19446187602E+01 -0.34448479360E+03 -0.29341254540E+03  0.45250908981E+03  0.00000000000E+00 0. -1.
          3    1    6    6  503    0  0.18576603367E+03 -0.12755122716E+03  0.16126845111E+03  0.27710259497E+03  0.00000000000E+00 0. -1.
         -3    1    6    6    0  503  0.17189465405E+03 -0.14085874383E+03  0.28802755378E+03  0.36379778661E+03  0.00000000000E+00 0.  1.
<mgrwt>
<rscale>  0 0.19538599E+04</rscale>
<asrwt>0</asrwt>
<pdfrwt beam="1">  1        2 0.14085125E+00 0.19538599E+04</pdfrwt>
<pdfrwt beam="2">  1       -1 0.16037601E+00 0.19538599E+04</pdfrwt>
<totfact> 0.88418977E+00</totfact>
</mgrwt>
</event>
<event>
12    6  0.1402540E-007  0.1110061E+04  0.7818608E-02  0.9195441E-01
          4   -1    0    0  501    0  0.00000000000E+00  0.00000000000E+00  0.62662925812E+03  0.62662925812E+03  0.00000000000E+00 0. -1.
         -1   -1    0    0    0  501 -0.00000000000E+00 -0.00000000000E+00 -0.49161289922E+03  0.49161289922E+03  0.00000000000E+00 0.  1.
         24    2    1    2    0    0 -0.12944253743E+03 -0.94493357819E+01 -0.97390675706E+02  0.18087218686E+03  0.79907094954E+02 0.  0.
        254    2    1    2    0    0  0.12944253743E+03  0.94493357819E+01  0.23240703460E+03  0.93736997048E+03  0.89877960112E+03 0.  0.
         23    2    4    4    0    0 -0.28817185327E+03  0.94580844701E+02  0.36322868450E+03  0.48189838275E+03  0.91117620955E+02 0.  0.
         23    2    4    4    0    0  0.41761439069E+03 -0.85131508919E+02 -0.13082164991E+03  0.45547158773E+03  0.93225050407E+02 0.  0.
          2    1    3    3  502    0 -0.61491655591E+02 -0.41993359218E+02 -0.31758997894E+02  0.80952454397E+02  0.00000000000E+00 0. -1.
         -1    1    3    3    0  502 -0.67950881836E+02  0.32544023436E+02 -0.65631677812E+02  0.99919732466E+02  0.00000000000E+00 0.  1.
         11    1    5    5    0    0 -0.29159242710E+03  0.10140475669E+03  0.35067930765E+03  0.46720985118E+03  0.00000000000E+00 0.  1.
        -11    1    5    5    0    0  0.34205738385E+01 -0.68239119892E+01  0.12549376855E+02  0.14688531569E+02  0.00000000000E+00 0. -1.
          1    1    6    6  503    0  0.19492049706E+02 -0.19783591494E+02 -0.27318319367E+02  0.38956656263E+02  0.00000000000E+00 0. -1.
         -1    1    6    6    0  503  0.39812234099E+03 -0.65347917425E+02 -0.10350333054E+03  0.41651493147E+03  0.00000000000E+00 0.  1.
<mgrwt>
<rscale>  0 0.11100613E+04</rscale>
<asrwt>0</asrwt>
<pdfrwt beam="1">  1        4 0.96404501E-01 0.11100613E+04</pdfrwt>
<pdfrwt beam="2">  1       -1 0.75632754E-01 0.11100613E+04</pdfrwt>
<totfact> 0.64806238E+00</totfact>
</mgrwt>
</event>
<event>
12    6  0.1402540E-007  0.1436821E+04  0.7818608E-02  0.8927589E-01
          2   -1    0    0  501    0  0.00000000000E+00  0.00000000000E+00  0.10009112567E+04  0.10009112567E+04  0.00000000000E+00 0. -1.
         -1   -1    0    0    0  501 -0.00000000000E+00 -0.00000000000E+00 -0.51564374713E+03  0.51564374713E+03  0.00000000000E+00 0.  1.
         24    2    1    2    0    0  0.22003393561E+03 -0.25849932570E+03  0.42905298821E+03  0.55329821947E+03  0.82556760862E+02 0.  0.
        254    2    1    2    0    0 -0.22003393561E+03  0.25849932570E+03  0.56214521328E+02  0.96325678433E+03  0.89970368786E+03 0.  0.
         23    2    4    4    0    0  0.18968162344E+03 -0.21921992347E+03  0.10385120034E+03  0.32452162184E+03  0.10243396954E+03 0.  0.
         23    2    4    4    0    0 -0.40971555904E+03  0.47771924918E+03 -0.47636679010E+02  0.63873516248E+03  0.98136813949E+02 0.  0.
          2    1    3    3  502    0  0.17488019166E+03 -0.23796295168E+03  0.39475155938E+03  0.49298908856E+03  0.00000000000E+00 0. -1.
         -1    1    3    3    0  502  0.45153743950E+02 -0.20536374019E+02  0.34301428830E+02  0.60309130903E+02  0.00000000000E+00 0.  1.
         11    1    5    5    0    0  0.31381646530E+01 -0.65943597221E+02  0.22468802814E+02  0.69737028842E+02  0.00000000000E+00 0.  1.
        -11    1    5    5    0    0  0.18654345878E+03 -0.15327632625E+03  0.81382397523E+02  0.25478459300E+03  0.00000000000E+00 0. -1.
          1    1    6    6  503    0 -0.21408373105E+03  0.18696959938E+03 -0.48220191713E+02  0.28829613574E+03  0.00000000000E+00 0. -1.
         -1    1    6    6    0  503 -0.19563182799E+03  0.29074964980E+03  0.58351270296E+00  0.35043902675E+03  0.00000000000E+00 0.  1.
<mgrwt>
<rscale>  0 0.14368210E+04</rscale>
<asrwt>0</asrwt>
<pdfrwt beam="1">  1        2 0.15398635E+00 0.14368210E+04</pdfrwt>
<pdfrwt beam="2">  1       -1 0.79329808E-01 0.14368210E+04</pdfrwt>
<totfact> 0.44252392E+01</totfact>
</mgrwt>
</event>
<event>
12    6  0.1402540E-007  0.1418114E+04  0.7818608E-02  0.8940810E-01
          2   -1    0    0  501    0  0.00000000000E+00  0.00000000000E+00  0.23874672935E+04  0.23874672935E+04  0.00000000000E+00 0. -1.
         -1   -1    0    0    0  501 -0.00000000000E+00 -0.00000000000E+00 -0.21058383419E+03  0.21058383419E+03  0.00000000000E+00 0.  1.
         24    2    1    2    0    0  0.25759053659E+03 -0.14995114141E+03  0.12000773815E+04  0.12393667950E+04  0.83702458723E+02 0.  0.
        254    2    1    2    0    0 -0.25759053659E+03  0.14995114141E+03  0.97680607779E+03  0.13586843327E+04  0.89612207476E+03 0.  0.
         23    2    4    4    0    0 -0.12600063126E+03  0.46960592536E+03  0.26283353959E+03  0.56013360414E+03  0.90897198796E+02 0.  0.
         23    2    4    4    0    0 -0.13158990532E+03 -0.31965478394E+03  0.71397253820E+03  0.79855072852E+03  0.91822636857E+02 0.  0.
          4    1    3    3  502    0  0.59894626639E+02 -0.30335206756E+02  0.43523007074E+03  0.44037802573E+03  0.00000000000E+00 0. -1.
         -3    1    3    3    0  502  0.19769590995E+03 -0.11961593466E+03  0.76484731075E+03  0.79898876925E+03  0.00000000000E+00 0.  1.
         11    1    5    5    0    0 -0.48673540307E+02  0.31548163988E+03  0.19954174136E+03  0.37645010981E+03  0.00000000000E+00 0.  1.
        -11    1    5    5    0    0 -0.77327090957E+02  0.15412428547E+03  0.63291798233E+02  0.18368349434E+03  0.00000000000E+00 0. -1.
          2    1    6    6  503    0 -0.31873540602E+01 -0.58350921239E+02  0.19406383315E+03  0.20267155837E+03  0.00000000000E+00 0. -1.
         -2    1    6    6    0  503 -0.12840255126E+03 -0.26130386270E+03  0.51990870505E+03  0.59587917015E+03  0.00000000000E+00 0.  1.
<mgrwt>
<rscale>  0 0.14181143E+04</rscale>
<asrwt>0</asrwt>
<pdfrwt beam="1">  1        2 0.36730264E+00 0.14181143E+04</pdfrwt>
<pdfrwt beam="2">  1       -1 0.32397515E-01 0.14181143E+04</pdfrwt>
<totfact> 0.39963772E+01</totfact>
</mgrwt>
</event>
<event>
12    6  0.1402540E-007  0.1137727E+04  0.7818608E-02  0.9169181E-01
         -1   -1    0    0    0  501 -0.00000000000E+00  0.00000000000E+00  0.44426354428E+03  0.44426354428E+03  0.00000000000E+00 0.  1.
          2   -1    0    0  501    0  0.00000000000E+00 -0.00000000000E+00 -0.72840927477E+03  0.72840927477E+03  0.00000000000E+00 0. -1.
         24    2    1    2    0    0 -0.15471816352E+03 -0.12336295389E+03 -0.45493953243E+02  0.21872502379E+03  0.81331468286E+02 0.  0.
        254    2    1    2    0    0  0.15471816352E+03  0.12336295389E+03 -0.23865177725E+03  0.95394779526E+03  0.90216716676E+03 0.  0.
         23    2    4    4    0    0  0.21332396872E+03  0.44474614575E+03  0.56088286016E+02  0.50465238474E+03  0.90674603941E+02 0.  0.
         23    2    4    4    0    0 -0.58605805201E+02 -0.32138319186E+03 -0.29474006327E+03  0.44929541052E+03  0.90955289091E+02 0.  0.
          2    1    3    3  502    0 -0.90760444415E+02 -0.75624060974E+02 -0.67336413284E+02  0.13598032734E+03  0.00000000000E+00 0. -1.
         -1    1    3    3    0  502 -0.63957719109E+02 -0.47738892920E+02  0.21842460041E+02  0.82744696456E+02  0.00000000000E+00 0.  1.
         11    1    5    5    0    0  0.33569190574E+01  0.20643030794E+02 -0.15504466487E+02  0.26034440785E+02  0.00000000000E+00 0.  1.
        -11    1    5    5    0    0  0.20996704967E+03  0.42410311496E+03  0.71592752504E+02  0.47861794395E+03  0.00000000000E+00 0. -1.
          4    1    6    6  503    0 -0.48582998259E+02 -0.68214360438E+02 -0.95158257354E+02  0.12676198418E+03  0.00000000000E+00 0.  1.
         -4    1    6    6    0  503 -0.10022806942E+02 -0.25316883142E+03 -0.19958180591E+03  0.32253342635E+03  0.00000000000E+00 0. -1.
<mgrwt>
<rscale>  0 0.11377270E+04</rscale>
<asrwt>0</asrwt>
<pdfrwt beam="1">  1        2 0.11206297E+00 0.11377270E+04</pdfrwt>
<pdfrwt beam="2">  1       -1 0.68348238E-01 0.11377270E+04</pdfrwt>
<totfact> 0.95488448E+01</totfact>
</mgrwt>
</event>
<event>
12    6  0.1402540E-007  0.3095461E+04  0.7818608E-02  0.8216985E-01
          2   -1    0    0  501    0  0.00000000000E+00  0.00000000000E+00  0.18613894052E+04  0.18613894052E+04  0.00000000000E+00 0. -1.
         -1   -1    0    0    0  501 -0.00000000000E+00 -0.00000000000E+00 -0.12869251999E+04  0.12869251999E+04  0.00000000000E+00 0.  1.
         24    2    1    2    0    0 -0.94901960424E+03 -0.79569501817E+03 -0.44025723511E+03  0.13155944274E+04  0.56511001491E+02 0.  0.
        254    2    1    2    0    0  0.94901960424E+03  0.79569501817E+03  0.10147214404E+04  0.18327201776E+04  0.89187155843E+03 0.  0.
         23    2    4    4    0    0  0.94861250913E+02  0.55903528961E+03  0.65872242886E+03  0.87326913909E+03  0.84644190882E+02 0.  0.
         23    2    4    4    0    0  0.85415835332E+03  0.23665972856E+03  0.35599901157E+03  0.95945103856E+03  0.90645901620E+02 0.  0.
          2    1    3    3  502    0 -0.84711620429E+02 -0.52663886726E+02 -0.28988052736E+02  0.10387420663E+03  0.00000000000E+00 0. -1.
         -1    1    3    3    0  502 -0.86430798381E+03 -0.74303113145E+03 -0.41126918238E+03  0.12117202208E+04  0.00000000000E+00 0.  1.
         11    1    5    5    0    0  0.24875246142E+02  0.72725633535E+02  0.13364658267E+03  0.15417264577E+03  0.00000000000E+00 0.  1.
        -11    1    5    5    0    0  0.69986004771E+02  0.48630965608E+03  0.52507584618E+03  0.71909649332E+03  0.00000000000E+00 0. -1.
          2    1    6    6  503    0  0.51821831168E+03  0.98011118991E+02  0.20274932794E+03  0.56503423612E+03  0.00000000000E+00 0. -1.
         -2    1    6    6    0  503  0.33594004164E+03  0.13864860957E+03  0.15324968363E+03  0.39441680244E+03  0.00000000000E+00 0.  1.
<mgrwt>
<rscale>  0 0.30954605E+04</rscale>
<asrwt>0</asrwt>
<pdfrwt beam="1">  1        2 0.28636760E+00 0.30954605E+04</pdfrwt>
<pdfrwt beam="2">  1       -1 0.19798849E+00 0.30954605E+04</pdfrwt>
<totfact> 0.11981053E+00</totfact>
</mgrwt>
</event>
<event>
12    6  0.1402540E-007  0.1304922E+04  0.7818608E-02  0.9025671E-01
         -1   -1    0    0    0  501 -0.00000000000E+00  0.00000000000E+00  0.53852853836E+03  0.53852853836E+03  0.00000000000E+00 0.  1.
          2   -1    0    0  501    0  0.00000000000E+00 -0.00000000000E+00 -0.79049768921E+03  0.79049768921E+03  0.00000000000E+00 0. -1.
         24    2    1    2    0    0 -0.56507546127E+02  0.22501568954E+03 -0.30793515121E+03  0.39258440267E+03  0.73981704249E+02 0.  0.
        254    2    1    2    0    0  0.56507546127E+02 -0.22501568954E+03  0.55966000352E+02  0.93644182489E+03  0.90551970432E+03 0.  0.
         23    2    4    4    0    0  0.35664767156E+03 -0.14449820248E+03 -0.26889070711E+03  0.47789327765E+03  0.89456583366E+02 0.  0.
         23    2    4    4    0    0 -0.30014012543E+03 -0.80517487062E+02  0.32485670746E+03  0.45854854724E+03  0.90375489921E+02 0.  0.
          4    1    3    3  502    0 -0.68838413317E+02  0.12526444667E+03 -0.17618149290E+03  0.22686962597E+03  0.00000000000E+00 0. -1.
         -3    1    3    3    0  502  0.12330867190E+02  0.99751242876E+02 -0.13175365830E+03  0.16571477670E+03  0.00000000000E+00 0.  1.
         11    1    5    5    0    0 -0.29965087066E+01  0.69605051334E-01 -0.13215559503E+02  0.13551196341E+02  0.00000000000E+00 0. -1.
        -11    1    5    5    0    0  0.35964418027E+03 -0.14456780753E+03 -0.25567514760E+03  0.46434208131E+03  0.00000000000E+00 0.  1.
          3    1    6    6  503    0 -0.11027029130E+03 -0.65536243652E+02  0.92713777944E+02  0.15827312152E+03  0.00000000000E+00 0. -1.
         -3    1    6    6    0  503 -0.18986983413E+03 -0.14981243410E+02  0.23214292951E+03  0.30027542572E+03  0.00000000000E+00 0.  1.
<mgrwt>
<rscale>  0 0.13049223E+04</rscale>
<asrwt>0</asrwt>
<pdfrwt beam="1">  1        2 0.12161503E+00 0.13049223E+04</pdfrwt>
<pdfrwt beam="2">  1       -1 0.82850544E-01 0.13049223E+04</pdfrwt>
<totfact> 0.56682993E+01</totfact>
</mgrwt>
</event>
<event>
12    6  0.1402540E-007  0.2589751E+04  0.7818608E-02  0.8371691E-01
         -1   -1    0    0    0  501 -0.00000000000E+00  0.00000000000E+00  0.86323484816E+03  0.86323484816E+03  0.00000000000E+00 0.  1.
          2   -1    0    0  501    0  0.00000000000E+00 -0.00000000000E+00 -0.19423479600E+04  0.19423479600E+04  0.00000000000E+00 0. -1.
         24    2    1    2    0    0  0.65310150061E+03  0.92809013159E+03 -0.41310552665E+03  0.12103529015E+04  0.80031916243E+02 0.  0.
        254    2    1    2    0    0 -0.65310150061E+03 -0.92809013159E+03 -0.66600758516E+03  0.15952299066E+04  0.90183118653E+03 0.  0.
         23    2    4    4    0    0 -0.29869783952E+03 -0.96656185349E+03 -0.68761772787E+03  0.12267516266E+04  0.92947284904E+02 0.  0.
         23    2    4    4    0    0 -0.35440366109E+03  0.38471721903E+02  0.21610142715E+02  0.36847827999E+03  0.90704003080E+02 0.  0.
          2    1    3    3  502    0  0.52358647327E+03  0.76785892751E+03 -0.36705583595E+03  0.99923976815E+03  0.00000000000E+00 0. -1.
         -1    1    3    3    0  502  0.12951502735E+03  0.16023120408E+03 -0.46049690700E+02  0.21111313337E+03  0.00000000000E+00 0.  1.
         11    1    5    5    0    0 -0.10557114886E+02 -0.67888509344E+02 -0.22913187985E+02  0.72424557709E+02  0.00000000000E+00 0. -1.
        -11    1    5    5    0    0 -0.28814072464E+03 -0.89867334414E+03 -0.66470453989E+03  0.11543270689E+04  0.00000000000E+00 0.  1.
          3    1    6    6  503    0 -0.71516083150E+02  0.38446034411E+01  0.41520688004E+02  0.82784652304E+02  0.00000000000E+00 0.  1.
         -3    1    6    6    0  503 -0.28288757794E+03  0.34627118462E+02 -0.19910545289E+02  0.28569362769E+03  0.00000000000E+00 0. -1.
<mgrwt>
<rscale>  0 0.25897509E+04</rscale>
<asrwt>0</asrwt>
<pdfrwt beam="1">  1        2 0.29882276E+00 0.25897509E+04</pdfrwt>
<pdfrwt beam="2">  1       -1 0.13280536E+00 0.25897509E+04</pdfrwt>
<totfact> 0.34808630E+00</totfact>
</mgrwt>
</event>
<event>
12    6  0.1402540E-007  0.2007073E+04  0.7818608E-02  0.8603321E-01
         -1   -1    0    0    0  501 -0.00000000000E+00  0.00000000000E+00  0.71913735489E+03  0.71913735489E+03  0.00000000000E+00 0.  1.
          2   -1    0    0  501    0  0.00000000000E+00 -0.00000000000E+00 -0.14004072030E+04  0.14004072030E+04  0.00000000000E+00 0. -1.
         24    2    1    2    0    0  0.21984127943E+03  0.36797386028E+03  0.43977473049E+03  0.61943324387E+03  0.80998642246E+02 0.  0.
        254    2    1    2    0    0 -0.21984127943E+03 -0.36797386028E+03 -0.11210445786E+04  0.15001113140E+04  0.89992113945E+03 0.  0.
         23    2    4    4    0    0 -0.50381588015E+03 -0.18364798407E+03 -0.33288587247E+03  0.63726237153E+03  0.87939200201E+02 0.  0.
         23    2    4    4    0    0  0.28397460073E+03 -0.18432587621E+03 -0.78815870611E+03  0.86284894247E+03  0.93255289359E+02 0.  0.
          4    1    3    3  502    0  0.15924274249E+03  0.18957416279E+03  0.25980300064E+03  0.35887910691E+03  0.00000000000E+00 0. -1.
         -3    1    3    3    0  502  0.60598536932E+02  0.17839969749E+03  0.17997172985E+03  0.26055413696E+03  0.00000000000E+00 0.  1.
         11    1    5    5    0    0 -0.42790954079E+03 -0.15136729931E+03 -0.31601925462E+03  0.55307034244E+03  0.00000000000E+00 0. -1.
        -11    1    5    5    0    0 -0.75906339366E+02 -0.32280684757E+02 -0.16866617847E+02  0.84192029088E+02  0.00000000000E+00 0.  1.
          1    1    6    6  503    0  0.21695017726E+03 -0.10352729950E+03 -0.61555059388E+03  0.66082358825E+03  0.00000000000E+00 0. -1.
         -1    1    6    6    0  503  0.67024423464E+02 -0.80798576709E+02 -0.17260811223E+03  0.20202535422E+03  0.00000000000E+00 0.  1.
<mgrwt>
<rscale>  0 0.20070726E+04</rscale>
<asrwt>0</asrwt>
<pdfrwt beam="1">  1        2 0.21544726E+00 0.20070726E+04</pdfrwt>
<pdfrwt beam="2">  1       -1 0.11063652E+00 0.20070726E+04</pdfrwt>
<totfact> 0.11521698E+01</totfact>
</mgrwt>
</event>
<event>
12    6  0.1402540E-007  0.3420834E+04  0.7818608E-02  0.8132812E-01
          2   -1    0    0  501    0  0.00000000000E+00  0.00000000000E+00  0.15385148613E+04  0.15385148613E+04  0.00000000000E+00 0. -1.
         -1   -1    0    0    0  501 -0.00000000000E+00 -0.00000000000E+00 -0.19015260068E+04  0.19015260068E+04  0.00000000000E+00 0.  1.
         24    2    1    2    0    0  0.12576420252E+04 -0.42813563719E+03 -0.10492837969E+04  0.16948188055E+04  0.80316309899E+02 0.  0.
        254    2    1    2    0    0 -0.12576420252E+04  0.42813563719E+03  0.68627265143E+03  0.17452220626E+04  0.89992572374E+03 0.  0.
         23    2    4    4    0    0 -0.95699485304E+03  0.47786059279E+02  0.78572512582E+03  0.12416827967E+04  0.79306607823E+02 0.  0.
         23    2    4    4    0    0 -0.30064717214E+03  0.38034957791E+03 -0.99452474395E+02  0.50353926587E+03  0.92771084317E+02 0.  0.
          4    1    3    3  502    0  0.10948466096E+04 -0.35437517203E+03 -0.88038617488E+03  0.14489136199E+04  0.00000000000E+00 0. -1.
         -3    1    3    3    0  502  0.16279541558E+03 -0.73760465159E+02 -0.16889762204E+03  0.24590518556E+03  0.00000000000E+00 0.  1.
         11    1    5    5    0    0 -0.24787258088E+02 -0.11375804145E+02  0.19287647883E+02  0.33404048322E+02  0.00000000000E+00 0.  1.
        -11    1    5    5    0    0 -0.93220759496E+03  0.59161863424E+02  0.76643747794E+03  0.12082787484E+04  0.00000000000E+00 0. -1.
          2    1    6    6  503    0 -0.23230582536E+03  0.34685800252E+03 -0.86680480658E+02  0.42636835733E+03  0.00000000000E+00 0. -1.
         -2    1    6    6    0  503 -0.68341346776E+02  0.33491575391E+02 -0.12771993737E+02  0.77170908543E+02  0.00000000000E+00 0.  1.
<mgrwt>
<rscale>  0 0.34208338E+04</rscale>
<asrwt>0</asrwt>
<pdfrwt beam="1">  1        2 0.23669460E+00 0.34208338E+04</pdfrwt>
<pdfrwt beam="2">  1       -1 0.29254246E+00 0.34208338E+04</pdfrwt>
<totfact> 0.41960697E-01</totfact>
</mgrwt>
</event>
<event>
12    6  0.1402540E-007  0.1606916E+04  0.7818608E-02  0.8816310E-01
         -1   -1    0    0    0  501 -0.00000000000E+00  0.00000000000E+00  0.70104398411E+03  0.70104398411E+03  0.00000000000E+00 0.  1.
          2   -1    0    0  501    0  0.00000000000E+00 -0.00000000000E+00 -0.92083380794E+03  0.92083380794E+03  0.00000000000E+00 0. -1.
         24    2    1    2    0    0  0.18824389502E+03 -0.45377625537E+03 -0.31837051689E+03  0.59065907269E+03  0.78547438985E+02 0.  0.
        254    2    1    2    0    0 -0.18824389502E+03  0.45377625537E+03  0.98580693061E+02  0.10312187194E+04  0.90130196948E+03 0.  0.
         23    2    4    4    0    0 -0.24734931529E+03  0.47635715204E+03  0.42238153298E+03  0.68880060400E+03  0.89119541033E+02 0.  0.
         23    2    4    4    0    0  0.59105420273E+02 -0.22580896664E+02 -0.32380083992E+03  0.34241811537E+03  0.91650609409E+02 0.  0.
          2    1    3    3  502    0  0.10825497094E+03 -0.16856474648E+03 -0.14659290008E+03  0.24823918072E+03  0.00000000000E+00 0. -1.
         -1    1    3    3    0  502  0.79988924077E+02 -0.28521150889E+03 -0.17177761681E+03  0.34241989197E+03  0.00000000000E+00 0.  1.
         11    1    5    5    0    0 -0.11018547587E+03  0.15378989497E+03  0.10738462167E+03  0.21753994544E+03  0.00000000000E+00 0. -1.
        -11    1    5    5    0    0 -0.13716383941E+03  0.32256725706E+03  0.31499691130E+03  0.47126065856E+03  0.00000000000E+00 0.  1.
          1    1    6    6  503    0  0.39582812645E+02 -0.51030492948E+02 -0.12554651343E+03  0.14118370056E+03  0.00000000000E+00 0. -1.
         -1    1    6    6    0  503  0.19522607628E+02  0.28449596284E+02 -0.19825432648E+03  0.20123441482E+03  0.00000000000E+00 0.  1.
<mgrwt>
<rscale>  0 0.16069163E+04</rscale>
<asrwt>0</asrwt>
<pdfrwt beam="1">  1        2 0.14166674E+00 0.16069163E+04</pdfrwt>
<pdfrwt beam="2">  1       -1 0.10785292E+00 0.16069163E+04</pdfrwt>
<totfact> 0.24832290E+01</totfact>
</mgrwt>
</event>
<event>
12    6  0.1402540E-007  0.4832752E+04  0.7818608E-02  0.7854838E-01
          2   -1    0    0  501    0  0.00000000000E+00  0.00000000000E+00  0.26960127922E+04  0.26960127922E+04  0.00000000000E+00 0. -1.
         -1   -1    0    0    0  501 -0.00000000000E+00 -0.00000000000E+00 -0.21657440761E+04  0.21657440761E+04  0.00000000000E+00 0.  1.
         24    2    1    2    0    0  0.19338740204E+04 -0.31285118158E+03  0.15287583753E+04  0.24862830121E+04  0.82197671851E+02 0.  0.
        254    2    1    2    0    0 -0.19338740204E+04  0.31285118158E+03 -0.99848965921E+03  0.23754738562E+04  0.89897155307E+03 0.  0.
         23    2    4    4    0    0 -0.17364674518E+04  0.11774081916E+03 -0.52777604329E+03  0.18210119051E+04  0.91404021977E+02 0.  0.
         23    2    4    4    0    0 -0.19740656866E+03  0.19511036242E+03 -0.47071361592E+03  0.55446195106E+03  0.93911341654E+02 0.  0.
          4    1    3    3  502    0  0.90022794240E+03 -0.18259992662E+03  0.74008531912E+03  0.11796098342E+04  0.00000000000E+00 0. -1.
         -3    1    3    3    0  502  0.10336460780E+04 -0.13025125496E+03  0.78867305618E+03  0.13066731778E+04  0.00000000000E+00 0.  1.
         11    1    5    5    0    0 -0.62638692609E+03  0.83620240136E+02 -0.17506068879E+03  0.65574321994E+03  0.00000000000E+00 0.  1.
        -11    1    5    5    0    0 -0.11100805257E+04  0.34120579028E+02 -0.35271535450E+03  0.11652686852E+04  0.00000000000E+00 0. -1.
          4    1    6    6  503    0 -0.30629259980E+01 -0.17363568499E+01  0.38165054441E+01  0.51925104318E+01  0.00000000000E+00 0.  1.
         -4    1    6    6    0  503 -0.19434364267E+03  0.19684671927E+03 -0.47453012136E+03  0.54926944063E+03  0.00000000000E+00 0. -1.
<mgrwt>
<rscale>  0 0.48327523E+04</rscale>
<asrwt>0</asrwt>
<pdfrwt beam="1">  1        2 0.41477120E+00 0.48327523E+04</pdfrwt>
<pdfrwt beam="2">  1       -1 0.33319140E+00 0.48327523E+04</pdfrwt>
<totfact> 0.44928626E-02</totfact>
</mgrwt>
</event>
<event>
12    6  0.1402540E-007  0.1993158E+04  0.7818608E-02  0.8609826E-01
         -1   -1    0    0    0  501 -0.00000000000E+00  0.00000000000E+00  0.48598408987E+03  0.48598408987E+03  0.00000000000E+00 0.  1.
          2   -1    0    0  501    0  0.00000000000E+00 -0.00000000000E+00 -0.20436262635E+04  0.20436262635E+04  0.00000000000E+00 0. -1.
         24    2    1    2    0    0 -0.76563246632E+03 -0.65705185797E+02 -0.86007404655E+03  0.11558424247E+04  0.75723842761E+02 0.  0.
        254    2    1    2    0    0  0.76563246632E+03  0.65705185797E+02 -0.69756812706E+03  0.13737679286E+04  0.90007043329E+03 0.  0.
         23    2    4    4    0    0  0.92909610361E+03  0.14891362486E+03 -0.68752616813E+03  0.11689275745E+04  0.91129605935E+02 0.  0.
         23    2    4    4    0    0 -0.16346363729E+03 -0.83208439065E+02 -0.10041958929E+02  0.20484035414E+03  0.90635118458E+02 0.  0.
          4    1    3    3  502    0 -0.60998231458E+03 -0.40172800195E+02 -0.72371556853E+03  0.94734180848E+03  0.00000000000E+00 0. -1.
         -3    1    3    3    0  502 -0.15565015174E+03 -0.25532385602E+02 -0.13635847803E+03  0.20850061626E+03  0.00000000000E+00 0.  1.
         11    1    5    5    0    0  0.63890472457E+03  0.98662487136E+02 -0.52324881193E+03  0.83169877518E+03  0.00000000000E+00 0. -1.
        -11    1    5    5    0    0  0.29019137903E+03  0.50251137726E+02 -0.16427735620E+03  0.33722879929E+03  0.00000000000E+00 0.  1.
          1    1    6    6  503    0 -0.72541653633E+02 -0.37379323506E+02  0.40572071203E+02  0.91135055271E+02  0.00000000000E+00 0. -1.
         -1    1    6    6    0  503 -0.90921983659E+02 -0.45829115559E+02 -0.50614030131E+02  0.11370529887E+03  0.00000000000E+00 0.  1.
<mgrwt>
<rscale>  0 0.19931581E+04</rscale>
<asrwt>0</asrwt>
<pdfrwt beam="1">  1        2 0.31440405E+00 0.19931581E+04</pdfrwt>
<pdfrwt beam="2">  1       -1 0.74766782E-01 0.19931581E+04</pdfrwt>
<totfact> 0.12032147E+01</totfact>
</mgrwt>
</event>
<event>
12    6  0.1402540E-007  0.1840738E+04  0.7818608E-02  0.8684931E-01
         -1   -1    0    0    0  501 -0.00000000000E+00  0.00000000000E+00  0.89788059231E+03  0.89788059231E+03  0.00000000000E+00 0.  1.
          2   -1    0    0  501    0  0.00000000000E+00 -0.00000000000E+00 -0.94342054092E+03  0.94342054092E+03  0.00000000000E+00 0. -1.
         24    2    1    2    0    0  0.60285358651E+02 -0.68102828381E+03 -0.15418411294E+03  0.70555065830E+03  0.81210485302E+02 0.  0.
        254    2    1    2    0    0 -0.60285358651E+02  0.68102828381E+03  0.10864416433E+03  0.11357504749E+04  0.90038421746E+03 0.  0.
         23    2    4    4    0    0  0.31063112582E+02  0.45540268582E+03  0.48884904926E+03  0.67509693585E+03  0.91793009670E+02 0.  0.
         23    2    4    4    0    0 -0.91348471233E+02  0.22562559799E+03 -0.38020488493E+03  0.46065353908E+03  0.91621366922E+02 0.  0.
          4    1    3    3  502    0 -0.12075646717E+02 -0.31382296000E+02  0.12956365335E+01  0.33650385137E+02  0.00000000000E+00 0. -1.
         -3    1    3    3    0  502  0.72361005368E+02 -0.64964598781E+03 -0.15547974947E+03  0.67190027316E+03  0.00000000000E+00 0.  1.
         11    1    5    5    0    0  0.27343410565E+02  0.96215143331E+02  0.15643920351E+03  0.18568317183E+03  0.00000000000E+00 0. -1.
        -11    1    5    5    0    0  0.37197020167E+01  0.35918754249E+03  0.33240984575E+03  0.48941376402E+03  0.00000000000E+00 0.  1.
          4    1    6    6  503    0 -0.58777619192E+02  0.59900098195E+02 -0.78617497475E+02  0.11499365718E+03  0.00000000000E+00 0. -1.
         -4    1    6    6    0  503 -0.32570852041E+02  0.16572549980E+03 -0.30158738746E+03  0.34565988190E+03  0.00000000000E+00 0.  1.
<mgrwt>
<rscale>  0 0.18407379E+04</rscale>
<asrwt>0</asrwt>
<pdfrwt beam="1">  1        2 0.14514162E+00 0.18407379E+04</pdfrwt>
<pdfrwt beam="2">  1       -1 0.13813547E+00 0.18407379E+04</pdfrwt>
<totfact> 0.12782636E+01</totfact>
</mgrwt>
</event>
<event>
12    6  0.1402540E-007  0.3020208E+04  0.7818608E-02  0.8237984E-01
          2   -1    0    0  501    0  0.00000000000E+00  0.00000000000E+00  0.25972255459E+04  0.25972255459E+04  0.00000000000E+00 0. -1.
         -1   -1    0    0    0  501 -0.00000000000E+00 -0.00000000000E+00 -0.87801954044E+03  0.87801954044E+03  0.00000000000E+00 0.  1.
         24    2    1    2    0    0 -0.11352515366E+04 -0.67860287148E+03  0.35229309319E+03  0.13709750448E+04  0.78512683529E+02 0.  0.
        254    2    1    2    0    0  0.11352515366E+04  0.67860287148E+03  0.13669129122E+04  0.21042700415E+04  0.90011309811E+03 0.  0.
         23    2    4    4    0    0  0.23576589604E+03 -0.23858178899E+02  0.77357408380E+03  0.81443793487E+03  0.93474682156E+02 0.  0.
         23    2    4    4    0    0  0.89948564055E+03  0.70246105038E+03  0.59333882843E+03  0.12898321066E+04  0.95341245454E+02 0.  0.
          2    1    3    3  502    0 -0.43477005463E+03 -0.30362908434E+03  0.14966751584E+03  0.55101359925E+03  0.00000000000E+00 0. -1.
         -1    1    3    3    0  502 -0.70048148195E+03 -0.37497378714E+03  0.20262557735E+03  0.81996144555E+03  0.00000000000E+00 0.  1.
         11    1    5    5    0    0  0.16451332096E+03  0.26004663906E+02  0.54482025061E+03  0.56971043592E+03  0.00000000000E+00 0. -1.
        -11    1    5    5    0    0  0.71252575079E+02 -0.49862842805E+02  0.22875383318E+03  0.24472749895E+03  0.00000000000E+00 0.  1.
          3    1    6    6  503    0  0.64174463855E+03  0.45004141841E+03  0.38553766498E+03  0.87350601057E+03  0.00000000000E+00 0. -1.
         -3    1    6    6    0  503  0.25774100200E+03  0.25241963197E+03  0.20780116345E+03  0.41632609604E+03  0.00000000000E+00 0.  1.
<mgrwt>
<rscale>  0 0.30202085E+04</rscale>
<asrwt>0</asrwt>
<pdfrwt beam="1">  1        2 0.39957316E+00 0.30202085E+04</pdfrwt>
<pdfrwt beam="2">  1       -1 0.13507993E+00 0.30202085E+04</pdfrwt>
<totfact> 0.13641596E+00</totfact>
</mgrwt>
</event>
<event>
12    6  0.1402540E-007  0.2334801E+04  0.7818608E-02  0.8464325E-01
         -1   -1    0    0    0  501 -0.00000000000E+00  0.00000000000E+00  0.55747349565E+03  0.55747349565E+03  0.00000000000E+00 0.  1.
          2   -1    0    0  501    0  0.00000000000E+00 -0.00000000000E+00 -0.24446428400E+04  0.24446428400E+04  0.00000000000E+00 0. -1.
         24    2    1    2    0    0  0.22394756250E+03 -0.95408784588E+03 -0.61144557404E+03  0.11577531722E+04  0.78042227257E+02 0.  0.
        254    2    1    2    0    0 -0.22394756250E+03  0.95408784588E+03 -0.12757237703E+04  0.18443631635E+04  0.90209102221E+03 0.  0.
         23    2    4    4    0    0 -0.40796363019E+03  0.10222321598E+04 -0.11488756263E+04  0.15935959676E+04  0.90774397823E+02 0.  0.
         23    2    4    4    0    0  0.18401606769E+03 -0.68144313951E+02 -0.12684814407E+03  0.25076719588E+03  0.91039410068E+02 0.  0.
          2    1    3    3  502    0  0.20203472961E+03 -0.73428560412E+03 -0.49140751937E+03  0.90635243172E+03  0.00000000000E+00 0. -1.
         -1    1    3    3    0  502  0.21912832895E+02 -0.21980224176E+03 -0.12003805467E+03  0.25140074044E+03  0.00000000000E+00 0.  1.
         11    1    5    5    0    0 -0.18505775525E+03  0.58411374551E+03 -0.62800757309E+03  0.87739885590E+03  0.00000000000E+00 0. -1.
        -11    1    5    5    0    0 -0.22290587493E+03  0.43811841432E+03 -0.52086805318E+03  0.71619711175E+03  0.00000000000E+00 0.  1.
          3    1    6    6  503    0  0.31514041550E+02 -0.40110011848E+02 -0.67803257184E+02  0.84848273701E+02  0.00000000000E+00 0. -1.
         -3    1    6    6    0  503  0.15250202614E+03 -0.28034302103E+02 -0.59044886886E+02  0.16591892218E+03  0.00000000000E+00 0.  1.
<mgrwt>
<rscale>  0 0.23348007E+04</rscale>
<asrwt>0</asrwt>
<pdfrwt beam="1">  1        2 0.37609889E+00 0.23348007E+04</pdfrwt>
<pdfrwt beam="2">  1       -1 0.85765154E-01 0.23348007E+04</pdfrwt>
<totfact> 0.51746392E+00</totfact>
</mgrwt>
</event>
<event>
12    6  0.1402540E-007  0.2104640E+04  0.7818608E-02  0.8559202E-01
          2   -1    0    0  501    0  0.00000000000E+00  0.00000000000E+00  0.11231111006E+04  0.11231111006E+04  0.00000000000E+00 0. -1.
         -1   -1    0    0    0  501 -0.00000000000E+00 -0.00000000000E+00 -0.98599131456E+03  0.98599131456E+03  0.00000000000E+00 0.  1.
         24    2    1    2    0    0 -0.72860257040E+03  0.30167982317E+03  0.38356683015E+03  0.88067063730E+03  0.81147008061E+02 0.  0.
        254    2    1    2    0    0  0.72860257040E+03 -0.30167982317E+03 -0.24644704415E+03  0.12284317778E+04  0.90908529078E+03 0.  0.
         23    2    4    4    0    0  0.22999975599E+03 -0.57093177163E+03 -0.19619712393E+03  0.65253399503E+03  0.91893022711E+02 0.  0.
         23    2    4    4    0    0  0.49860281441E+03  0.26925194846E+03 -0.50249920212E+02  0.57589778280E+03  0.89620441093E+02 0.  0.
          4    1    3    3  502    0 -0.38361578484E+03  0.13475464807E+03  0.23507807290E+03  0.46966113945E+03  0.00000000000E+00 0. -1.
         -3    1    3    3    0  502 -0.34498678556E+03  0.16692517510E+03  0.14848875725E+03  0.41100949785E+03  0.00000000000E+00 0.  1.
         11    1    5    5    0    0  0.10327389561E+03 -0.28823707497E+03 -0.51006242602E+02  0.31039933261E+03  0.00000000000E+00 0. -1.
        -11    1    5    5    0    0  0.12672586038E+03 -0.28269469666E+03 -0.14519088133E+03  0.34213466242E+03  0.00000000000E+00 0.  1.
          1    1    6    6  503    0  0.35023792257E+03  0.22562260893E+03 -0.60124267635E+02  0.42093597093E+03  0.00000000000E+00 0. -1.
         -1    1    6    6    0  503  0.14836489184E+03  0.43629339525E+02  0.98743474237E+01  0.15496181187E+03  0.00000000000E+00 0.  1.
<mgrwt>
<rscale>  0 0.21046404E+04</rscale>
<asrwt>0</asrwt>
<pdfrwt beam="1">  1        2 0.17278632E+00 0.21046404E+04</pdfrwt>
<pdfrwt beam="2">  1       -1 0.15169097E+00 0.21046404E+04</pdfrwt>
<totfact> 0.74966922E+00</totfact>
</mgrwt>
</event>
<event>
12    6  0.1402540E-007  0.1413144E+04  0.7818608E-02  0.8944359E-01
          2   -1    0    0  501    0  0.00000000000E+00  0.00000000000E+00  0.37368534923E+03  0.37368534923E+03  0.00000000000E+00 0. -1.
         -1   -1    0    0    0  501 -0.00000000000E+00 -0.00000000000E+00 -0.13360016966E+04  0.13360016966E+04  0.00000000000E+00 0.  1.
         24    2    1    2    0    0  0.17773781963E+03 -0.66573666859E+02  0.15785146767E+03  0.26102937203E+03  0.84831960798E+02 0.  0.
        254    2    1    2    0    0 -0.17773781963E+03  0.66573666859E+02 -0.11201678150E+04  0.14486576738E+04  0.89878269695E+03 0.  0.
         23    2    4    4    0    0  0.17887054614E+02 -0.18713553482E+03 -0.10939190215E+04  0.11137252715E+04  0.91572373922E+02 0.  0.
         23    2    4    4    0    0 -0.19562487425E+03  0.25370920168E+03 -0.26248793554E+02  0.33493240231E+03  0.94091787697E+02 0.  0.
          2    1    3    3  502    0  0.12119067105E+03 -0.40702120435E+02  0.15193342360E+03  0.19856386016E+03  0.00000000000E+00 0. -1.
         -1    1    3    3    0  502  0.56547148589E+02 -0.25871546424E+02  0.59180440685E+01  0.62465511872E+02  0.00000000000E+00 0.  1.
         11    1    5    5    0    0  0.21854281640E+02 -0.18429962235E+03 -0.10931450193E+04  0.11087876233E+04  0.00000000000E+00 0. -1.
        -11    1    5    5    0    0 -0.39672270257E+01 -0.28359124675E+01 -0.77400216585E+00  0.49376481395E+01  0.00000000000E+00 0.  1.
          4    1    6    6  503    0 -0.19821206149E+02  0.94998184707E+02 -0.63359191013E+01  0.97250599904E+02  0.00000000000E+00 0.  1.
         -4    1    6    6    0  503 -0.17580366810E+03  0.15871101697E+03 -0.19912874453E+02  0.23768180240E+03  0.00000000000E+00 0. -1.
<mgrwt>
<rscale>  0 0.14131444E+04</rscale>
<asrwt>0</asrwt>
<pdfrwt beam="1">  1        2 0.57490053E-01 0.14131444E+04</pdfrwt>
<pdfrwt beam="2">  1       -1 0.20553872E+00 0.14131444E+04</pdfrwt>
<totfact> 0.13173546E+01</totfact>
</mgrwt>
</event>
<event>
12    6  0.1402540E-007  0.1463464E+04  0.7818608E-02  0.8909119E-01
         -1   -1    0    0    0  501 -0.00000000000E+00  0.00000000000E+00  0.23048068816E+03  0.23048068816E+03  0.00000000000E+00 0.  1.
          2   -1    0    0  501    0  0.00000000000E+00 -0.00000000000E+00 -0.23231073969E+04  0.23231073969E+04  0.00000000000E+00 0. -1.
         24    2    1    2    0    0 -0.44105473861E+03  0.81735352130E+02 -0.65216141940E+03  0.79677795648E+03  0.91272365722E+02 0.  0.
        254    2    1    2    0    0  0.44105473861E+03 -0.81735352130E+02 -0.14404652893E+04  0.17568101286E+04  0.90012867293E+03 0.  0.
         23    2    4    4    0    0  0.65293469957E+03  0.12384285318E+03 -0.11526896158E+04  0.13342722215E+04  0.99640536975E+02 0.  0.
         23    2    4    4    0    0 -0.21187996096E+03 -0.20557820531E+03 -0.28777567351E+03  0.42253790701E+03  0.92563104132E+02 0.  0.
          2    1    3    3  502    0 -0.13446350945E+03  0.20285312352E+02 -0.27554853033E+03  0.30727662104E+03  0.00000000000E+00 0. -1.
         -1    1    3    3    0  502 -0.30659122916E+03  0.61450039779E+02 -0.37661288907E+03  0.48950133544E+03  0.00000000000E+00 0.  1.
         11    1    5    5    0    0  0.43998151642E+03  0.50795439225E+02 -0.69354149415E+03  0.82289957804E+03  0.00000000000E+00 0.  1.
        -11    1    5    5    0    0  0.21295318315E+03  0.73047413955E+02 -0.45914812165E+03  0.51137264350E+03  0.00000000000E+00 0. -1.
          2    1    6    6  503    0 -0.10603575239E+03 -0.16365509913E+03 -0.19364652604E+03  0.27481912107E+03  0.00000000000E+00 0. -1.
         -2    1    6    6    0  503 -0.10584420856E+03 -0.41923106180E+02 -0.94129147467E+02  0.14771878595E+03  0.00000000000E+00 0.  1.
<mgrwt>
<rscale>  0 0.14634636E+04</rscale>
<asrwt>0</asrwt>
<pdfrwt beam="1">  1        2 0.35740115E+00 0.14634636E+04</pdfrwt>
<pdfrwt beam="2">  1       -1 0.35458567E-01 0.14634636E+04</pdfrwt>
<totfact> 0.36861417E+01</totfact>
</mgrwt>
</event>
<event>
12    6  0.1402540E-007  0.1888751E+04  0.7818608E-02  0.8660476E-01
         -1   -1    0    0    0  501 -0.00000000000E+00  0.00000000000E+00  0.60820712667E+03  0.60820712667E+03  0.00000000000E+00 0.  1.
          2   -1    0    0  501    0  0.00000000000E+00 -0.00000000000E+00 -0.14663505202E+04  0.14663505202E+04  0.00000000000E+00 0. -1.
         24    2    1    2    0    0 -0.66481659596E+02  0.61253954636E+03 -0.75303707722E+03  0.97625607140E+03  0.79916020615E+02 0.  0.
        254    2    1    2    0    0  0.66481659596E+02 -0.61253954636E+03 -0.10510631631E+03  0.10983015755E+04  0.90310271067E+03 0.  0.
         23    2    4    4    0    0  0.62891513091E+02 -0.77756527822E+03 -0.28765710807E+03  0.83637782928E+03  0.90654052101E+02 0.  0.
         23    2    4    4    0    0  0.35901465042E+01  0.16502573186E+03  0.18255079176E+03  0.26192374619E+03  0.89626312636E+02 0.  0.
          4    1    3    3  502    0 -0.52324194509E+02  0.47174191896E+03 -0.62969413886E+03  0.78853850125E+03  0.00000000000E+00 0. -1.
         -1    1    3    3    0  502 -0.14157465086E+02  0.14079762740E+03 -0.12334293836E+03  0.18771757015E+03  0.00000000000E+00 0.  1.
         11    1    5    5    0    0  0.68136815602E+02 -0.43586750759E+03 -0.19475475424E+03  0.48223699994E+03  0.00000000000E+00 0.  1.
        -11    1    5    5    0    0 -0.52453025110E+01 -0.34169777064E+03 -0.92902353834E+02  0.35414082934E+03  0.00000000000E+00 0. -1.
          1    1    6    6  503    0  0.12416283016E+02  0.16824976271E+03  0.18671670186E+03  0.25164513405E+03  0.00000000000E+00 0.  1.
         -1    1    6    6    0  503 -0.88261365121E+01 -0.32240308486E+01 -0.41659100977E+01  0.10278612143E+02  0.00000000000E+00 0. -1.
<mgrwt>
<rscale>  0 0.18887507E+04</rscale>
<asrwt>0</asrwt>
<pdfrwt beam="1">  1        2 0.22559239E+00 0.18887507E+04</pdfrwt>
<pdfrwt beam="2">  1       -1 0.93570328E-01 0.18887507E+04</pdfrwt>
<totfact> 0.15695442E+01</totfact>
</mgrwt>
</event>
<event>
12    6  0.1402540E-007  0.1937008E+04  0.7818608E-02  0.8636651E-01
          2   -1    0    0  501    0  0.00000000000E+00  0.00000000000E+00  0.12617406016E+04  0.12617406016E+04  0.00000000000E+00 0. -1.
         -1   -1    0    0    0  501 -0.00000000000E+00 -0.00000000000E+00 -0.74341739413E+03  0.74341739413E+03  0.00000000000E+00 0.  1.
         24    2    1    2    0    0 -0.57383027164E+03  0.43752517273E+03  0.42854550794E+03  0.84303159994E+03  0.79633967044E+02 0.  0.
        254    2    1    2    0    0  0.57383027164E+03 -0.43752517273E+03  0.89777699562E+02  0.11621263958E+04  0.90651435019E+03 0.  0.
         23    2    4    4    0    0  0.22442910186E+03 -0.52792414394E+03 -0.27381303973E+03  0.64201282437E+03  0.90191809033E+02 0.  0.
         23    2    4    4    0    0  0.34940116978E+03  0.90398971205E+02  0.36359073929E+03  0.52011357145E+03  0.89815088175E+02 0.  0.
          4    1    3    3  502    0 -0.36878319259E+03  0.31175367732E+03  0.31874147231E+03  0.57860826526E+03  0.00000000000E+00 0. -1.
         -3    1    3    3    0  502 -0.20504707904E+03  0.12577149541E+03  0.10980403564E+03  0.26442333468E+03  0.00000000000E+00 0.  1.
         11    1    5    5    0    0  0.92823929911E+02 -0.32858657224E+03 -0.14955133791E+03  0.37276134468E+03  0.00000000000E+00 0. -1.
        -11    1    5    5    0    0  0.13160517195E+03 -0.19933757170E+03 -0.12426170183E+03  0.26925147969E+03  0.00000000000E+00 0.  1.
          1    1    6    6  503    0  0.26722212912E+03  0.27911561368E+02  0.26276360282E+03  0.37580770683E+03  0.00000000000E+00 0. -1.
         -1    1    6    6    0  503  0.82179040663E+02  0.62487409837E+02  0.10082713647E+03  0.14430586461E+03  0.00000000000E+00 0.  1.
<mgrwt>
<rscale>  0 0.19370079E+04</rscale>
<asrwt>0</asrwt>
<pdfrwt beam="1">  1        2 0.19411394E+00 0.19370079E+04</pdfrwt>
<pdfrwt beam="2">  1       -1 0.11437191E+00 0.19370079E+04</pdfrwt>
<totfact> 0.12889454E+01</totfact>
</mgrwt>
</event>
<event>
12    6  0.1402540E-007  0.2657492E+04  0.7818608E-02  0.8348930E-01
         -1   -1    0    0    0  501 -0.00000000000E+00  0.00000000000E+00  0.80089949012E+03  0.80089949012E+03  0.00000000000E+00 0.  1.
          2   -1    0    0  501    0  0.00000000000E+00 -0.00000000000E+00 -0.22044795783E+04  0.22044795783E+04  0.00000000000E+00 0. -1.
         24    2    1    2    0    0  0.99373718079E+03 -0.51431025063E+03 -0.21046212731E+03  0.11413284984E+04  0.79421759260E+02 0.  0.
        254    2    1    2    0    0 -0.99373718079E+03  0.51431025063E+03 -0.11931179608E+04  0.18640505700E+04  0.89393816375E+03 0.  0.
         23    2    4    4    0    0 -0.99579529342E+02 -0.19914523248E+03 -0.40761390298E+03  0.47334787549E+03  0.91291900183E+02 0.  0.
         23    2    4    4    0    0 -0.89415765145E+03  0.71345548310E+03 -0.78550405785E+03  0.13907026945E+04  0.92199390334E+02 0.  0.
          4    1    3    3  502    0  0.55662759293E+03 -0.31605213066E+03 -0.15122064395E+03  0.65771643560E+03  0.00000000000E+00 0. -1.
         -3    1    3    3    0  502  0.43710958786E+03 -0.19825811997E+03 -0.59241483358E+02  0.48361206280E+03  0.00000000000E+00 0.  1.
         11    1    5    5    0    0 -0.49238774268E+01  0.95202851182E+01 -0.27501855681E+02  0.29516647227E+02  0.00000000000E+00 0.  1.
        -11    1    5    5    0    0 -0.94655651915E+02 -0.20866551759E+03 -0.38011204730E+03  0.44383122826E+03  0.00000000000E+00 0. -1.
          1    1    6    6  503    0 -0.80948604368E+03  0.66704108611E+03 -0.74182622433E+03  0.12847247225E+04  0.00000000000E+00 0. -1.
         -1    1    6    6    0  503 -0.84671607765E+02  0.46414396993E+02 -0.43677833510E+02  0.10597797200E+03  0.00000000000E+00 0.  1.
<mgrwt>
<rscale>  0 0.26574925E+04</rscale>
<asrwt>0</asrwt>
<pdfrwt beam="1">  1        2 0.33915069E+00 0.26574925E+04</pdfrwt>
<pdfrwt beam="2">  1       -1 0.12321531E+00 0.26574925E+04</pdfrwt>
<totfact> 0.29812039E+00</totfact>
</mgrwt>
</event>
<event>
12    6  0.1402540E-007  0.2608884E+04  0.7818608E-02  0.8365190E-01
          2   -1    0    0  501    0  0.00000000000E+00  0.00000000000E+00  0.10158641945E+04  0.10158641945E+04  0.00000000000E+00 0. -1.
         -1   -1    0    0    0  501 -0.00000000000E+00 -0.00000000000E+00 -0.16749962383E+04  0.16749962383E+04  0.00000000000E+00 0.  1.
         24    2    1    2    0    0 -0.28681547214E+03  0.10950759448E+04 -0.48948009390E+03  0.12356898845E+04  0.76709114832E+02 0.  0.
        254    2    1    2    0    0  0.28681547214E+03 -0.10950759448E+04 -0.16965194991E+03  0.14551705484E+04  0.89849045670E+03 0.  0.
         23    2    4    4    0    0 -0.19897680070E+03 -0.51630583759E+03  0.21682410891E+03  0.60159577708E+03  0.93494917747E+02 0.  0.
         23    2    4    4    0    0  0.48579227283E+03 -0.57877010723E+03 -0.38647605882E+03  0.85357477130E+03  0.90869008999E+02 0.  0.
          2    1    3    3  502    0 -0.18554198366E+02  0.59702799617E+02 -0.90090591673E+01  0.63165225450E+02  0.00000000000E+00 0. -1.
         -1    1    3    3    0  502 -0.26826127377E+03  0.10353731452E+04 -0.48047103473E+03  0.11725246590E+04  0.00000000000E+00 0.  1.
         11    1    5    5    0    0 -0.10916357480E+03 -0.39108788651E+03  0.17326577102E+03  0.44146058538E+03  0.00000000000E+00 0.  1.
        -11    1    5    5    0    0 -0.89813225899E+02 -0.12521795108E+03  0.43558337887E+02  0.16013519169E+03  0.00000000000E+00 0. -1.
          2    1    6    6  503    0  0.16462508315E+02 -0.23319811797E+01 -0.21639988444E+01  0.16767087023E+02  0.00000000000E+00 0. -1.
         -2    1    6    6    0  503  0.46932976452E+03 -0.57643812605E+03 -0.38431205997E+03  0.83680768428E+03  0.00000000000E+00 0.  1.
<mgrwt>
<rscale>  0 0.26088838E+04</rscale>
<asrwt>0</asrwt>
<pdfrwt beam="1">  1        2 0.15628680E+00 0.26088838E+04</pdfrwt>
<pdfrwt beam="2">  1       -1 0.25769173E+00 0.26088838E+04</pdfrwt>
<totfact> 0.15398699E+00</totfact>
</mgrwt>
</event>
<event>
12    6  0.1402540E-007  0.1724920E+04  0.7818608E-02  0.8747278E-01
         -1   -1    0    0    0  501 -0.00000000000E+00  0.00000000000E+00  0.88741877632E+03  0.88741877632E+03  0.00000000000E+00 0.  1.
          2   -1    0    0  501    0  0.00000000000E+00 -0.00000000000E+00 -0.83820363507E+03  0.83820363507E+03  0.00000000000E+00 0. -1.
         24    2    1    2    0    0 -0.60116763689E+03 -0.13620452463E+03  0.11872634915E+03  0.63250060254E+03  0.77503974453E+02 0.  0.
        254    2    1    2    0    0  0.60116763689E+03  0.13620452463E+03 -0.69511207900E+02  0.10931218088E+04  0.90007181978E+03 0.  0.
         23    2    4    4    0    0  0.80482046060E+03  0.24135485221E+01  0.39380028413E+02  0.81093017161E+03  0.91187485785E+02 0.  0.
         23    2    4    4    0    0 -0.20365282371E+03  0.13379097611E+03 -0.10889123631E+03  0.28219163724E+03  0.91653264465E+02 0.  0.
          4    1    3    3  502    0 -0.49429066800E+03 -0.12582857559E+03  0.12427966201E+03  0.52497764647E+03  0.00000000000E+00 0. -1.
         -3    1    3    3    0  502 -0.10687696889E+03 -0.10375949040E+02 -0.55533128568E+01  0.10752295607E+03  0.00000000000E+00 0.  1.
         11    1    5    5    0    0  0.49495540121E+03 -0.28828045515E+02 -0.83105057768E+01  0.49586386227E+03  0.00000000000E+00 0. -1.
        -11    1    5    5    0    0  0.30986505939E+03  0.31241594037E+02  0.47690534190E+02  0.31506630934E+03  0.00000000000E+00 0.  1.
          3    1    6    6  503    0 -0.12951442361E+03  0.10787605389E+03 -0.30627126180E+02  0.17131622744E+03  0.00000000000E+00 0. -1.
         -3    1    6    6    0  503 -0.74138400101E+02  0.25914922221E+02 -0.78264110133E+02  0.11087540980E+03  0.00000000000E+00 0.  1.
<mgrwt>
<rscale>  0 0.17249205E+04</rscale>
<asrwt>0</asrwt>
<pdfrwt beam="1">  1        2 0.12895440E+00 0.17249205E+04</pdfrwt>
<pdfrwt beam="2">  1       -1 0.13652597E+00 0.17249205E+04</pdfrwt>
<totfact> 0.15694957E+01</totfact>
</mgrwt>
</event>
<event>
12    6  0.1402540E-007  0.3095580E+04  0.7818608E-02  0.8216952E-01
         -3   -1    0    0    0  501 -0.00000000000E+00  0.00000000000E+00  0.14419153374E+04  0.14419153374E+04  0.00000000000E+00 0.  1.
          2   -1    0    0  501    0  0.00000000000E+00 -0.00000000000E+00 -0.16614390106E+04  0.16614390106E+04  0.00000000000E+00 0. -1.
         24    2    1    2    0    0  0.10379770682E+04  0.89503846453E+03 -0.45369481975E+03  0.14465371971E+04  0.90225416614E+02 0.  0.
        254    2    1    2    0    0 -0.10379770682E+04 -0.89503846453E+03  0.23417114660E+03  0.16568171509E+04  0.90095321661E+03 0.  0.
         23    2    4    4    0    0 -0.42615258507E+02 -0.47942725424E+03  0.29621663172E+03  0.57277214674E+03  0.93043467306E+02 0.  0.
         23    2    4    4    0    0 -0.99536180974E+03 -0.41561121029E+03 -0.62045485124E+02  0.10840450042E+04  0.88465351833E+02 0.  0.
          2    1    3    3  502    0  0.88125304251E+03  0.78475576892E+03 -0.36352497281E+03  0.12347465115E+04  0.00000000000E+00 0. -1.
         -1    1    3    3    0  502  0.15672402574E+03  0.11028269561E+03 -0.90169846941E+02  0.21179068556E+03  0.00000000000E+00 0.  1.
         11    1    5    5    0    0 -0.55069238361E+02 -0.42966084215E+03  0.28955484044E+03  0.52104036880E+03  0.00000000000E+00 0.  1.
        -11    1    5    5    0    0  0.12453979854E+02 -0.49766412084E+02  0.66617912797E+01  0.51731777941E+02  0.00000000000E+00 0. -1.
          1    1    6    6  503    0 -0.47803168304E+03 -0.16737651862E+03  0.35863427582E+01  0.50649980339E+03  0.00000000000E+00 0. -1.
         -1    1    6    6    0  503 -0.51733012670E+03 -0.24823469166E+03 -0.65631827882E+02  0.57754520080E+03  0.00000000000E+00 0.  1.
<mgrwt>
<rscale>  0 0.30955803E+04</rscale>
<asrwt>0</asrwt>
<pdfrwt beam="1">  1        2 0.25560600E+00 0.30955803E+04</pdfrwt>
<pdfrwt beam="2">  1       -3 0.22183313E+00 0.30955803E+04</pdfrwt>
<totfact> 0.59245455E-01</totfact>
</mgrwt>
</event>
<event>
12    6  0.1402540E-007  0.3052575E+04  0.7818608E-02  0.8228875E-01
          2   -1    0    0  501    0  0.00000000000E+00  0.00000000000E+00  0.33101485861E+04  0.33101485861E+04  0.00000000000E+00 0. -1.
         -1   -1    0    0    0  501 -0.00000000000E+00 -0.00000000000E+00 -0.70376081662E+03  0.70376081662E+03  0.00000000000E+00 0.  1.
         24    2    1    2    0    0  0.13058287524E+03  0.13373655898E+04  0.71159644503E+03  0.15227174796E+04  0.81856056111E+02 0.  0.
        254    2    1    2    0    0 -0.13058287524E+03 -0.13373655898E+04  0.18947913244E+04  0.24911919231E+04  0.90011356314E+03 0.  0.
         23    2    4    4    0    0  0.15179211500E+03 -0.28985570794E+03  0.10789317855E+04  0.11308336896E+04  0.87371952884E+02 0.  0.
         23    2    4    4    0    0 -0.28237499024E+03 -0.10475098819E+04  0.81585953893E+03  0.13603582335E+04  0.89079450618E+02 0.  0.
          4    1    3    3  502    0  0.77342442344E+02  0.10181004938E+04  0.57072403812E+03  0.11697163744E+04  0.00000000000E+00 0. -1.
         -3    1    3    3    0  502  0.53240432897E+02  0.31926509602E+03  0.14087240692E+03  0.35300110519E+03  0.00000000000E+00 0.  1.
         11    1    5    5    0    0 -0.64779196692E+01 -0.22938179784E+01  0.58666716570E+02  0.59067831154E+02  0.00000000000E+00 0. -1.
        -11    1    5    5    0    0  0.15827003467E+03 -0.28756188996E+03  0.10202650689E+04  0.10717658584E+04  0.00000000000E+00 0.  1.
          4    1    6    6  503    0 -0.15774465928E+02 -0.93432224627E+02  0.10266188484E+03  0.13970639560E+03  0.00000000000E+00 0. -1.
         -4    1    6    6    0  503 -0.26660052431E+03 -0.95407765725E+03  0.71319765409E+03  0.12206518379E+04  0.00000000000E+00 0.  1.
<mgrwt>
<rscale>  0 0.30525746E+04</rscale>
<asrwt>0</asrwt>
<pdfrwt beam="1">  1        2 0.50925362E+00 0.30525746E+04</pdfrwt>
<pdfrwt beam="2">  1       -1 0.10827090E+00 0.30525746E+04</pdfrwt>
<totfact> 0.84046529E-01</totfact>
</mgrwt>
</event>
<event>
12    6  0.1402540E-007  0.1785987E+04  0.7818608E-02  0.8713787E-01
          2   -1    0    0  501    0  0.00000000000E+00  0.00000000000E+00  0.28037906407E+04  0.28037906407E+04  0.00000000000E+00 0. -1.
         -3   -1    0    0    0  501 -0.00000000000E+00 -0.00000000000E+00 -0.28441398335E+03  0.28441398335E+03  0.00000000000E+00 0.  1.
         24    2    1    2    0    0  0.57937984630E+03 -0.63799072812E+02  0.39365984813E+03  0.70696829007E+03  0.71307497154E+02 0.  0.
        254    2    1    2    0    0 -0.57937984630E+03  0.63799072812E+02  0.21257168092E+04  0.23812363339E+04  0.90103451501E+03 0.  0.
         23    2    4    4    0    0 -0.35692528765E+03 -0.38731773296E+03  0.13516184946E+04  0.14534975118E+04  0.91497401970E+02 0.  0.
         23    2    4    4    0    0 -0.22245455865E+03  0.45111680577E+03  0.77409831461E+03  0.92773882219E+03  0.92079956564E+02 0.  0.
          4    1    3    3  502    0  0.20421231289E+03 -0.44375955763E+02  0.17293560463E+03  0.27125378806E+03  0.00000000000E+00 0. -1.
         -3    1    3    3    0  502  0.37516753341E+03 -0.19423117050E+02  0.22072424350E+03  0.43571450201E+03  0.00000000000E+00 0.  1.
         11    1    5    5    0    0 -0.86059999430E+02 -0.47903009784E+02  0.29977684509E+03  0.31554267334E+03  0.00000000000E+00 0.  1.
        -11    1    5    5    0    0 -0.27086528822E+03 -0.33941472317E+03  0.10518416495E+04  0.11379548384E+04  0.00000000000E+00 0. -1.
          1    1    6    6  503    0 -0.16323829844E+03  0.29715221836E+03  0.59058515575E+03  0.68098238534E+03  0.00000000000E+00 0. -1.
         -1    1    6    6    0  503 -0.59216260215E+02  0.15396458742E+03  0.18351315886E+03  0.24675643685E+03  0.00000000000E+00 0.  1.
<mgrwt>
<rscale>  0 0.17859869E+04</rscale>
<asrwt>0</asrwt>
<pdfrwt beam="1">  1        2 0.43135239E+00 0.17859869E+04</pdfrwt>
<pdfrwt beam="2">  1       -3 0.43756000E-01 0.17859869E+04</pdfrwt>
<totfact> 0.73203943E+00</totfact>
</mgrwt>
</event>
<event>
12    6  0.1402540E-007  0.2994402E+04  0.7818608E-02  0.8245331E-01
          2   -1    0    0  501    0  0.00000000000E+00  0.00000000000E+00  0.35932435750E+04  0.35932435750E+04  0.00000000000E+00 0. -1.
         -1   -1    0    0    0  501 -0.00000000000E+00 -0.00000000000E+00 -0.62384061995E+03  0.62384061995E+03  0.00000000000E+00 0.  1.
         24    2    1    2    0    0  0.93915813113E+03 -0.91690899543E+03  0.18411001265E+04  0.22623893325E+04  0.77561038243E+02 0.  0.
        254    2    1    2    0    0 -0.93915813113E+03  0.91690899543E+03  0.11283028285E+04  0.19546948625E+04  0.90830866523E+03 0.  0.
         23    2    4    4    0    0 -0.23122613960E+03  0.10901724718E+02  0.66738404346E+03  0.71239220277E+03  0.92286585514E+02 0.  0.
         23    2    4    4    0    0 -0.70793199153E+03  0.90600727071E+03  0.46091878506E+03  0.12423026597E+04  0.94089811644E+02 0.  0.
          2    1    3    3  502    0  0.67131560058E+03 -0.63038287866E+03  0.13429625255E+04  0.16283720565E+04  0.00000000000E+00 0. -1.
         -1    1    3    3    0  502  0.26784253055E+03 -0.28652611677E+03  0.49813760102E+03  0.63401727604E+03  0.00000000000E+00 0.  1.
         11    1    5    5    0    0 -0.47495619735E+02 -0.35135923916E+02  0.18259079045E+03  0.19191082252E+03  0.00000000000E+00 0. -1.
        -11    1    5    5    0    0 -0.18373051987E+03  0.46037648634E+02  0.48479325301E+03  0.52048138025E+03  0.00000000000E+00 0.  1.
          4    1    6    6  503    0 -0.10032873926E+03  0.88080669328E+02  0.35516928198E+02  0.13815032544E+03  0.00000000000E+00 0. -1.
         -4    1    6    6    0  503 -0.60760325226E+03  0.81792660139E+03  0.42540185687E+03  0.11041523343E+04  0.00000000000E+00 0.  1.
<mgrwt>
<rscale>  0 0.29944023E+04</rscale>
<asrwt>0</asrwt>
<pdfrwt beam="1">  1        2 0.55280669E+00 0.29944023E+04</pdfrwt>
<pdfrwt beam="2">  1       -1 0.95975482E-01 0.29944023E+04</pdfrwt>
<totfact> 0.71021664E-01</totfact>
</mgrwt>
</event>
<event>
12    6  0.1402540E-007  0.2355794E+04  0.7818608E-02  0.8456241E-01
         -1   -1    0    0    0  501 -0.00000000000E+00  0.00000000000E+00  0.63811167684E+03  0.63811167684E+03  0.00000000000E+00 0.  1.
          2   -1    0    0  501    0  0.00000000000E+00 -0.00000000000E+00 -0.21742932267E+04  0.21742932267E+04  0.00000000000E+00 0. -1.
         24    2    1    2    0    0  0.21120886501E+03 -0.97328943856E+03 -0.50193623095E+03  0.11181047610E+04  0.79478052468E+02 0.  0.
        254    2    1    2    0    0 -0.21120886501E+03  0.97328943856E+03 -0.10342453190E+04  0.16943001426E+04  0.89949323366E+03 0.  0.
         23    2    4    4    0    0  0.10512632968E+03  0.75254359311E+03 -0.23276506715E+03  0.79987965261E+03  0.90854154859E+02 0.  0.
         23    2    4    4    0    0 -0.31633519469E+03  0.22074584545E+03 -0.80148025180E+03  0.89442048994E+03  0.93918768718E+02 0.  0.
          4    1    3    3  502    0  0.18253955457E+03 -0.87222198090E+03 -0.47427325350E+03  0.10094686681E+04  0.00000000000E+00 0. -1.
         -3    1    3    3    0  502  0.28669310440E+02 -0.10106745766E+03 -0.27662977444E+02  0.10863609290E+03  0.00000000000E+00 0.  1.
         11    1    5    5    0    0  0.99933057308E+02  0.43435425986E+03 -0.15897101611E+03  0.47320399720E+03  0.00000000000E+00 0.  1.
        -11    1    5    5    0    0  0.51932723769E+01  0.31818933324E+03 -0.73794051042E+02  0.32667565541E+03  0.00000000000E+00 0. -1.
          2    1    6    6  503    0 -0.21894464989E+03  0.20028181543E+03 -0.62345813803E+03  0.69047057518E+03  0.00000000000E+00 0. -1.
         -2    1    6    6    0  503 -0.97390544806E+02  0.20464030020E+02 -0.17802211376E+03  0.20394991476E+03  0.00000000000E+00 0.  1.
<mgrwt>
<rscale>  0 0.23557945E+04</rscale>
<asrwt>0</asrwt>
<pdfrwt beam="1">  1        2 0.33450665E+00 0.23557945E+04</pdfrwt>
<pdfrwt beam="2">  1       -1 0.98171027E-01 0.23557945E+04</pdfrwt>
<totfact> 0.54493512E+00</totfact>
</mgrwt>
</event>
<event>
12    6  0.1402540E-007  0.4163782E+04  0.7818608E-02  0.7972298E-01
         -1   -1    0    0    0  501 -0.00000000000E+00  0.00000000000E+00  0.21003894316E+04  0.21003894316E+04  0.00000000000E+00 0.  1.
          2   -1    0    0  501    0  0.00000000000E+00 -0.00000000000E+00 -0.20635555230E+04  0.20635555230E+04  0.00000000000E+00 0. -1.
         24    2    1    2    0    0 -0.19218325071E+04 -0.15849799029E+03 -0.44960967822E+03  0.19818487719E+04  0.83748990788E+02 0.  0.
        254    2    1    2    0    0  0.19218325071E+04  0.15849799029E+03  0.48644358685E+03  0.21820961828E+04  0.89797248805E+03 0.  0.
         23    2    4    4    0    0  0.14941505589E+04  0.38130579797E+03  0.82337402168E+02  0.15464173792E+04  0.82141699590E+02 0.  0.
         23    2    4    4    0    0  0.42768194827E+03 -0.22280780768E+03  0.40410618468E+03  0.63567880357E+03  0.90722460126E+02 0.  0.
          4    1    3    3  502    0 -0.11364243374E+04 -0.71203020045E+02 -0.30081459553E+03  0.11777179482E+04  0.00000000000E+00 0. -1.
         -3    1    3    3    0  502 -0.78540816972E+03 -0.87294970244E+02 -0.14879508269E+03  0.80413082364E+03  0.00000000000E+00 0.  1.
         11    1    5    5    0    0  0.38046460309E+03  0.66263533734E+02  0.12803739577E+01  0.38619400496E+03  0.00000000000E+00 0. -1.
        -11    1    5    5    0    0  0.11136859558E+04  0.31504226423E+03  0.81057028211E+02  0.11602233742E+04  0.00000000000E+00 0.  1.
          3    1    6    6  503    0  0.79982859033E+01  0.59116437068E+01  0.20612341610E+02  0.22886431250E+02  0.00000000000E+00 0. -1.
         -3    1    6    6    0  503  0.41968366237E+03 -0.22871945138E+03  0.38349384307E+03  0.61279237232E+03  0.00000000000E+00 0.  1.
<mgrwt>
<rscale>  0 0.41637820E+04</rscale>
<asrwt>0</asrwt>
<pdfrwt beam="1">  1        2 0.31747008E+00 0.41637820E+04</pdfrwt>
<pdfrwt beam="2">  1       -1 0.32313683E+00 0.41637820E+04</pdfrwt>
<totfact> 0.12733559E-01</totfact>
</mgrwt>
</event>
<event>
12    6  0.1402540E-007  0.3104738E+04  0.7818608E-02  0.8214439E-01
          2   -1    0    0  501    0  0.00000000000E+00  0.00000000000E+00  0.15848454556E+04  0.15848454556E+04  0.00000000000E+00 0. -1.
         -1   -1    0    0    0  501 -0.00000000000E+00 -0.00000000000E+00 -0.15205580736E+04  0.15205580736E+04  0.00000000000E+00 0.  1.
         24    2    1    2    0    0  0.13115109428E+04 -0.44132620449E+02 -0.51492289319E+03  0.14119684462E+04  0.80626706689E+02 0.  0.
        254    2    1    2    0    0 -0.13115109428E+04  0.44132620449E+02  0.57921027519E+03  0.16934350831E+04  0.90012732231E+03 0.  0.
         23    2    4    4    0    0 -0.11479140919E+04 -0.22560685483E+03  0.67163253984E+03  0.13521808439E+04  0.93260659493E+02 0.  0.
         23    2    4    4    0    0 -0.16359685089E+03  0.26973947528E+03 -0.92422264649E+02  0.34125423919E+03  0.91592939755E+02 0.  0.
          4    1    3    3  502    0  0.84239295575E+03 -0.58295639103E+02 -0.30462332310E+03  0.89767457490E+03  0.00000000000E+00 0. -1.
         -1    1    3    3    0  502  0.46911798706E+03  0.14163018654E+02 -0.21029957009E+03  0.51429387130E+03  0.00000000000E+00 0.  1.
         11    1    5    5    0    0 -0.12237690837E+03 -0.22242504524E+02  0.39842993182E+02  0.13060743017E+03  0.00000000000E+00 0.  1.
        -11    1    5    5    0    0 -0.10255371835E+04 -0.20336435031E+03  0.63178954665E+03  0.12215734137E+04  0.00000000000E+00 0. -1.
          3    1    6    6  503    0 -0.83120792883E+02  0.17763496958E+03 -0.15423834510E+02  0.19672606156E+03  0.00000000000E+00 0. -1.
         -3    1    6    6    0  503 -0.80476058010E+02  0.92104505701E+02 -0.76998430139E+02  0.14452817762E+03  0.00000000000E+00 0.  1.
<mgrwt>
<rscale>  0 0.31047380E+04</rscale>
<asrwt>0</asrwt>
<pdfrwt beam="1">  1        2 0.24382238E+00 0.31047380E+04</pdfrwt>
<pdfrwt beam="2">  1       -1 0.23393201E+00 0.31047380E+04</pdfrwt>
<totfact> 0.97674197E-01</totfact>
</mgrwt>
</event>
<event>
12    6  0.1402540E-007  0.2007612E+04  0.7818608E-02  0.8603070E-01
          2   -1    0    0  501    0  0.00000000000E+00  0.00000000000E+00  0.13393392814E+04  0.13393392814E+04  0.00000000000E+00 0. -1.
         -1   -1    0    0    0  501 -0.00000000000E+00 -0.00000000000E+00 -0.75233110752E+03  0.75233110752E+03  0.00000000000E+00 0.  1.
         24    2    1    2    0    0 -0.18165486233E+03 -0.53248001485E+03  0.82568254770E+03  0.10023044132E+04  0.79555087408E+02 0.  0.
        254    2    1    2    0    0  0.18165486233E+03  0.53248001485E+03 -0.23867437378E+03  0.10893659758E+04  0.90178673600E+03 0.  0.
         23    2    4    4    0    0 -0.10909440239E+03  0.65753898632E+03 -0.32569703913E+03  0.74897242470E+03  0.10306320629E+03 0.  0.
         23    2    4    4    0    0  0.29074926472E+03 -0.12505897148E+03  0.87022665350E+02  0.34039355106E+03  0.90110732075E+02 0.  0.
          2    1    3    3  502    0 -0.18235668062E+03 -0.44781201303E+03  0.70569261057E+03  0.85544819749E+03  0.00000000000E+00 0. -1.
         -1    1    3    3    0  502  0.70181828914E+00 -0.84668001815E+02  0.11998993713E+03  0.14685621571E+03  0.00000000000E+00 0.  1.
         11    1    5    5    0    0 -0.79255762882E+02  0.25791744126E+03 -0.17084393874E+03  0.31935956829E+03  0.00000000000E+00 0.  1.
        -11    1    5    5    0    0 -0.29838639506E+02  0.39962154506E+03 -0.15485310039E+03  0.42961285640E+03  0.00000000000E+00 0. -1.
          4    1    6    6  503    0  0.29590198958E+03 -0.11607689939E+03  0.79652198976E+02  0.32768324158E+03  0.00000000000E+00 0. -1.
         -4    1    6    6    0  503 -0.51527248613E+01 -0.89820720868E+01  0.73704663740E+01  0.12710309479E+02  0.00000000000E+00 0.  1.
<mgrwt>
<rscale>  0 0.20076121E+04</rscale>
<asrwt>0</asrwt>
<pdfrwt beam="1">  1        2 0.20605220E+00 0.20076121E+04</pdfrwt>
<pdfrwt beam="2">  1       -1 0.11574325E+00 0.20076121E+04</pdfrwt>
<totfact> 0.11217747E+01</totfact>
</mgrwt>
</event>
<event>
12    6  0.1402540E-007  0.1292235E+04  0.7818608E-02  0.9035746E-01
          2   -1    0    0  501    0  0.00000000000E+00  0.00000000000E+00  0.10796944000E+04  0.10796944000E+04  0.00000000000E+00 0. -1.
         -1   -1    0    0    0  501 -0.00000000000E+00 -0.00000000000E+00 -0.38665374393E+03  0.38665374393E+03  0.00000000000E+00 0.  1.
         24    2    1    2    0    0  0.27262957540E+03 -0.10184029268E+03  0.28484623851E+02  0.30539874601E+03  0.88083424500E+02 0.  0.
        254    2    1    2    0    0 -0.27262957540E+03  0.10184029268E+03  0.66455603221E+03  0.11609493979E+04  0.90635007251E+03 0.  0.
         23    2    4    4    0    0  0.20927120003E+03  0.33894643998E+03  0.28584564973E+03  0.49743581840E+03  0.83997223907E+02 0.  0.
         23    2    4    4    0    0 -0.48190077543E+03 -0.23710614730E+03  0.37871038248E+03  0.66351357950E+03  0.91547987035E+02 0.  0.
          2    1    3    3  502    0  0.22200328910E+03 -0.10465277126E+03  0.49733774107E+02  0.25042186644E+03  0.00000000000E+00 0. -1.
         -1    1    3    3    0  502  0.50626286304E+02  0.28124785868E+01 -0.21249150256E+02  0.54976879571E+02  0.00000000000E+00 0.  1.
         11    1    5    5    0    0  0.20254222366E+02  0.89141132685E+02  0.42731632925E+02  0.10090771780E+03  0.00000000000E+00 0.  1.
        -11    1    5    5    0    0  0.18901697766E+03  0.24980530730E+03  0.24311401680E+03  0.39652810060E+03  0.00000000000E+00 0. -1.
          2    1    6    6  503    0 -0.44242976591E+03 -0.19071489698E+03  0.31647415116E+03  0.57643053185E+03  0.00000000000E+00 0. -1.
         -2    1    6    6    0  503 -0.39471009521E+02 -0.46391250321E+02  0.62236231324E+02  0.87083047652E+02  0.00000000000E+00 0.  1.
<mgrwt>
<rscale>  0 0.12922351E+04</rscale>
<asrwt>0</asrwt>
<pdfrwt beam="1">  1        2 0.16610683E+00 0.12922351E+04</pdfrwt>
<pdfrwt beam="2">  1       -1 0.59485192E-01 0.12922351E+04</pdfrwt>
<totfact> 0.71866340E+01</totfact>
</mgrwt>
</event>
<event>
12    6  0.1402540E-007  0.1913506E+04  0.7818608E-02  0.8648163E-01
         -1   -1    0    0    0  501 -0.00000000000E+00  0.00000000000E+00  0.89634811548E+03  0.89634811548E+03  0.00000000000E+00 0.  1.
          2   -1    0    0  501    0  0.00000000000E+00 -0.00000000000E+00 -0.10212288021E+04  0.10212288021E+04  0.00000000000E+00 0. -1.
         24    2    1    2    0    0 -0.38156995550E+03 -0.62900656452E+03  0.52004483016E+02  0.74145912407E+03  0.76238292682E+02 0.  0.
        254    2    1    2    0    0  0.38156995550E+03  0.62900656452E+03 -0.17688516966E+03  0.11761177935E+04  0.90039980669E+03 0.  0.
         23    2    4    4    0    0 -0.95266861674E+02  0.40322207371E+03  0.24866870809E+03  0.49204949423E+03  0.92804971473E+02 0.  0.
         23    2    4    4    0    0  0.47683681718E+03  0.22578449081E+03 -0.42555387775E+03  0.68406829931E+03  0.92202758896E+02 0.  0.
          4    1    3    3  502    0 -0.48766572688E+02 -0.12502100129E+03 -0.86121297529E+01  0.13447155147E+03  0.00000000000E+00 0. -1.
         -3    1    3    3    0  502 -0.33280338281E+03 -0.50398556322E+03  0.60616612769E+02  0.60698757260E+03  0.00000000000E+00 0.  1.
         11    1    5    5    0    0 -0.30518180038E+02  0.43337184160E+02  0.63499696008E+01  0.53383452096E+02  0.00000000000E+00 0. -1.
        -11    1    5    5    0    0 -0.64748681636E+02  0.35988488955E+03  0.24231873849E+03  0.43866604213E+03  0.00000000000E+00 0.  1.
          1    1    6    6  503    0  0.23339218065E+03  0.11953914272E+03 -0.15349625545E+03  0.30384637084E+03  0.00000000000E+00 0. -1.
         -1    1    6    6    0  503  0.24344463652E+03  0.10624534809E+03 -0.27205762230E+03  0.38022192847E+03  0.00000000000E+00 0.  1.
<mgrwt>
<rscale>  0 0.19135062E+04</rscale>
<asrwt>0</asrwt>
<pdfrwt beam="1">  1        2 0.15711212E+00 0.19135062E+04</pdfrwt>
<pdfrwt beam="2">  1       -1 0.13789971E+00 0.19135062E+04</pdfrwt>
<totfact> 0.11360736E+01</totfact>
</mgrwt>
</event>
<event>
12    6  0.1402540E-007  0.1654422E+04  0.7818608E-02  0.8787795E-01
         -1   -1    0    0    0  501 -0.00000000000E+00  0.00000000000E+00  0.39288895374E+03  0.39288895374E+03  0.00000000000E+00 0.  1.
          2   -1    0    0  501    0  0.00000000000E+00 -0.00000000000E+00 -0.17416582229E+04  0.17416582229E+04  0.00000000000E+00 0. -1.
         24    2    1    2    0    0  0.42896498704E+03  0.24548782951E+02 -0.97579111917E+03  0.10693594536E+04  0.82144567321E+02 0.  0.
        254    2    1    2    0    0 -0.42896498704E+03 -0.24548782951E+02 -0.37297814997E+03  0.10651877230E+04  0.90049907387E+03 0.  0.
         23    2    4    4    0    0  0.23095047899E+03  0.16118748979E+03 -0.46513469970E+02  0.30012067874E+03  0.92678952898E+02 0.  0.
         23    2    4    4    0    0 -0.65991546603E+03 -0.18573627274E+03 -0.32646468000E+03  0.76506704426E+03  0.93605606713E+02 0.  0.
          2    1    3    3  502    0  0.29400649728E+03 -0.20577127543E+02 -0.63577704303E+03  0.70076792668E+03  0.00000000000E+00 0. -1.
         -1    1    3    3    0  502  0.13495848976E+03  0.45125910495E+02 -0.34001407614E+03  0.36859152693E+03  0.00000000000E+00 0.  1.
         11    1    5    5    0    0  0.21151493341E+03  0.17342070375E+03 -0.43539856261E+02  0.27696394464E+03  0.00000000000E+00 0.  1.
        -11    1    5    5    0    0  0.19435545584E+02 -0.12233213965E+02 -0.29736137085E+01  0.23156734109E+02  0.00000000000E+00 0. -1.
          3    1    6    6  503    0 -0.61042237059E+02  0.93848227595E+01 -0.35684919867E+02  0.71327716277E+02  0.00000000000E+00 0. -1.
         -3    1    6    6    0  503 -0.59887322897E+03 -0.19512109550E+03 -0.29077976013E+03  0.69373932798E+03  0.00000000000E+00 0.  1.
<mgrwt>
<rscale>  0 0.16544223E+04</rscale>
<asrwt>0</asrwt>
<pdfrwt beam="1">  1        2 0.26794741E+00 0.16544223E+04</pdfrwt>
<pdfrwt beam="2">  1       -1 0.60444456E-01 0.16544223E+04</pdfrwt>
<totfact> 0.28070525E+01</totfact>
</mgrwt>
</event>
<event>
12    6  0.1402540E-007  0.2414278E+04  0.7818608E-02  0.8434177E-01
         -1   -1    0    0    0  501 -0.00000000000E+00  0.00000000000E+00  0.69482654266E+03  0.69482654266E+03  0.00000000000E+00 0.  1.
          2   -1    0    0  501    0  0.00000000000E+00 -0.00000000000E+00 -0.20971919193E+04  0.20971919193E+04  0.00000000000E+00 0. -1.
         24    2    1    2    0    0 -0.33101460238E+03  0.74432649636E+03 -0.13460874679E+04  0.15754535696E+04  0.80683819055E+02 0.  0.
        254    2    1    2    0    0  0.33101460238E+03 -0.74432649636E+03 -0.56277908767E+02  0.12165648924E+04  0.90181502213E+03 0.  0.
         23    2    4    4    0    0 -0.86957658648E+02 -0.16821574711E+02  0.28012751600E+03  0.30781658580E+03  0.91842394883E+02 0.  0.
         23    2    4    4    0    0  0.41797226102E+03 -0.72750492165E+03 -0.33640542477E+03  0.90874830656E+03  0.93223671112E+02 0.  0.
          2    1    3    3  502    0 -0.26119512804E+03  0.64577195790E+03 -0.11151682216E+04  0.13148553072E+04  0.00000000000E+00 0. -1.
         -1    1    3    3    0  502 -0.69819474332E+02  0.98554538465E+02 -0.23091924631E+03  0.26059826239E+03  0.00000000000E+00 0.  1.
         11    1    5    5    0    0 -0.89313825714E+02  0.13405566932E+02  0.24657664389E+03  0.26259609669E+03  0.00000000000E+00 0.  1.
        -11    1    5    5    0    0  0.23561670658E+01 -0.30227141643E+02  0.33550872114E+02  0.45220489104E+02  0.00000000000E+00 0. -1.
          3    1    6    6  503    0 -0.34664832183E+00  0.25014616963E+01 -0.24746858442E+01  0.35357524948E+01  0.00000000000E+00 0. -1.
         -3    1    6    6    0  503  0.41831890935E+03 -0.73000638335E+03 -0.33393073892E+03  0.90521255407E+03  0.00000000000E+00 0.  1.
<mgrwt>
<rscale>  0 0.24142780E+04</rscale>
<asrwt>0</asrwt>
<pdfrwt beam="1">  1        2 0.32264491E+00 0.24142780E+04</pdfrwt>
<pdfrwt beam="2">  1       -1 0.10689639E+00 0.24142780E+04</pdfrwt>
<totfact> 0.49200415E+00</totfact>
</mgrwt>
</event>
<event>
12    6  0.1402540E-007  0.2027851E+04  0.7818608E-02  0.8593709E-01
          2   -1    0    0  501    0  0.00000000000E+00  0.00000000000E+00  0.13521081854E+04  0.13521081854E+04  0.00000000000E+00 0. -1.
         -1   -1    0    0    0  501 -0.00000000000E+00 -0.00000000000E+00 -0.76032712351E+03  0.76032712351E+03  0.00000000000E+00 0.  1.
         24    2    1    2    0    0  0.44635825280E+03 -0.66382548655E+03  0.38038276111E+03  0.88992806934E+03  0.85912497365E+02 0.  0.
        254    2    1    2    0    0 -0.44635825280E+03  0.66382548655E+03  0.21139830079E+03  0.12225072396E+04  0.89996374528E+03 0.  0.
         23    2    4    4    0    0  0.20199305010E+03  0.41959643803E+03 -0.45465303012E+02  0.47674586898E+03  0.91417540525E+02 0.  0.
         23    2    4    4    0    0 -0.64835130290E+03  0.24422904853E+03  0.25686360380E+03  0.74576137061E+03  0.10086560773E+03 0.  0.
          4    1    3    3  502    0  0.23897027419E+03 -0.43032284909E+03  0.23493746204E+03  0.54541741581E+03  0.00000000000E+00 0. -1.
         -3    1    3    3    0  502  0.20738797861E+03 -0.23350263746E+03  0.14544529907E+03  0.34451065353E+03  0.00000000000E+00 0.  1.
         11    1    5    5    0    0  0.75366680484E+02  0.22555688159E+03 -0.57723461255E+02  0.24472033291E+03  0.00000000000E+00 0.  1.
        -11    1    5    5    0    0  0.12662636961E+03  0.19403955643E+03  0.12258158243E+02  0.23202553607E+03  0.00000000000E+00 0. -1.
          3    1    6    6  503    0 -0.25672546969E+03  0.55470829171E+02  0.65054869024E+02  0.27058661397E+03  0.00000000000E+00 0. -1.
         -3    1    6    6    0  503 -0.39162583320E+03  0.18875821935E+03  0.19180873478E+03  0.47517475663E+03  0.00000000000E+00 0.  1.
<mgrwt>
<rscale>  0 0.20278506E+04</rscale>
<asrwt>0</asrwt>
<pdfrwt beam="1">  1        2 0.20801664E+00 0.20278506E+04</pdfrwt>
<pdfrwt beam="2">  1       -1 0.11697340E+00 0.20278506E+04</pdfrwt>
<totfact> 0.10732741E+01</totfact>
</mgrwt>
</event>
<event>
12    6  0.1402540E-007  0.1036685E+04  0.7818608E-02  0.9269200E-01
         -1   -1    0    0    0  501 -0.00000000000E+00  0.00000000000E+00  0.29585169938E+03  0.29585169938E+03  0.00000000000E+00 0.  1.
          2   -1    0    0  501    0  0.00000000000E+00 -0.00000000000E+00 -0.90815373038E+03  0.90815373038E+03  0.00000000000E+00 0. -1.
         24    2    1    2    0    0 -0.84869525479E+02 -0.34645133001E+02 -0.13332505187E+03  0.18018811389E+03  0.79303627517E+02 0.  0.
        254    2    1    2    0    0  0.84869525479E+02  0.34645133001E+02 -0.47897697913E+03  0.10238173159E+04  0.90021099089E+03 0.  0.
         23    2    4    4    0    0 -0.20470508129E+03  0.63425762735E+02 -0.63859783605E+03  0.67985690161E+03  0.92039191563E+02 0.  0.
         23    2    4    4    0    0  0.28957460677E+03 -0.28780629734E+02  0.15962085692E+03  0.34396041425E+03  0.90267220365E+02 0.  0.
          4    1    3    3  502    0  0.36190525269E+01  0.77328984112E+01 -0.52160533600E+02  0.52854673629E+02  0.00000000000E+00 0. -1.
         -3    1    3    3    0  502 -0.88488578006E+02 -0.42378031412E+02 -0.81164518267E+02  0.12733344026E+03  0.00000000000E+00 0.  1.
         11    1    5    5    0    0 -0.20727088564E+02  0.36897407211E+02 -0.18235983733E+03  0.18720614609E+03  0.00000000000E+00 0.  1.
        -11    1    5    5    0    0 -0.18397799272E+03  0.26528355523E+02 -0.45623799871E+03  0.49265075553E+03  0.00000000000E+00 0. -1.
          2    1    6    6  503    0  0.83272975418E+02 -0.43051173476E+02  0.24354649123E+02  0.96855257506E+02  0.00000000000E+00 0.  1.
         -2    1    6    6    0  503  0.20630163135E+03  0.14270543743E+02  0.13526620779E+03  0.24710515674E+03  0.00000000000E+00 0. -1.
<mgrwt>
<rscale>  0 0.10366848E+04</rscale>
<asrwt>0</asrwt>
<pdfrwt beam="1">  1        2 0.13971596E+00 0.10366848E+04</pdfrwt>
<pdfrwt beam="2">  1       -1 0.45515646E-01 0.10366848E+04</pdfrwt>
<totfact> 0.15767278E+02</totfact>
</mgrwt>
</event>
<event>
12    6  0.1402540E-007  0.1323208E+04  0.7818608E-02  0.9011361E-01
          2   -1    0    0  501    0  0.00000000000E+00  0.00000000000E+00  0.13467073696E+04  0.13467073696E+04  0.00000000000E+00 0. -1.
         -1   -1    0    0    0  501 -0.00000000000E+00 -0.00000000000E+00 -0.32502962484E+03  0.32502962484E+03  0.00000000000E+00 0.  1.
         24    2    1    2    0    0 -0.16696421295E+03 -0.30561438837E+03  0.29273714375E+03  0.46202792150E+03  0.80607457067E+02 0.  0.
        254    2    1    2    0    0  0.16696421295E+03  0.30561438837E+03  0.72894060101E+03  0.12097090729E+04  0.90042458793E+03 0.  0.
         23    2    4    4    0    0 -0.87593049428E+01  0.58915764996E+03  0.32946765818E+03  0.68121276820E+03  0.91205459530E+02 0.  0.
         23    2    4    4    0    0  0.17572351789E+03 -0.28354326159E+03  0.39947294283E+03  0.52849630473E+03  0.91946593889E+02 0.  0.
          4    1    3    3  502    0 -0.15610253063E+03 -0.25399101472E+03  0.27706780908E+03  0.40699632241E+03  0.00000000000E+00 0. -1.
         -3    1    3    3    0  502 -0.10861682324E+02 -0.51623373646E+02  0.15669334663E+02  0.55031599089E+02  0.00000000000E+00 0.  1.
         11    1    5    5    0    0  0.14800799496E+02  0.98865458199E+02  0.23132864120E+02  0.10260882951E+03  0.00000000000E+00 0. -1.
        -11    1    5    5    0    0 -0.23560104439E+02  0.49029219176E+03  0.30633479406E+03  0.57860393869E+03  0.00000000000E+00 0.  1.
          4    1    6    6  503    0 -0.10177316342E+02 -0.11158947318E+02  0.97769118096E+01  0.17991327847E+02  0.00000000000E+00 0. -1.
         -4    1    6    6    0  503  0.18590083424E+03 -0.27238431427E+03  0.38969603102E+03  0.51050497688E+03  0.00000000000E+00 0.  1.
<mgrwt>
<rscale>  0 0.13232079E+04</rscale>
<asrwt>0</asrwt>
<pdfrwt beam="1">  1        2 0.20718575E+00 0.13232079E+04</pdfrwt>
<pdfrwt beam="2">  1       -1 0.50004558E-01 0.13232079E+04</pdfrwt>
<totfact> 0.69499621E+01</totfact>
</mgrwt>
</event>
<event>
12    6  0.1402540E-007  0.1907706E+04  0.7818608E-02  0.8651030E-01
         -1   -1    0    0    0  501 -0.00000000000E+00  0.00000000000E+00  0.57525782862E+03  0.57525782862E+03  0.00000000000E+00 0.  1.
          2   -1    0    0  501    0  0.00000000000E+00 -0.00000000000E+00 -0.15816140514E+04  0.15816140514E+04  0.00000000000E+00 0. -1.
         24    2    1    2    0    0  0.55479947299E+03 -0.48756224446E+03 -0.40287785765E+03  0.84530749417E+03  0.81943846930E+02 0.  0.
        254    2    1    2    0    0 -0.55479947299E+03  0.48756224446E+03 -0.60347836517E+03  0.13115643859E+04  0.90027529326E+03 0.  0.
         23    2    4    4    0    0  0.91017439997E+02 -0.17244612856E+03 -0.19038239710E+02  0.21489723845E+03  0.88297943832E+02 0.  0.
         23    2    4    4    0    0 -0.64581691299E+03  0.66000837302E+03 -0.58444012546E+03  0.10966671474E+04  0.91749847211E+02 0.  0.
          2    1    3    3  502    0  0.41526101418E+03 -0.36387045716E+03 -0.34051668507E+03  0.64868716058E+03  0.00000000000E+00 0. -1.
         -1    1    3    3    0  502  0.13953845881E+03 -0.12369178730E+03 -0.62361172586E+02  0.19662033358E+03  0.00000000000E+00 0.  1.
         11    1    5    5    0    0  0.50630648437E+01 -0.12452351585E+02 -0.30073848819E+02  0.32941342844E+02  0.00000000000E+00 0.  1.
        -11    1    5    5    0    0  0.85954375153E+02 -0.15999377697E+03  0.11035609109E+02  0.18195589561E+03  0.00000000000E+00 0. -1.
          2    1    6    6  503    0 -0.43374806125E+03  0.38653949488E+03 -0.34267528507E+03  0.67451946802E+03  0.00000000000E+00 0. -1.
         -2    1    6    6    0  503 -0.21206885174E+03  0.27346887814E+03 -0.24176484039E+03  0.42214767942E+03  0.00000000000E+00 0.  1.
<mgrwt>
<rscale>  0 0.19077063E+04</rscale>
<asrwt>0</asrwt>
<pdfrwt beam="1">  1        2 0.24332523E+00 0.19077063E+04</pdfrwt>
<pdfrwt beam="2">  1       -1 0.88501207E-01 0.19077063E+04</pdfrwt>
<totfact> 0.15263603E+01</totfact>
</mgrwt>
</event>
<event>
12    6  0.1402540E-007  0.1089136E+04  0.7818608E-02  0.9215846E-01
          2   -1    0    0  501    0  0.00000000000E+00  0.00000000000E+00  0.19719471766E+04  0.19719471766E+04  0.00000000000E+00 0. -1.
         -1   -1    0    0    0  501 -0.00000000000E+00 -0.00000000000E+00 -0.15038649976E+03  0.15038649976E+03  0.00000000000E+00 0.  1.
         24    2    1    2    0    0 -0.52209383449E+02 -0.14291693491E+03  0.35090071423E+03  0.39196843669E+03  0.85772222279E+02 0.  0.
        254    2    1    2    0    0  0.52209383449E+02  0.14291693491E+03  0.14706599626E+04  0.17303652397E+04  0.89898390810E+03 0.  0.
         23    2    4    4    0    0  0.42241481058E+03  0.26299634449E+03  0.91446035173E+03  0.10451194819E+04  0.91845779464E+02 0.  0.
         23    2    4    4    0    0 -0.37020542713E+03 -0.12007940958E+03  0.55619961089E+03  0.68524575775E+03  0.93448480362E+02 0.  0.
          2    1    3    3  502    0 -0.63049736182E+02 -0.11785609868E+03  0.33425793272E+03  0.35999124270E+03  0.00000000000E+00 0. -1.
         -1    1    3    3    0  502  0.10840352733E+02 -0.25060836228E+02  0.16642781506E+02  0.31977194000E+02  0.00000000000E+00 0.  1.
         11    1    5    5    0    0  0.40506416166E+03  0.24298329984E+03  0.89583955548E+03  0.10127420048E+04  0.00000000000E+00 0. -1.
        -11    1    5    5    0    0  0.17350648915E+02  0.20013044651E+02  0.18620796249E+02  0.32377477155E+02  0.00000000000E+00 0.  1.
          2    1    6    6  503    0 -0.36406217348E+03 -0.10864157783E+03  0.55447160656E+03  0.67214806484E+03  0.00000000000E+00 0. -1.
         -2    1    6    6    0  503 -0.61432536497E+01 -0.11437831754E+02  0.17280043339E+01  0.13097692912E+02  0.00000000000E+00 0.  1.
<mgrwt>
<rscale>  0 0.10891359E+04</rscale>
<asrwt>0</asrwt>
<pdfrwt beam="1">  1        2 0.30337647E+00 0.10891359E+04</pdfrwt>
<pdfrwt beam="2">  1       -1 0.23136386E-01 0.10891359E+04</pdfrwt>
<totfact> 0.12560360E+02</totfact>
</mgrwt>
</event>
<event>
12    6  0.1402540E-007  0.2069157E+04  0.7818608E-02  0.8574953E-01
         -1   -1    0    0    0  501 -0.00000000000E+00  0.00000000000E+00  0.24726610859E+03  0.24726610859E+03  0.00000000000E+00 0.  1.
          2   -1    0    0  501    0  0.00000000000E+00 -0.00000000000E+00 -0.43287461418E+04  0.43287461418E+04  0.00000000000E+00 0. -1.
         24    2    1    2    0    0  0.31138145873E+03  0.77162074087E+03 -0.16124768514E+04  0.18162334235E+04  0.79153469394E+02 0.  0.
        254    2    1    2    0    0 -0.31138145873E+03 -0.77162074087E+03 -0.24690031819E+04  0.27597788269E+04  0.90997004405E+03 0.  0.
         23    2    4    4    0    0  0.17994457921E+03 -0.37462316202E+03 -0.36930416448E+03  0.56520090103E+03  0.10170510076E+03 0.  0.
         23    2    4    4    0    0 -0.49132603794E+03 -0.39699757885E+03 -0.20996990174E+04  0.21945779259E+04  0.91803900488E+02 0.  0.
          4    1    3    3  502    0  0.21070387252E+03  0.60683552540E+03 -0.12617247071E+04  0.14158371069E+04  0.00000000000E+00 0. -1.
         -3    1    3    3    0  502  0.10067758621E+03  0.16478521548E+03 -0.35075214426E+03  0.40039631655E+03  0.00000000000E+00 0.  1.
         11    1    5    5    0    0  0.24791023770E+02 -0.14948820040E+03 -0.16396269797E+03  0.22326012462E+03  0.00000000000E+00 0.  1.
        -11    1    5    5    0    0  0.15515355544E+03 -0.22513496162E+03 -0.20534146651E+03  0.34194077642E+03  0.00000000000E+00 0. -1.
          4    1    6    6  503    0 -0.40043547463E+03 -0.34825227983E+03 -0.18445232756E+04  0.19193473719E+04  0.00000000000E+00 0.  1.
         -4    1    6    6    0  503 -0.90890563308E+02 -0.48745299023E+02 -0.25517574180E+03  0.27523055405E+03  0.00000000000E+00 0. -1.
<mgrwt>
<rscale>  0 0.20691566E+04</rscale>
<asrwt>0</asrwt>
<pdfrwt beam="1">  1        2 0.66596091E+00 0.20691566E+04</pdfrwt>
<pdfrwt beam="2">  1       -1 0.38040942E-01 0.20691566E+04</pdfrwt>
<totfact> 0.12699692E+00</totfact>
</mgrwt>
</event>
<event>
12    6  0.1402540E-007  0.1726922E+04  0.7818608E-02  0.8746157E-01
         -1   -1    0    0    0  501 -0.00000000000E+00  0.00000000000E+00  0.49729355482E+03  0.49729355482E+03  0.00000000000E+00 0.  1.
          2   -1    0    0  501    0  0.00000000000E+00 -0.00000000000E+00 -0.14992454808E+04  0.14992454808E+04  0.00000000000E+00 0. -1.
         24    2    1    2    0    0  0.31123254330E+03  0.48792860705E+03 -0.64304252605E+03  0.86883798287E+03  0.80222992839E+02 0.  0.
        254    2    1    2    0    0 -0.31123254330E+03 -0.48792860705E+03 -0.35890939994E+03  0.11277010528E+04  0.89886243966E+03 0.  0.
         23    2    4    4    0    0 -0.56284771619E+03 -0.20672826434E+03 -0.41611473657E+03  0.73578623062E+03  0.93251146294E+02 0.  0.
         23    2    4    4    0    0  0.25161517289E+03 -0.28120034271E+03  0.57205336629E+02  0.39191482213E+03  0.89112004246E+02 0.  0.
          2    1    3    3  502    0  0.28804010479E+03  0.45491401973E+03 -0.62409923283E+03  0.82426556384E+03  0.00000000000E+00 0. -1.
         -1    1    3    3    0  502  0.23192438509E+02  0.33014587323E+02 -0.18943293219E+02  0.44572419029E+02  0.00000000000E+00 0.  1.
         11    1    5    5    0    0 -0.33412061024E+03 -0.13221563967E+03 -0.30269119092E+03  0.46982923986E+03  0.00000000000E+00 0. -1.
        -11    1    5    5    0    0 -0.22872710594E+03 -0.74512624665E+02 -0.11342354565E+03  0.26595699076E+03  0.00000000000E+00 0.  1.
          3    1    6    6  503    0  0.14939290810E+03 -0.12434896109E+03  0.63804555849E+02  0.20457743390E+03  0.00000000000E+00 0. -1.
         -3    1    6    6    0  503  0.10222226478E+03 -0.15685138162E+03 -0.65992192205E+01  0.18733738823E+03  0.00000000000E+00 0.  1.
<mgrwt>
<rscale>  0 0.17269223E+04</rscale>
<asrwt>0</asrwt>
<pdfrwt beam="1">  1        2 0.23065315E+00 0.17269223E+04</pdfrwt>
<pdfrwt beam="2">  1       -1 0.76506702E-01 0.17269223E+04</pdfrwt>
<totfact> 0.23574439E+01</totfact>
</mgrwt>
</event>
<event>
12    6  0.1402540E-007  0.1979527E+04  0.7818608E-02  0.8616253E-01
          2   -1    0    0  501    0  0.00000000000E+00  0.00000000000E+00  0.16800434004E+04  0.16800434004E+04  0.00000000000E+00 0. -1.
         -1   -1    0    0    0  501 -0.00000000000E+00 -0.00000000000E+00 -0.58309911081E+03  0.58309911081E+03  0.00000000000E+00 0.  1.
         24    2    1    2    0    0 -0.17727776359E+03 -0.45373292590E+03  0.11372496027E+04  0.12398747805E+04  0.81558806952E+02 0.  0.
        254    2    1    2    0    0  0.17727776359E+03  0.45373292590E+03 -0.40305313016E+02  0.10232677308E+04  0.89897238951E+03 0.  0.
         23    2    4    4    0    0 -0.13653511572E+03  0.58884160446E+03 -0.18784686746E+03  0.63991289388E+03  0.93945692673E+02 0.  0.
         23    2    4    4    0    0  0.31381287931E+03 -0.13510867856E+03  0.14754155445E+03  0.38335483690E+03  0.91975770948E+02 0.  0.
          2    1    3    3  502    0 -0.11672741411E+03 -0.38238456735E+03  0.89819165969E+03  0.98315385575E+03  0.00000000000E+00 0. -1.
         -1    1    3    3    0  502 -0.60550349477E+02 -0.71348358549E+02  0.23905794297E+03  0.25672092471E+03  0.00000000000E+00 0.  1.
         11    1    5    5    0    0 -0.16136610498E+02  0.27584151782E+03 -0.80800206737E+02  0.28788471054E+03  0.00000000000E+00 0. -1.
        -11    1    5    5    0    0 -0.12039850522E+03  0.31300008664E+03 -0.10704666073E+03  0.35202818335E+03  0.00000000000E+00 0.  1.
          3    1    6    6  503    0  0.12182063588E+03 -0.91772812487E+02  0.34476364696E+02  0.15636859071E+03  0.00000000000E+00 0. -1.
         -3    1    6    6    0  503  0.19199224343E+03 -0.43335866077E+02  0.11306518975E+03  0.22698624619E+03  0.00000000000E+00 0.  1.
<mgrwt>
<rscale>  0 0.19795270E+04</rscale>
<asrwt>0</asrwt>
<pdfrwt beam="1">  1        2 0.25846821E+00 0.19795270E+04</pdfrwt>
<pdfrwt beam="2">  1       -1 0.89707557E-01 0.19795270E+04</pdfrwt>
<totfact> 0.12974499E+01</totfact>
</mgrwt>
</event>
<event>
12    6  0.1402540E-007  0.2862301E+04  0.7818608E-02  0.8284183E-01
          2   -1    0    0  501    0  0.00000000000E+00  0.00000000000E+00  0.32653562440E+04  0.32653562440E+04  0.00000000000E+00 0. -1.
         -1   -1    0    0    0  501 -0.00000000000E+00 -0.00000000000E+00 -0.62724917360E+03  0.62724917360E+03  0.00000000000E+00 0.  1.
         24    2    1    2    0    0  0.59329200398E+03 -0.60327509870E+03  0.25101894901E+04  0.26501074960E+04  0.77988573483E+02 0.  0.
        254    2    1    2    0    0 -0.59329200398E+03  0.60327509870E+03  0.12791758030E+03  0.12424979216E+04  0.90083401969E+03 0.  0.
         23    2    4    4    0    0 -0.68592014742E+03  0.15603578263E+03 -0.11207014993E+03  0.71807873617E+03  0.90795036994E+02 0.  0.
         23    2    4    4    0    0  0.92628143439E+02  0.44723931608E+03  0.23998773023E+03  0.52441918539E+03  0.93906296606E+02 0.  0.
          4    1    3    3  502    0  0.33800287676E+03 -0.37682684473E+03  0.14033355149E+04  0.14918428144E+04  0.00000000000E+00 0. -1.
         -3    1    3    3    0  502  0.25528912722E+03 -0.22644825397E+03  0.11068539752E+04  0.11582646816E+04  0.00000000000E+00 0.  1.
         11    1    5    5    0    0 -0.53521812335E+03  0.11489136918E+03 -0.12442468633E+03  0.56137328832E+03  0.00000000000E+00 0.  1.
        -11    1    5    5    0    0 -0.15070202407E+03  0.41144413443E+02  0.12354536398E+02  0.15670544785E+03  0.00000000000E+00 0. -1.
          4    1    6    6  503    0  0.43823896822E+02  0.21923912350E+03  0.64809649045E+02  0.23278019206E+03  0.00000000000E+00 0. -1.
         -4    1    6    6    0  503  0.48804246617E+02  0.22800019257E+03  0.17517808118E+03  0.29163899333E+03  0.00000000000E+00 0.  1.
<mgrwt>
<rscale>  0 0.28623012E+04</rscale>
<asrwt>0</asrwt>
<pdfrwt beam="1">  1        2 0.50236249E+00 0.28623012E+04</pdfrwt>
<pdfrwt beam="2">  1       -1 0.96499875E-01 0.28623012E+04</pdfrwt>
<totfact> 0.11937492E+00</totfact>
</mgrwt>
</event>
<event>
12    6  0.1402540E-007  0.2294877E+04  0.7818608E-02  0.8479944E-01
         -1   -1    0    0    0  501 -0.00000000000E+00  0.00000000000E+00  0.86371483421E+03  0.86371483421E+03  0.00000000000E+00 0.  1.
          2   -1    0    0  501    0  0.00000000000E+00 -0.00000000000E+00 -0.15243627077E+04  0.15243627077E+04  0.00000000000E+00 0. -1.
         24    2    1    2    0    0  0.94812801234E+03  0.17399561082E+03 -0.38827549109E+03  0.10419624370E+04  0.75542456691E+02 0.  0.
        254    2    1    2    0    0 -0.94812801234E+03 -0.17399561082E+03 -0.27237238237E+03  0.13461151049E+04  0.89923187254E+03 0.  0.
         23    2    4    4    0    0 -0.58753609377E+03 -0.51858673144E+03 -0.28840447125E+03  0.83973893073E+03  0.88619824147E+02 0.  0.
         23    2    4    4    0    0 -0.36059191856E+03  0.34459112062E+03  0.16032088879E+02  0.50637617417E+03  0.85966445513E+02 0.  0.
          4    1    3    3  502    0  0.46126204652E+03  0.52319387501E+02 -0.20850077042E+03  0.50889347130E+03  0.00000000000E+00 0. -1.
         -3    1    3    3    0  502  0.48686596582E+03  0.12167622332E+03 -0.17977472067E+03  0.53306896569E+03  0.00000000000E+00 0.  1.
         11    1    5    5    0    0 -0.92418863900E+02 -0.43798039699E+02 -0.28422782026E+02  0.10614786491E+03  0.00000000000E+00 0. -1.
        -11    1    5    5    0    0 -0.49511722987E+03 -0.47478869174E+03 -0.25998168922E+03  0.73359106582E+03  0.00000000000E+00 0.  1.
          4    1    6    6  503    0 -0.18277667075E+02 -0.23969346882E+01  0.36814926766E+01  0.18798186028E+02  0.00000000000E+00 0. -1.
         -4    1    6    6    0  503 -0.34231425149E+03  0.34698805531E+03  0.12350596203E+02  0.48757798814E+03  0.00000000000E+00 0.  1.
<mgrwt>
<rscale>  0 0.22948766E+04</rscale>
<asrwt>0</asrwt>
<pdfrwt beam="1">  1        2 0.23451734E+00 0.22948766E+04</pdfrwt>
<pdfrwt beam="2">  1       -1 0.13287921E+00 0.22948766E+04</pdfrwt>
<totfact> 0.60950837E+00</totfact>
</mgrwt>
</event>
<event>
12    6  0.1402540E-007  0.1316344E+04  0.7818608E-02  0.9016703E-01
         -1   -1    0    0    0  501 -0.00000000000E+00  0.00000000000E+00  0.82863297060E+03  0.82863297060E+03  0.00000000000E+00 0.  1.
          2   -1    0    0  501    0  0.00000000000E+00 -0.00000000000E+00 -0.52277754431E+03  0.52277754431E+03  0.00000000000E+00 0. -1.
         24    2    1    2    0    0  0.27479825430E+03 -0.86244509939E+02 -0.10880362720E+03  0.31963443272E+03  0.85882158960E+02 0.  0.
        254    2    1    2    0    0 -0.27479825430E+03  0.86244509939E+02  0.41465905350E+03  0.10317760822E+04  0.89981529054E+03 0.  0.
         23    2    4    4    0    0 -0.19499034333E+03 -0.32743698177E+02  0.68190190157E+03  0.71558045594E+03  0.89284947218E+02 0.  0.
         23    2    4    4    0    0 -0.79807910970E+02  0.11898820812E+03 -0.26724284808E+03  0.31619562625E+03  0.89629447667E+02 0.  0.
          4    1    3    3  502    0  0.20094683379E+03 -0.10058836342E+03 -0.90146376263E+02  0.24212397242E+03  0.00000000000E+00 0. -1.
         -1    1    3    3    0  502  0.73851420510E+02  0.14343853480E+02 -0.18657250942E+02  0.77510460305E+02  0.00000000000E+00 0.  1.
         11    1    5    5    0    0 -0.17686835032E+02 -0.23639498540E+02  0.19698980877E+03  0.19918994649E+03  0.00000000000E+00 0.  1.
        -11    1    5    5    0    0 -0.17730350830E+03 -0.91041996363E+01  0.48491209280E+03  0.51639050945E+03  0.00000000000E+00 0. -1.
          1    1    6    6  503    0 -0.92191015318E+02  0.98716879422E+02 -0.25698796343E+03  0.29032226738E+03  0.00000000000E+00 0. -1.
         -1    1    6    6    0  503  0.12383104348E+02  0.20271328694E+02 -0.10254884647E+02  0.25873358874E+02  0.00000000000E+00 0.  1.
<mgrwt>
<rscale>  0 0.13163445E+04</rscale>
<asrwt>0</asrwt>
<pdfrwt beam="1">  1        2 0.80427314E-01 0.13163445E+04</pdfrwt>
<pdfrwt beam="2">  1       -1 0.12748200E+00 0.13163445E+04</pdfrwt>
<totfact> 0.34871708E+01</totfact>
</mgrwt>
</event>
<event>
12    6  0.1402540E-007  0.2654850E+04  0.7818608E-02  0.8349805E-01
          2   -1    0    0  501    0  0.00000000000E+00  0.00000000000E+00  0.83792497402E+03  0.83792497402E+03  0.00000000000E+00 0. -1.
         -1   -1    0    0    0  501 -0.00000000000E+00 -0.00000000000E+00 -0.21028812927E+04  0.21028812927E+04  0.00000000000E+00 0.  1.
         24    2    1    2    0    0 -0.95090608493E+03 -0.51160973425E+03 -0.46505243748E+02  0.10837452716E+04  0.79838421730E+02 0.  0.
        254    2    1    2    0    0  0.95090608493E+03  0.51160973425E+03 -0.12184510749E+04  0.18570609951E+04  0.89335637620E+03 0.  0.
         23    2    4    4    0    0  0.15832529363E+03  0.18871499793E+03 -0.90287393185E+03  0.94031740891E+03  0.91297555494E+02 0.  0.
         23    2    4    4    0    0  0.79258079130E+03  0.32289473632E+03 -0.31557714308E+03  0.91674358616E+03  0.91567177838E+02 0.  0.
          2    1    3    3  502    0 -0.72447275037E+03 -0.35089057284E+03 -0.40947632557E+02  0.80601592338E+03  0.00000000000E+00 0. -1.
         -1    1    3    3    0  502 -0.22643333456E+03 -0.16071916141E+03 -0.55576111906E+01  0.27772934826E+03  0.00000000000E+00 0.  1.
         11    1    5    5    0    0  0.60376323964E+02  0.98803059550E+02 -0.57439398037E+03  0.58594862382E+03  0.00000000000E+00 0. -1.
        -11    1    5    5    0    0  0.97948969665E+02  0.89911938379E+02 -0.32847995148E+03  0.35436878509E+03  0.00000000000E+00 0.  1.
          4    1    6    6  503    0  0.78566216770E+03  0.32109719887E+03 -0.32136254025E+03  0.90754742860E+03  0.00000000000E+00 0. -1.
         -4    1    6    6    0  503  0.69186235929E+01  0.17975374482E+01  0.57853971787E+01  0.91961575570E+01  0.00000000000E+00 0.  1.
<mgrwt>
<rscale>  0 0.26548497E+04</rscale>
<asrwt>0</asrwt>
<pdfrwt beam="1">  1        2 0.12891153E+00 0.26548497E+04</pdfrwt>
<pdfrwt beam="2">  1       -1 0.32352020E+00 0.26548497E+04</pdfrwt>
<totfact> 0.75434517E-01</totfact>
</mgrwt>
</event>
<event>
12    6  0.1402540E-007  0.1606232E+04  0.7818608E-02  0.8816728E-01
          2   -1    0    0  501    0  0.00000000000E+00  0.00000000000E+00  0.22180264405E+04  0.22180264405E+04  0.00000000000E+00 0. -1.
         -1   -1    0    0    0  501 -0.00000000000E+00 -0.00000000000E+00 -0.29079701821E+03  0.29079701821E+03  0.00000000000E+00 0.  1.
         24    2    1    2    0    0 -0.11324112608E+03  0.29211683999E+03  0.13636681254E+04  0.14014596252E+04  0.79639964686E+02 0.  0.
        254    2    1    2    0    0  0.11324112608E+03 -0.29211683999E+03  0.56356129688E+03  0.11073638335E+04  0.90027635955E+03 0.  0.
         23    2    4    4    0    0  0.74269522619E+02  0.22926708911E+03  0.51275970689E+03  0.57393338281E+03  0.91638696845E+02 0.  0.
         23    2    4    4    0    0  0.38971603456E+02 -0.52138392910E+03  0.50801589993E+02  0.53343045069E+03  0.92775302627E+02 0.  0.
          2    1    3    3  502    0 -0.68047695127E+02  0.25581871197E+03  0.11494425081E+04  0.11795303225E+04  0.00000000000E+00 0. -1.
         -1    1    3    3    0  502 -0.45193430948E+02  0.36298128029E+02  0.21422561729E+03  0.22192930271E+03  0.00000000000E+00 0.  1.
         11    1    5    5    0    0 -0.18177702961E+02  0.70807870507E+02  0.12145841193E+03  0.14176152242E+03  0.00000000000E+00 0.  1.
        -11    1    5    5    0    0  0.92447225580E+02  0.15845921860E+03  0.39130129497E+03  0.43217186040E+03  0.00000000000E+00 0. -1.
          2    1    6    6  503    0 -0.23195240691E+02 -0.17474834834E+03 -0.76478861623E+01  0.17644686056E+03  0.00000000000E+00 0. -1.
         -2    1    6    6    0  503  0.62166844147E+02 -0.34663558076E+03  0.58449476156E+02  0.35698359013E+03  0.00000000000E+00 0.  1.
<mgrwt>
<rscale>  0 0.16062322E+04</rscale>
<asrwt>0</asrwt>
<pdfrwt beam="1">  1        2 0.34123483E+00 0.16062322E+04</pdfrwt>
<pdfrwt beam="2">  1       -1 0.44738004E-01 0.16062322E+04</pdfrwt>
<totfact> 0.27286399E+01</totfact>
</mgrwt>
</event>
<event>
12    6  0.1402540E-007  0.2466656E+04  0.7818608E-02  0.8414962E-01
          2   -1    0    0  501    0  0.00000000000E+00  0.00000000000E+00  0.12487690232E+04  0.12487690232E+04  0.00000000000E+00 0. -1.
         -1   -1    0    0    0  501 -0.00000000000E+00 -0.00000000000E+00 -0.12180775574E+04  0.12180775574E+04  0.00000000000E+00 0.  1.
         24    2    1    2    0    0 -0.59338591973E+03 -0.32423102345E+03 -0.81266718929E+03  0.10602459817E+04  0.80380189437E+02 0.  0.
        254    2    1    2    0    0  0.59338591973E+03  0.32423102345E+03  0.84335865504E+03  0.14066005989E+04  0.90002156510E+03 0.  0.
         23    2    4    4    0    0 -0.10696208167E+03  0.43681832741E+02 -0.11249653686E+03  0.18541346195E+03  0.91507877472E+02 0.  0.
         23    2    4    4    0    0  0.70034800140E+03  0.28054919071E+03  0.95585519190E+03  0.12211871370E+04  0.91889630657E+02 0.  0.
          4    1    3    3  502    0 -0.14384481645E+03 -0.57024154613E+02 -0.23121093785E+03  0.27821140022E+03  0.00000000000E+00 0. -1.
         -3    1    3    3    0  502 -0.44954110328E+03 -0.26720686884E+03 -0.58145625144E+03  0.78203458148E+03  0.00000000000E+00 0.  1.
         11    1    5    5    0    0 -0.48041459010E+01  0.34637479178E+01 -0.65865885804E+02  0.66131628440E+02  0.00000000000E+00 0.  1.
        -11    1    5    5    0    0 -0.10215793577E+03  0.40218084823E+02 -0.46630651060E+02  0.11928183351E+03  0.00000000000E+00 0. -1.
          1    1    6    6  503    0  0.68106017579E+03  0.26898538961E+03  0.89544745043E+03  0.11567291124E+04  0.00000000000E+00 0. -1.
         -1    1    6    6    0  503  0.19287825607E+02  0.11563801096E+02  0.60407741469E+02  0.64458024650E+02  0.00000000000E+00 0.  1.
<mgrwt>
<rscale>  0 0.24666556E+04</rscale>
<asrwt>0</asrwt>
<pdfrwt beam="1">  1        2 0.19211831E+00 0.24666556E+04</pdfrwt>
<pdfrwt beam="2">  1       -1 0.18739655E+00 0.24666556E+04</pdfrwt>
<totfact> 0.33284448E+00</totfact>
</mgrwt>
</event>
<event>
12    6  0.1402540E-007  0.1475016E+04  0.7818608E-02  0.8901239E-01
         -1   -1    0    0    0  501 -0.00000000000E+00  0.00000000000E+00  0.44348089998E+03  0.44348089998E+03  0.00000000000E+00 0.  1.
          2   -1    0    0  501    0  0.00000000000E+00 -0.00000000000E+00 -0.12264747691E+04  0.12264747691E+04  0.00000000000E+00 0. -1.
         24    2    1    2    0    0  0.33301075797E+03 -0.15691188688E+03  0.62359563458E+02  0.38202437631E+03  0.80848028852E+02 0.  0.
        254    2    1    2    0    0 -0.33301075797E+03  0.15691188688E+03 -0.84535343257E+03  0.12879312928E+04  0.89923694528E+03 0.  0.
         23    2    4    4    0    0  0.13615886577E+03 -0.27851530177E+03 -0.23275975737E+03  0.39801738520E+03  0.90170528579E+02 0.  0.
         23    2    4    4    0    0 -0.46916962373E+03  0.43542718866E+03 -0.61259367520E+03  0.88991390756E+03  0.83419299439E+02 0.  0.
          4    1    3    3  502    0  0.25480469299E+03 -0.11533969797E+03  0.11584897490E+02  0.27993371956E+03  0.00000000000E+00 0. -1.
         -3    1    3    3    0  502  0.78206064982E+02 -0.41572188911E+02  0.50774665969E+02  0.10209065675E+03  0.00000000000E+00 0.  1.
         11    1    5    5    0    0  0.18472546178E+02 -0.13931670256E+03 -0.97988589722E+02  0.17132466924E+03  0.00000000000E+00 0. -1.
        -11    1    5    5    0    0  0.11768631959E+03 -0.13919859921E+03 -0.13477116765E+03  0.22669271596E+03  0.00000000000E+00 0.  1.
          3    1    6    6  503    0 -0.34810918232E+03  0.36231766921E+03 -0.50338958858E+03  0.71123496408E+03  0.00000000000E+00 0. -1.
         -3    1    6    6    0  503 -0.12106044142E+03  0.73109519443E+02 -0.10920408662E+03  0.17867894348E+03  0.00000000000E+00 0.  1.
<mgrwt>
<rscale>  0 0.14750161E+04</rscale>
<asrwt>0</asrwt>
<pdfrwt beam="1">  1        2 0.18868842E+00 0.14750161E+04</pdfrwt>
<pdfrwt beam="2">  1       -1 0.68227832E-01 0.14750161E+04</pdfrwt>
<totfact> 0.43838547E+01</totfact>
</mgrwt>
</event>
<event>
12    6  0.1402540E-007  0.1260844E+04  0.7818608E-02  0.9061206E-01
          2   -1    0    0  501    0  0.00000000000E+00  0.00000000000E+00  0.13313492530E+04  0.13313492530E+04  0.00000000000E+00 0. -1.
         -1   -1    0    0    0  501 -0.00000000000E+00 -0.00000000000E+00 -0.29851793878E+03  0.29851793878E+03  0.00000000000E+00 0.  1.
         24    2    1    2    0    0 -0.25128816604E+03 -0.70103208397E+02  0.61634155496E+02  0.27988987045E+03  0.80494523010E+02 0.  0.
        254    2    1    2    0    0  0.25128816604E+03  0.70103208397E+02  0.97119715876E+03  0.13499773214E+04  0.90064124091E+03 0.  0.
         23    2    4    4    0    0 -0.70721606155E+02  0.38946398718E+03  0.20411403854E+03  0.45432175999E+03  0.89788518079E+02 0.  0.
         23    2    4    4    0    0  0.32200977220E+03 -0.31936077878E+03  0.76708312021E+03  0.89565556139E+03  0.90004282716E+02 0.  0.
          2    1    3    3  502    0 -0.18986831488E+03 -0.30014827123E+02  0.73095961332E+02  0.20565477482E+03  0.00000000000E+00 0. -1.
         -1    1    3    3    0  502 -0.61419851162E+02 -0.40088381274E+02 -0.11461805835E+02  0.74235095629E+02  0.00000000000E+00 0.  1.
         11    1    5    5    0    0 -0.82308051174E+02  0.38410106185E+03  0.19447893450E+03  0.43832670118E+03  0.00000000000E+00 0. -1.
        -11    1    5    5    0    0  0.11586445019E+02  0.53629253284E+01  0.96351040424E+01  0.15995058805E+02  0.00000000000E+00 0.  1.
          3    1    6    6  503    0  0.25286146322E+03 -0.20754530702E+03  0.49283602680E+03  0.59152457545E+03  0.00000000000E+00 0. -1.
         -3    1    6    6    0  503  0.69148308973E+02 -0.11181547176E+03  0.27424709342E+03  0.30413098594E+03  0.00000000000E+00 0.  1.
<mgrwt>
<rscale>  0 0.12608436E+04</rscale>
<asrwt>0</asrwt>
<pdfrwt beam="1">  1        2 0.20482296E+00 0.12608436E+04</pdfrwt>
<pdfrwt beam="2">  1       -1 0.45925837E-01 0.12608436E+04</pdfrwt>
<totfact> 0.83669941E+01</totfact>
</mgrwt>
</event>
<event>
12    6  0.1402540E-007  0.2615200E+04  0.7818608E-02  0.8363056E-01
          2   -1    0    0  501    0  0.00000000000E+00  0.00000000000E+00  0.21782463632E+04  0.21782463632E+04  0.00000000000E+00 0. -1.
         -1   -1    0    0    0  501 -0.00000000000E+00 -0.00000000000E+00 -0.78495159032E+03  0.78495159032E+03  0.00000000000E+00 0.  1.
         24    2    1    2    0    0 -0.41594462831E+03 -0.10660711559E+04  0.75542250353E+03  0.13735764208E+04  0.80816964778E+02 0.  0.
        254    2    1    2    0    0  0.41594462831E+03  0.10660711559E+04  0.63787226931E+03  0.15896215327E+04  0.90027659191E+03 0.  0.
         23    2    4    4    0    0 -0.13651126220E+03  0.66735048617E+03  0.58074475295E+03  0.89984282117E+03  0.91981729870E+02 0.  0.
         23    2    4    4    0    0  0.55245589051E+03  0.39872066970E+03  0.57127516363E+02  0.68977871149E+03  0.91353348569E+02 0.  0.
          2    1    3    3  502    0 -0.20501139277E+03 -0.48291817695E+03  0.39085626557E+03  0.65422340002E+03  0.00000000000E+00 0. -1.
         -1    1    3    3    0  502 -0.21093323554E+03 -0.58315297892E+03  0.36456623796E+03  0.71935302080E+03  0.00000000000E+00 0.  1.
         11    1    5    5    0    0 -0.41126085521E+02  0.61159268143E+02  0.62799829499E+02  0.96827834713E+02  0.00000000000E+00 0. -1.
        -11    1    5    5    0    0 -0.95385176681E+02  0.60619121802E+03  0.51794492345E+03  0.80301498645E+03  0.00000000000E+00 0.  1.
          4    1    6    6  503    0  0.13213996312E+03  0.14104525796E+03  0.33854985921E+02  0.19621644864E+03  0.00000000000E+00 0. -1.
         -4    1    6    6    0  503  0.42031592740E+03  0.25767541174E+03  0.23272530442E+02  0.49356226285E+03  0.00000000000E+00 0.  1.
<mgrwt>
<rscale>  0 0.26152001E+04</rscale>
<asrwt>0</asrwt>
<pdfrwt beam="1">  1        2 0.33511482E+00 0.26152001E+04</pdfrwt>
<pdfrwt beam="2">  1       -1 0.12076178E+00 0.26152001E+04</pdfrwt>
<totfact> 0.32529598E+00</totfact>
</mgrwt>
</event>
<event>
12    6  0.1402540E-007  0.2537863E+04  0.7818608E-02  0.8389620E-01
         -1   -1    0    0    0  501 -0.00000000000E+00  0.00000000000E+00  0.52227748112E+03  0.52227748112E+03  0.00000000000E+00 0.  1.
          2   -1    0    0  501    0  0.00000000000E+00 -0.00000000000E+00 -0.30830097879E+04  0.30830097879E+04  0.00000000000E+00 0. -1.
         24    2    1    2    0    0  0.35793928599E+03 -0.10136394203E+04 -0.74117615132E+03  0.13078245784E+04  0.74011037876E+02 0.  0.
        254    2    1    2    0    0 -0.35793928599E+03  0.10136394203E+04 -0.18195561555E+04  0.22974626906E+04  0.90109089731E+03 0.  0.
         23    2    4    4    0    0 -0.21101679006E+03  0.69256396358E+03 -0.40060962094E+03  0.83242196821E+03  0.90913890199E+02 0.  0.
         23    2    4    4    0    0 -0.14692249592E+03  0.32107545671E+03 -0.14189465345E+04  0.14650407224E+04  0.90881141407E+02 0.  0.
          2    1    3    3  502    0  0.84403830513E+02 -0.34040365994E+03 -0.25088299184E+03  0.43120868950E+03  0.00000000000E+00 0. -1.
         -1    1    3    3    0  502  0.27353545547E+03 -0.67323576035E+03 -0.49029315948E+03  0.87661588889E+03  0.00000000000E+00 0.  1.
         11    1    5    5    0    0 -0.10042807710E+03  0.21852705410E+03 -0.10105247989E+03  0.26086677775E+03  0.00000000000E+00 0. -1.
        -11    1    5    5    0    0 -0.11058871297E+03  0.47403690948E+03 -0.29955714106E+03  0.57155519046E+03  0.00000000000E+00 0.  1.
          2    1    6    6  503    0 -0.79929044475E+02  0.23321560614E+03 -0.83081015329E+03  0.86661622528E+03  0.00000000000E+00 0. -1.
         -2    1    6    6    0  503 -0.66993451449E+02  0.87859850569E+02 -0.58813638123E+03  0.59842449716E+03  0.00000000000E+00 0.  1.
<mgrwt>
<rscale>  0 0.25378626E+04</rscale>
<asrwt>0</asrwt>
<pdfrwt beam="1">  1        2 0.47430920E+00 0.25378626E+04</pdfrwt>
<pdfrwt beam="2">  1       -1 0.80350381E-01 0.25378626E+04</pdfrwt>
<totfact> 0.24111917E+00</totfact>
</mgrwt>
</event>
<event>
12    6  0.1402540E-007  0.1317397E+04  0.7818608E-02  0.9015882E-01
         -1   -1    0    0    0  501 -0.00000000000E+00  0.00000000000E+00  0.95352217996E+03  0.95352217996E+03  0.00000000000E+00 0.  1.
          2   -1    0    0  501    0  0.00000000000E+00 -0.00000000000E+00 -0.45503274065E+03  0.45503274065E+03  0.00000000000E+00 0. -1.
         24    2    1    2    0    0 -0.16329227695E+03 -0.14535824163E+03 -0.14818320846E+03  0.27647925041E+03  0.81787080384E+02 0.  0.
        254    2    1    2    0    0  0.16329227695E+03  0.14535824163E+03  0.64667264777E+03  0.11320756702E+04  0.90311484518E+03 0.  0.
         23    2    4    4    0    0  0.48489393137E+03  0.16098031088E+03  0.16269472282E+03  0.54360900079E+03  0.89467243929E+02 0.  0.
         23    2    4    4    0    0 -0.32160165442E+03 -0.15622069248E+02  0.48397792495E+03  0.58846666941E+03  0.91579015041E+02 0.  0.
          4    1    3    3  502    0 -0.14149930120E+03 -0.81133832288E+02 -0.85654499874E+02  0.18423203937E+03  0.00000000000E+00 0. -1.
         -3    1    3    3    0  502 -0.21792975747E+02 -0.64224409343E+02 -0.62528708585E+02  0.92247211040E+02  0.00000000000E+00 0.  1.
         11    1    5    5    0    0  0.38963832016E+03  0.15339107652E+03  0.10400360977E+03  0.43146679333E+03  0.00000000000E+00 0. -1.
        -11    1    5    5    0    0  0.95255611210E+02  0.75892343565E+01  0.58691113046E+02  0.11214220747E+03  0.00000000000E+00 0.  1.
          1    1    6    6  503    0 -0.70263865366E+02 -0.59846391440E+01  0.18366725686E+03  0.19673964503E+03  0.00000000000E+00 0. -1.
         -1    1    6    6    0  503 -0.25133778906E+03 -0.96374301044E+01  0.30031066808E+03  0.39172702438E+03  0.00000000000E+00 0.  1.
<mgrwt>
<rscale>  0 0.13173971E+04</rscale>
<asrwt>0</asrwt>
<pdfrwt beam="1">  1        2 0.70005037E-01 0.13173971E+04</pdfrwt>
<pdfrwt beam="2">  1       -1 0.14669572E+00 0.13173971E+04</pdfrwt>
<totfact> 0.28487171E+01</totfact>
</mgrwt>
</event>
<event>
12    6  0.1402540E-007  0.1465721E+04  0.7818608E-02  0.8907574E-01
          2   -1    0    0  501    0  0.00000000000E+00  0.00000000000E+00  0.31221211233E+03  0.31221211233E+03  0.00000000000E+00 0. -1.
         -3   -1    0    0    0  501 -0.00000000000E+00 -0.00000000000E+00 -0.17202541956E+04  0.17202541956E+04  0.00000000000E+00 0.  1.
         24    2    1    2    0    0  0.23960177059E+03  0.27302135937E+03 -0.68944079748E+02  0.37820905550E+03  0.79618668584E+02 0.  0.
        254    2    1    2    0    0 -0.23960177059E+03 -0.27302135937E+03 -0.13390980035E+04  0.16542572524E+04  0.90079627167E+03 0.  0.
         23    2    4    4    0    0 -0.55416191485E+03 -0.99943736670E+02 -0.10035737430E+04  0.11544201766E+04  0.91877679623E+02 0.  0.
         23    2    4    4    0    0  0.31456014426E+03 -0.17307762270E+03 -0.33552426051E+03  0.49983707588E+03  0.91414578651E+02 0.  0.
          2    1    3    3  502    0  0.26849761121E+02  0.79505817793E+02 -0.22555160068E+02  0.86895454317E+02  0.00000000000E+00 0. -1.
         -1    1    3    3    0  502  0.21275200947E+03  0.19351554158E+03 -0.46388919680E+02  0.29131360118E+03  0.00000000000E+00 0.  1.
         11    1    5    5    0    0 -0.45122276208E+03 -0.60772304697E+02 -0.86401015517E+03  0.97663135434E+03  0.00000000000E+00 0. -1.
        -11    1    5    5    0    0 -0.10293915277E+03 -0.39171431973E+02 -0.13956358784E+03  0.17778882222E+03  0.00000000000E+00 0.  1.
          2    1    6    6  503    0  0.27390091132E+03 -0.17999456807E+03 -0.28275773434E+03  0.43286451701E+03  0.00000000000E+00 0. -1.
         -2    1    6    6    0  503  0.40659232948E+02  0.69169453723E+01 -0.52766526169E+02  0.66972558867E+02  0.00000000000E+00 0.  1.
<mgrwt>
<rscale>  0 0.14657206E+04</rscale>
<asrwt>0</asrwt>
<pdfrwt beam="1">  1        2 0.48032632E-01 0.14657206E+04</pdfrwt>
<pdfrwt beam="2">  1       -3 0.26465450E+00 0.14657206E+04</pdfrwt>
<totfact> 0.38159719E+00</totfact>
</mgrwt>
</event>
<event>
12    6  0.1402540E-007  0.1692903E+04  0.7818608E-02  0.8765422E-01
         -1   -1    0    0    0  501 -0.00000000000E+00  0.00000000000E+00  0.39371225912E+03  0.39371225912E+03  0.00000000000E+00 0.  1.
          2   -1    0    0  501    0  0.00000000000E+00 -0.00000000000E+00 -0.18198067685E+04  0.18198067685E+04  0.00000000000E+00 0. -1.
         24    2    1    2    0    0 -0.66010092290E+02  0.42464785661E+03 -0.10667878290E+04  0.11528351513E+04  0.79432233688E+02 0.  0.
        254    2    1    2    0    0  0.66010092290E+02 -0.42464785661E+03 -0.35930668043E+03  0.10606838763E+04  0.90070298124E+03 0.  0.
         23    2    4    4    0    0  0.34379227876E+03 -0.10177249637E+03 -0.48258947260E+03  0.60811216741E+03  0.91416831772E+02 0.  0.
         23    2    4    4    0    0 -0.27778218647E+03 -0.32287536025E+03  0.12328279216E+03  0.45257170889E+03  0.90614918550E+02 0.  0.
          4    1    3    3  502    0 -0.45928415727E+02  0.35345614764E+03 -0.94922789317E+03  0.10139399691E+04  0.00000000000E+00 0. -1.
         -3    1    3    3    0  502 -0.20081676563E+02  0.71191708975E+02 -0.11755993578E+03  0.13889518228E+03  0.00000000000E+00 0.  1.
         11    1    5    5    0    0 -0.58038697554E+01 -0.13926803529E+01 -0.49675593513E+01  0.77653788453E+01  0.00000000000E+00 0. -1.
        -11    1    5    5    0    0  0.34959614852E+03 -0.10037981601E+03 -0.47762191325E+03  0.60034678856E+03  0.00000000000E+00 0.  1.
          1    1    6    6  503    0 -0.39198430498E+02 -0.82077516881E+01  0.17869603465E+02  0.43854382555E+02  0.00000000000E+00 0. -1.
         -1    1    6    6    0  503 -0.23858375597E+03 -0.31466760856E+03  0.10541318870E+03  0.40871732633E+03  0.00000000000E+00 0.  1.
<mgrwt>
<rscale>  0 0.16929031E+04</rscale>
<asrwt>0</asrwt>
<pdfrwt beam="1">  1        2 0.27997027E+00 0.16929031E+04</pdfrwt>
<pdfrwt beam="2">  1       -1 0.60571117E-01 0.16929031E+04</pdfrwt>
<totfact> 0.25218073E+01</totfact>
</mgrwt>
</event>
<event>
12    6  0.1402540E-007  0.1485249E+04  0.7818608E-02  0.8894322E-01
         -1   -1    0    0    0  501 -0.00000000000E+00  0.00000000000E+00  0.75186506424E+03  0.75186506424E+03  0.00000000000E+00 0.  1.
          2   -1    0    0  501    0  0.00000000000E+00 -0.00000000000E+00 -0.73349747112E+03  0.73349747112E+03  0.00000000000E+00 0. -1.
         24    2    1    2    0    0  0.36600982000E+03 -0.27359909091E+03  0.91803756375E+02  0.47321255037E+03  0.81746787484E+02 0.  0.
        254    2    1    2    0    0 -0.36600982000E+03  0.27359909091E+03 -0.73436163263E+02  0.10121499850E+04  0.90013058561E+03 0.  0.
         23    2    4    4    0    0  0.30012013417E+01  0.19312520237E+03 -0.43259841024E+03  0.48283487971E+03  0.93176099492E+02 0.  0.
         23    2    4    4    0    0 -0.36901102134E+03  0.80473888541E+02  0.35916224698E+03  0.52931510528E+03  0.92367637256E+02 0.  0.
          4    1    3    3  502    0  0.24121530802E+02 -0.38201991351E+02  0.28251819489E+02  0.53286074127E+02  0.00000000000E+00 0. -1.
         -3    1    3    3    0  502  0.34188828920E+03 -0.23539709956E+03  0.63551936885E+02  0.41992647625E+03  0.00000000000E+00 0.  1.
         11    1    5    5    0    0 -0.87702986007E+01  0.17222296358E+03 -0.28356909419E+03  0.33188717737E+03  0.00000000000E+00 0.  1.
        -11    1    5    5    0    0  0.11771499942E+02  0.20902238786E+02 -0.14902931606E+03  0.15094770234E+03  0.00000000000E+00 0. -1.
          2    1    6    6  503    0 -0.37068769463E+02  0.39112616359E+02  0.58600796948E+02  0.79611204179E+02  0.00000000000E+00 0. -1.
         -2    1    6    6    0  503 -0.33194225188E+03  0.41361272182E+02  0.30056145003E+03  0.44970390110E+03  0.00000000000E+00 0.  1.
<mgrwt>
<rscale>  0 0.14852490E+04</rscale>
<asrwt>0</asrwt>
<pdfrwt beam="1">  1        2 0.11284577E+00 0.14852490E+04</pdfrwt>
<pdfrwt beam="2">  1       -1 0.11567155E+00 0.14852490E+04</pdfrwt>
<totfact> 0.28866419E+01</totfact>
</mgrwt>
</event>
<event>
12    6  0.1402540E-007  0.2692083E+04  0.7818608E-02  0.8337578E-01
          2   -1    0    0  501    0  0.00000000000E+00  0.00000000000E+00  0.26473357509E+04  0.26473357509E+04  0.00000000000E+00 0. -1.
         -3   -1    0    0    0  501 -0.00000000000E+00 -0.00000000000E+00 -0.68439643488E+03  0.68439643488E+03  0.00000000000E+00 0.  1.
         24    2    1    2    0    0  0.53300992887E+03 -0.98047250161E+03  0.34599659886E+03  0.11711036064E+04  0.79649857094E+02 0.  0.
        254    2    1    2    0    0 -0.53300992887E+03  0.98047250161E+03  0.16169427172E+04  0.21606285795E+04  0.89910299573E+03 0.  0.
         23    2    4    4    0    0  0.13453017227E+03  0.36908621977E+03  0.14163238059E+03  0.42762460566E+03  0.92087280668E+02 0.  0.
         23    2    4    4    0    0 -0.66754010114E+03  0.61138628185E+03  0.14753103366E+04  0.17330039738E+04  0.85785847401E+02 0.  0.
          2    1    3    3  502    0  0.38670587535E+03 -0.67398987334E+03  0.27401680941E+03  0.82394720415E+03  0.00000000000E+00 0. -1.
         -1    1    3    3    0  502  0.14630405352E+03 -0.30648262828E+03  0.71979789456E+02  0.34715640222E+03  0.00000000000E+00 0.  1.
         11    1    5    5    0    0  0.10817510173E+03  0.35174069456E+03  0.14574011249E+03  0.39580746485E+03  0.00000000000E+00 0.  1.
        -11    1    5    5    0    0  0.26355070539E+02  0.17345525209E+02 -0.41077318994E+01  0.31817140809E+02  0.00000000000E+00 0. -1.
          3    1    6    6  503    0 -0.52367580905E+03  0.51882956672E+03  0.12286276685E+04  0.14328106714E+04  0.00000000000E+00 0. -1.
         -3    1    6    6    0  503 -0.14386429209E+03  0.92556715124E+02  0.24668266814E+03  0.30019330242E+03  0.00000000000E+00 0.  1.
<mgrwt>
<rscale>  0 0.26920826E+04</rscale>
<asrwt>0</asrwt>
<pdfrwt beam="1">  1        2 0.40728242E+00 0.26920826E+04</pdfrwt>
<pdfrwt beam="2">  1       -3 0.10529176E+00 0.26920826E+04</pdfrwt>
<totfact> 0.12383852E+00</totfact>
</mgrwt>
</event>
<event>
12    6  0.1402540E-007  0.3412615E+04  0.7818608E-02  0.8134817E-01
          2   -1    0    0  501    0  0.00000000000E+00  0.00000000000E+00  0.10571713011E+04  0.10571713011E+04  0.00000000000E+00 0. -1.
         -1   -1    0    0    0  501 -0.00000000000E+00 -0.00000000000E+00 -0.27540332095E+04  0.27540332095E+04  0.00000000000E+00 0.  1.
         24    2    1    2    0    0  0.75372539302E+03  0.13860544505E+04 -0.96946024545E+03  0.18534451734E+04  0.78466140484E+02 0.  0.
        254    2    1    2    0    0 -0.75372539302E+03 -0.13860544505E+04 -0.72740166286E+03  0.19577593372E+04  0.90247411903E+03 0.  0.
         23    2    4    4    0    0 -0.41411014047E+03 -0.10301211577E+04 -0.89603016289E+03  0.14298843911E+04  0.95197222839E+02 0.  0.
         23    2    4    4    0    0 -0.33961525256E+03 -0.35593329284E+03  0.16862850003E+03  0.52787494612E+03  0.90495077197E+02 0.  0.
          2    1    3    3  502    0  0.46374967277E+03  0.79501110832E+03 -0.53329069765E+03  0.10637224213E+04  0.00000000000E+00 0. -1.
         -1    1    3    3    0  502  0.28997572025E+03  0.59104334221E+03 -0.43616954780E+03  0.78972275207E+03  0.00000000000E+00 0.  1.
         11    1    5    5    0    0 -0.29032931561E+03 -0.65412580837E+03 -0.62486117762E+03  0.95006482725E+03  0.00000000000E+00 0. -1.
        -11    1    5    5    0    0 -0.12378082485E+03 -0.37599534932E+03 -0.27116898526E+03  0.47981956388E+03  0.00000000000E+00 0.  1.
          3    1    6    6  503    0 -0.82619690561E+02 -0.14521753858E+03  0.70622924263E+02  0.18138837948E+03  0.00000000000E+00 0. -1.
         -3    1    6    6    0  503 -0.25699556199E+03 -0.21071575426E+03  0.98005575762E+02  0.34648656664E+03  0.00000000000E+00 0.  1.
<mgrwt>
<rscale>  0 0.34126148E+04</rscale>
<asrwt>0</asrwt>
<pdfrwt beam="1">  1        2 0.16264174E+00 0.34126148E+04</pdfrwt>
<pdfrwt beam="2">  1       -1 0.42369740E+00 0.34126148E+04</pdfrwt>
<totfact> 0.10729762E-01</totfact>
</mgrwt>
</event>
<event>
12    6  0.1402540E-007  0.6476141E+04  0.7818608E-02  0.7634015E-01
          2   -1    0    0  501    0  0.00000000000E+00  0.00000000000E+00  0.20026050026E+04  0.20026050026E+04  0.00000000000E+00 0. -1.
         -1   -1    0    0    0  501 -0.00000000000E+00 -0.00000000000E+00 -0.52357308304E+04  0.52357308304E+04  0.00000000000E+00 0.  1.
         24    2    1    2    0    0 -0.17121560609E+04 -0.14791830212E+04  0.90545132320E+03  0.24383548668E+04  0.79193248672E+02 0.  0.
        254    2    1    2    0    0  0.17121560609E+04  0.14791830212E+04 -0.41385771510E+04  0.47999809663E+04  0.89024471606E+03 0.  0.
         23    2    4    4    0    0  0.99194128978E+03  0.28952933642E+03 -0.17258049493E+04  0.20136101925E+04  0.91915858948E+02 0.  0.
         23    2    4    4    0    0  0.72021477112E+03  0.11896536848E+04 -0.24127722017E+04  0.27863707738E+04  0.91690705406E+02 0.  0.
          4    1    3    3  502    0 -0.59795227643E+03 -0.54639918168E+03  0.35706344752E+03  0.88520805249E+03  0.00000000000E+00 0. -1.
         -3    1    3    3    0  502 -0.11142037845E+04 -0.93278383955E+03  0.54838787568E+03  0.15531468143E+04  0.00000000000E+00 0.  1.
         11    1    5    5    0    0  0.26856087218E+03  0.99791423241E+02 -0.41108147163E+03  0.50107010141E+03  0.00000000000E+00 0.  1.
        -11    1    5    5    0    0  0.72338041760E+03  0.18973791318E+03 -0.13147234777E+04  0.15125400910E+04  0.00000000000E+00 0. -1.
          4    1    6    6  503    0  0.82585059856E+02  0.11230490523E+03 -0.19586766595E+03  0.24040970533E+03  0.00000000000E+00 0. -1.
         -4    1    6    6    0  503  0.63762971126E+03  0.10773487796E+04 -0.22169045357E+04  0.25459610685E+04  0.00000000000E+00 0.  1.
<mgrwt>
<rscale>  0 0.64761411E+04</rscale>
<asrwt>0</asrwt>
<pdfrwt beam="1">  1        2 0.30809308E+00 0.64761411E+04</pdfrwt>
<pdfrwt beam="2">  1       -1 0.80549704E+00 0.64761411E+04</pdfrwt>
<totfact> 0.32110329E-04</totfact>
</mgrwt>
</event>
<event>
12    6  0.1402540E-007  0.2734637E+04  0.7818608E-02  0.8323853E-01
         -1   -1    0    0    0  501 -0.00000000000E+00  0.00000000000E+00  0.12879601195E+04  0.12879601195E+04  0.00000000000E+00 0.  1.
          2   -1    0    0  501    0  0.00000000000E+00 -0.00000000000E+00 -0.14515670542E+04  0.14515670542E+04  0.00000000000E+00 0. -1.
         24    2    1    2    0    0 -0.66312430183E+02 -0.11731576825E+04 -0.39257256427E+03  0.12414085741E+04  0.79282679668E+02 0.  0.
        254    2    1    2    0    0  0.66312430183E+02  0.11731576825E+04  0.22896562950E+03  0.14981185996E+04  0.90068740005E+03 0.  0.
         23    2    4    4    0    0  0.10903615448E+03  0.11520265990E+04  0.45732849677E+03  0.12476134541E+04  0.91300652542E+02 0.  0.
         23    2    4    4    0    0 -0.42723724293E+02  0.21131083477E+02 -0.22836286727E+03  0.25050514548E+03  0.91276445240E+02 0.  0.
          2    1    3    3  502    0 -0.63441933336E+02 -0.54610215024E+03 -0.20714866613E+03  0.58750575085E+03  0.00000000000E+00 0. -1.
         -3    1    3    3    0  502 -0.28704968472E+01 -0.62705553222E+03 -0.18542389813E+03  0.65390282324E+03  0.00000000000E+00 0.  1.
         11    1    5    5    0    0  0.12204234036E+03  0.88231841349E+03  0.35477466852E+03  0.95877274734E+03  0.00000000000E+00 0.  1.
        -11    1    5    5    0    0 -0.13006185884E+02  0.26970818550E+03  0.10255382825E+03  0.28884070676E+03  0.00000000000E+00 0. -1.
          2    1    6    6  503    0  0.14284235173E+02 -0.79526981318E+01 -0.14239902725E+03  0.14333446111E+03  0.00000000000E+00 0. -1.
         -2    1    6    6    0  503 -0.57007959466E+02  0.29083781609E+02 -0.85963840029E+02  0.10717068437E+03  0.00000000000E+00 0.  1.
<mgrwt>
<rscale>  0 0.27346374E+04</rscale>
<asrwt>0</asrwt>
<pdfrwt beam="1">  1        2 0.22331801E+00 0.27346374E+04</pdfrwt>
<pdfrwt beam="2">  1       -1 0.19814771E+00 0.27346374E+04</pdfrwt>
<totfact> 0.20885209E+00</totfact>
</mgrwt>
</event>
<event>
12    6  0.1402540E-007  0.1517127E+04  0.7818608E-02  0.8873143E-01
          2   -1    0    0  501    0  0.00000000000E+00  0.00000000000E+00  0.13238219250E+04  0.13238219250E+04  0.00000000000E+00 0. -1.
         -1   -1    0    0    0  501 -0.00000000000E+00 -0.00000000000E+00 -0.43466460474E+03  0.43466460474E+03  0.00000000000E+00 0.  1.
         24    2    1    2    0    0  0.12284437889E+03 -0.32065627003E+03  0.69083814820E+03  0.77571822019E+03  0.81056925554E+02 0.  0.
        254    2    1    2    0    0 -0.12284437889E+03  0.32065627003E+03  0.19831917206E+03  0.98276830955E+03  0.89921736600E+03 0.  0.
         23    2    4    4    0    0 -0.37641536578E+03  0.20053955501E+03  0.42615898296E+03  0.60994708401E+03  0.92300194050E+02 0.  0.
         23    2    4    4    0    0  0.25357098689E+03  0.12011671503E+03 -0.22783981090E+03  0.37282122554E+03  0.91424373989E+02 0.  0.
          4    1    3    3  502    0  0.38338729854E+02 -0.19068644468E+03  0.43621742721E+03  0.47761576837E+03  0.00000000000E+00 0. -1.
         -3    1    3    3    0  502  0.84505649039E+02 -0.12996982535E+03  0.25462072099E+03  0.29810245182E+03  0.00000000000E+00 0.  1.
         11    1    5    5    0    0 -0.15378061728E+03  0.99973140614E+02  0.12407731544E+03  0.22144590152E+03  0.00000000000E+00 0. -1.
        -11    1    5    5    0    0 -0.22263474850E+03  0.10056641439E+03  0.30208166752E+03  0.38850118249E+03  0.00000000000E+00 0.  1.
          4    1    6    6  503    0  0.16307844089E+03  0.12103553363E+03 -0.17461099682E+03  0.26783050329E+03  0.00000000000E+00 0.  1.
         -4    1    6    6    0  503  0.90492546005E+02 -0.91881859694E+00 -0.53228814081E+02  0.10499072225E+03  0.00000000000E+00 0. -1.
<mgrwt>
<rscale>  0 0.15171269E+04</rscale>
<asrwt>0</asrwt>
<pdfrwt beam="1">  1        2 0.20366491E+00 0.15171269E+04</pdfrwt>
<pdfrwt beam="2">  1       -1 0.66871478E-01 0.15171269E+04</pdfrwt>
<totfact> 0.39900726E+01</totfact>
</mgrwt>
</event>
<event>
12    6  0.1402540E-007  0.1597725E+04  0.7818608E-02  0.8821947E-01
         -1   -1    0    0    0  501 -0.00000000000E+00  0.00000000000E+00  0.39957350911E+03  0.39957350911E+03  0.00000000000E+00 0.  1.
          2   -1    0    0  501    0  0.00000000000E+00 -0.00000000000E+00 -0.15971569640E+04  0.15971569640E+04  0.00000000000E+00 0. -1.
         24    2    1    2    0    0 -0.20145423031E+03 -0.49227331885E+03 -0.52772707598E+03  0.75360667314E+03  0.80686577084E+02 0.  0.
        254    2    1    2    0    0  0.20145423031E+03  0.49227331885E+03 -0.66985637894E+03  0.12431238000E+04  0.90207116480E+03 0.  0.
         23    2    4    4    0    0 -0.25886132176E+03  0.90419767512E+02 -0.53743264365E+03  0.61114737620E+03  0.97377362477E+02 0.  0.
         23    2    4    4    0    0  0.46031555207E+03  0.40185355133E+03 -0.13242373529E+03  0.63197642379E+03  0.92094898694E+02 0.  0.
          2    1    3    3  502    0 -0.15007105016E+03 -0.43867064083E+03 -0.44976582279E+03  0.64594314500E+03  0.00000000000E+00 0. -1.
         -1    1    3    3    0  502 -0.51383180148E+02 -0.53602678017E+02 -0.77961253189E+02  0.10766352814E+03  0.00000000000E+00 0.  1.
         11    1    5    5    0    0 -0.21710205176E+03  0.86342789437E+02 -0.51012826392E+03  0.56108753668E+03  0.00000000000E+00 0.  1.
        -11    1    5    5    0    0 -0.41759269997E+02  0.40769780749E+01 -0.27304379728E+02  0.50059839525E+02  0.00000000000E+00 0. -1.
          2    1    6    6  503    0  0.69730975932E+02  0.28095760852E+02 -0.33904917233E+02  0.82470141232E+02  0.00000000000E+00 0. -1.
         -2    1    6    6    0  503  0.39058457614E+03  0.37375779048E+03 -0.98518818056E+02  0.54950628256E+03  0.00000000000E+00 0.  1.
<mgrwt>
<rscale>  0 0.15977254E+04</rscale>
<asrwt>0</asrwt>
<pdfrwt beam="1">  1        2 0.24571645E+00 0.15977254E+04</pdfrwt>
<pdfrwt beam="2">  1       -1 0.61472848E-01 0.15977254E+04</pdfrwt>
<totfact> 0.32825849E+01</totfact>
</mgrwt>
</event>
<event>
12    6  0.1402540E-007  0.2513336E+04  0.7818608E-02  0.8398250E-01
         -1   -1    0    0    0  501 -0.00000000000E+00  0.00000000000E+00  0.20042914305E+04  0.20042914305E+04  0.00000000000E+00 0.  1.
          2   -1    0    0  501    0  0.00000000000E+00 -0.00000000000E+00 -0.78791667630E+03  0.78791667630E+03  0.00000000000E+00 0. -1.
         24    2    1    2    0    0  0.30367113584E+01 -0.36467230358E+03 -0.61536369481E+03  0.71960286263E+03  0.78490078420E+02 0.  0.
        254    2    1    2    0    0 -0.30367113584E+01  0.36467230358E+03  0.18317384491E+04  0.20726052442E+04  0.89857200157E+03 0.  0.
         23    2    4    4    0    0 -0.27865738649E+03  0.50786573163E+03  0.14837217283E+04  0.15953671114E+04  0.90490402397E+02 0.  0.
         23    2    4    4    0    0  0.27562067513E+03 -0.14319342805E+03  0.34801672078E+03  0.47723813277E+03  0.10084385471E+03 0.  0.
          4    1    3    3  502    0  0.24295922878E+02 -0.26744362042E+03 -0.39307532870E+03  0.47605104349E+03  0.00000000000E+00 0. -1.
         -3    1    3    3    0  502 -0.21259211520E+02 -0.97228683154E+02 -0.22228836610E+03  0.24355181914E+03  0.00000000000E+00 0.  1.
         11    1    5    5    0    0 -0.84369109765E+01  0.66438785927E+02  0.13376650563E+03  0.14959536012E+03  0.00000000000E+00 0. -1.
        -11    1    5    5    0    0 -0.27022047551E+03  0.44142694570E+03  0.13499552226E+04  0.14457717513E+04  0.00000000000E+00 0.  1.
          1    1    6    6  503    0  0.55137988842E+02 -0.69980456199E+02  0.13681058329E+03  0.16326235868E+03  0.00000000000E+00 0. -1.
         -1    1    6    6    0  503  0.22048268629E+03 -0.73212971852E+02  0.21120613749E+03  0.31397577409E+03  0.00000000000E+00 0.  1.
<mgrwt>
<rscale>  0 0.25133361E+04</rscale>
<asrwt>0</asrwt>
<pdfrwt beam="1">  1        2 0.12121795E+00 0.25133361E+04</pdfrwt>
<pdfrwt beam="2">  1       -1 0.30835253E+00 0.25133361E+04</pdfrwt>
<totfact> 0.10411741E+00</totfact>
</mgrwt>
</event>
<event>
12    6  0.1402540E-007  0.1896848E+04  0.7818608E-02  0.8656427E-01
         -1   -1    0    0    0  501 -0.00000000000E+00  0.00000000000E+00  0.39700190011E+03  0.39700190011E+03  0.00000000000E+00 0.  1.
          2   -1    0    0  501    0  0.00000000000E+00 -0.00000000000E+00 -0.22657516158E+04  0.22657516158E+04  0.00000000000E+00 0. -1.
         24    2    1    2    0    0  0.61350866701E+03  0.23986267437E+03 -0.27833034421E+03  0.71946323749E+03  0.78946706914E+02 0.  0.
        254    2    1    2    0    0 -0.61350866701E+03 -0.23986267437E+03 -0.15904193715E+04  0.19432902784E+04  0.90167418836E+03 0.  0.
         23    2    4    4    0    0 -0.69698195434E+03 -0.33008445712E+03 -0.16112868521E+04  0.17886991895E+04  0.91977591296E+02 0.  0.
         23    2    4    4    0    0  0.83473287327E+02  0.90221782748E+02  0.20867480588E+02  0.15459108893E+03  0.91406746207E+02 0.  0.
          2    1    3    3  502    0  0.44170115128E+02  0.15227451355E+01 -0.33528813137E+02  0.55475211884E+02  0.00000000000E+00 0. -1.
         -1    1    3    3    0  502  0.56933855188E+03  0.23833992924E+03 -0.24480153107E+03  0.66398802560E+03  0.00000000000E+00 0.  1.
         11    1    5    5    0    0 -0.31408766029E+03 -0.10098787392E+03 -0.71798446498E+03  0.79015903525E+03  0.00000000000E+00 0.  1.
        -11    1    5    5    0    0 -0.38289429405E+03 -0.22909658320E+03 -0.89330238709E+03  0.99854015424E+03  0.00000000000E+00 0. -1.
          1    1    6    6  503    0  0.24422394021E+02  0.89369686260E+02  0.22678266273E+01  0.92674361015E+02  0.00000000000E+00 0. -1.
         -1    1    6    6    0  503  0.59050893306E+02  0.85209648793E+00  0.18599653961E+02  0.61916727919E+02  0.00000000000E+00 0.  1.
<mgrwt>
<rscale>  0 0.18968476E+04</rscale>
<asrwt>0</asrwt>
<pdfrwt beam="1">  1        2 0.34857717E+00 0.18968476E+04</pdfrwt>
<pdfrwt beam="2">  1       -1 0.61077216E-01 0.18968476E+04</pdfrwt>
<totfact> 0.13751075E+01</totfact>
</mgrwt>
</event>
<event>
12    6  0.1402540E-007  0.1754548E+04  0.7818608E-02  0.8730851E-01
          2   -1    0    0  501    0  0.00000000000E+00  0.00000000000E+00  0.27389660904E+04  0.27389660904E+04  0.00000000000E+00 0. -1.
         -1   -1    0    0    0  501 -0.00000000000E+00 -0.00000000000E+00 -0.28098540200E+03  0.28098540200E+03  0.00000000000E+00 0.  1.
         24    2    1    2    0    0 -0.35710199129E+03 -0.13901582093E+03  0.17972690752E+04  0.18393538905E+04  0.78736111999E+02 0.  0.
        254    2    1    2    0    0  0.35710199129E+03  0.13901582093E+03  0.66071161325E+03  0.11805976019E+04  0.90023531985E+03 0.  0.
         23    2    4    4    0    0  0.27330128108E+03  0.46201946285E+03  0.15190910984E+03  0.56527715604E+03  0.91138966375E+02 0.  0.
         23    2    4    4    0    0  0.83800710212E+02 -0.32300364192E+03  0.50880250341E+03  0.61532044587E+03  0.91571567143E+02 0.  0.
          2    1    3    3  502    0 -0.33939430909E+02  0.34257806821E+01  0.24845397378E+03  0.25078476436E+03  0.00000000000E+00 0. -1.
         -1    1    3    3    0  502 -0.32316256039E+03 -0.14244160161E+03  0.15488151014E+04  0.15885691262E+04  0.00000000000E+00 0.  1.
         11    1    5    5    0    0  0.18831636843E+03  0.34016242516E+03  0.68182222688E+02  0.39474339209E+03  0.00000000000E+00 0.  1.
        -11    1    5    5    0    0  0.84984912655E+02  0.12185703768E+03  0.83726887150E+02  0.17053376394E+03  0.00000000000E+00 0. -1.
          4    1    6    6  503    0  0.89424692264E+02 -0.26157087833E+03  0.45995667259E+03  0.53663417767E+03  0.00000000000E+00 0.  1.
         -4    1    6    6    0  503 -0.56239820524E+01 -0.61432763586E+02  0.48845830816E+02  0.78686268206E+02  0.00000000000E+00 0. -1.
<mgrwt>
<rscale>  0 0.17545478E+04</rscale>
<asrwt>0</asrwt>
<pdfrwt beam="1">  1        2 0.42137938E+00 0.17545478E+04</pdfrwt>
<pdfrwt beam="2">  1       -1 0.43228525E-01 0.17545478E+04</pdfrwt>
<totfact> 0.14367326E+01</totfact>
</mgrwt>
</event>
<event>
12    6  0.1402540E-007  0.2086505E+04  0.7818608E-02  0.8567212E-01
         -1   -1    0    0    0  501 -0.00000000000E+00  0.00000000000E+00  0.13994546443E+04  0.13994546443E+04  0.00000000000E+00 0.  1.
          2   -1    0    0  501    0  0.00000000000E+00 -0.00000000000E+00 -0.77771389971E+03  0.77771389971E+03  0.00000000000E+00 0. -1.
         24    2    1    2    0    0 -0.81511687035E+03 -0.20286207404E+03  0.37816260590E+03  0.92457014575E+03  0.79085172443E+02 0.  0.
        254    2    1    2    0    0  0.81511687035E+03  0.20286207404E+03  0.24357813871E+03  0.12525983983E+04  0.89671840860E+03 0.  0.
         23    2    4    4    0    0 -0.15598132387E+03  0.12905145924E+03  0.15314167988E+03  0.26985943329E+03  0.91582133046E+02 0.  0.
         23    2    4    4    0    0  0.97109819422E+03  0.73810614803E+02  0.90436458834E+02  0.98273896500E+03  0.95485132678E+02 0.  0.
          2    1    3    3  502    0 -0.52553102151E+03 -0.11405335815E+03  0.20390952055E+03  0.57512617367E+03  0.00000000000E+00 0. -1.
         -1    1    3    3    0  502 -0.28958584884E+03 -0.88808715887E+02  0.17425308536E+03  0.34944397208E+03  0.00000000000E+00 0.  1.
         11    1    5    5    0    0  0.82610298445E+01  0.20540446163E+02  0.31192763015E+01  0.22358095342E+02  0.00000000000E+00 0.  1.
        -11    1    5    5    0    0 -0.16424235371E+03  0.10851101307E+03  0.15002240358E+03  0.24750133795E+03  0.00000000000E+00 0. -1.
          4    1    6    6  503    0  0.35066388362E+03  0.27143597408E+02  0.78855236299E+02  0.36044428481E+03  0.00000000000E+00 0. -1.
         -4    1    6    6    0  503  0.62043431060E+03  0.46667017396E+02  0.11581222535E+02  0.62229468019E+03  0.00000000000E+00 0.  1.
<mgrwt>
<rscale>  0 0.20865046E+04</rscale>
<asrwt>0</asrwt>
<pdfrwt beam="1">  1        2 0.11964829E+00 0.20865046E+04</pdfrwt>
<pdfrwt beam="2">  1       -1 0.21530071E+00 0.20865046E+04</pdfrwt>
<totfact> 0.44557314E+00</totfact>
</mgrwt>
</event>
<event>
12    6  0.1402540E-007  0.1809704E+04  0.7818608E-02  0.8701156E-01
         -1   -1    0    0    0  501 -0.00000000000E+00  0.00000000000E+00  0.44328238303E+03  0.44328238303E+03  0.00000000000E+00 0.  1.
          2   -1    0    0  501    0  0.00000000000E+00 -0.00000000000E+00 -0.18470324924E+04  0.18470324924E+04  0.00000000000E+00 0. -1.
         24    2    1    2    0    0 -0.64015495172E+03  0.66595650855E+02 -0.79889513849E+03  0.10289278272E+04  0.78903031927E+02 0.  0.
        254    2    1    2    0    0  0.64015495172E+03 -0.66595650855E+02 -0.60485497084E+03  0.12613870481E+04  0.90056338286E+03 0.  0.
         23    2    4    4    0    0 -0.20380019585E+03 -0.39176203352E+02 -0.25924128242E+03  0.34433987671E+03  0.91074768428E+02 0.  0.
         23    2    4    4    0    0  0.84395514758E+03 -0.27419447503E+02 -0.34561368842E+03  0.91704717144E+03  0.92274459061E+02 0.  0.
          2    1    3    3  502    0 -0.54626809640E+03  0.28483336508E+02 -0.66772426019E+03  0.86317774603E+03  0.00000000000E+00 0. -1.
         -1    1    3    3    0  502 -0.93886855328E+02  0.38112314346E+02 -0.13117087830E+03  0.16575008121E+03  0.00000000000E+00 0.  1.
         11    1    5    5    0    0 -0.20583387364E+03 -0.42453592021E+02 -0.26449166285E+03  0.33782500015E+03  0.00000000000E+00 0. -1.
        -11    1    5    5    0    0  0.20336777904E+01  0.32773886687E+01  0.52503804305E+01  0.65148765534E+01  0.00000000000E+00 0.  1.
          2    1    6    6  503    0  0.11240489951E+03  0.21256497612E+02 -0.26410849729E+02  0.11740627372E+03  0.00000000000E+00 0.  1.
         -2    1    6    6    0  503  0.73155024807E+03 -0.48675945114E+02 -0.31920283869E+03  0.79964089772E+03  0.00000000000E+00 0. -1.
<mgrwt>
<rscale>  0 0.18097038E+04</rscale>
<asrwt>0</asrwt>
<pdfrwt beam="1">  1        2 0.28415884E+00 0.18097038E+04</pdfrwt>
<pdfrwt beam="2">  1       -1 0.68197290E-01 0.18097038E+04</pdfrwt>
<totfact> 0.19000543E+01</totfact>
</mgrwt>
</event>
<event>
12    6  0.1402540E-007  0.1937619E+04  0.7818608E-02  0.8636354E-01
         -1   -1    0    0    0  501 -0.00000000000E+00  0.00000000000E+00  0.26704241871E+03  0.26704241871E+03  0.00000000000E+00 0.  1.
          2   -1    0    0  501    0  0.00000000000E+00 -0.00000000000E+00 -0.35147672773E+04  0.35147672773E+04  0.00000000000E+00 0. -1.
         24    2    1    2    0    0  0.42196758182E+03 -0.36554510098E+03 -0.22690911923E+04  0.23382153777E+04  0.82440599178E+02 0.  0.
        254    2    1    2    0    0 -0.42196758182E+03  0.36554510098E+03 -0.97863366630E+03  0.14435943184E+04  0.90253024449E+03 0.  0.
         23    2    4    4    0    0 -0.52608410758E+03  0.83930343756E+02 -0.15569028815E+03  0.56278798779E+03  0.93177585960E+02 0.  0.
         23    2    4    4    0    0  0.10411652577E+03  0.28161475723E+03 -0.82294337815E+03  0.88080633056E+03  0.91852413642E+02 0.  0.
          2    1    3    3  502    0  0.19967863140E+03 -0.12001463364E+03 -0.96457920696E+03  0.99231452404E+03  0.00000000000E+00 0. -1.
         -1    1    3    3    0  502  0.22228895041E+03 -0.24553046735E+03 -0.13045119854E+04  0.13459008536E+04  0.00000000000E+00 0.  1.
         11    1    5    5    0    0 -0.17989310005E+03  0.83349471368E+01 -0.93885706079E+02  0.20308994213E+03  0.00000000000E+00 0. -1.
        -11    1    5    5    0    0 -0.34619100754E+03  0.75595396619E+02 -0.61804582070E+02  0.35969804566E+03  0.00000000000E+00 0.  1.
          2    1    6    6  503    0  0.12439361843E+01  0.12647075242E+03 -0.37369180761E+03  0.39451484847E+03  0.00000000000E+00 0.  1.
         -2    1    6    6    0  503  0.10287258958E+03  0.15514400481E+03 -0.44925157054E+03  0.48629148209E+03  0.00000000000E+00 0. -1.
<mgrwt>
<rscale>  0 0.19376191E+04</rscale>
<asrwt>0</asrwt>
<pdfrwt beam="1">  1        2 0.54073342E+00 0.19376191E+04</pdfrwt>
<pdfrwt beam="2">  1       -1 0.41083450E-01 0.19376191E+04</pdfrwt>
<totfact> 0.49245702E+00</totfact>
</mgrwt>
</event>
<event>
12    6  0.1402540E-007  0.2046719E+04  0.7818608E-02  0.8585084E-01
         -1   -1    0    0    0  501 -0.00000000000E+00  0.00000000000E+00  0.10412143463E+04  0.10412143463E+04  0.00000000000E+00 0.  1.
          2   -1    0    0  501    0  0.00000000000E+00 -0.00000000000E+00 -0.10058105234E+04  0.10058105234E+04  0.00000000000E+00 0. -1.
         24    2    1    2    0    0 -0.44018582584E+03  0.21490041411E+03  0.67471399008E+03  0.83763658668E+03  0.80313969398E+02 0.  0.
        254    2    1    2    0    0  0.44018582584E+03 -0.21490041411E+03 -0.63931016721E+03  0.12093882830E+04  0.90219553305E+03 0.  0.
         23    2    4    4    0    0  0.29307333576E+03  0.33164794028E+03 -0.32282048358E+03  0.55457922398E+03  0.86387004911E+02 0.  0.
         23    2    4    4    0    0  0.14711249007E+03 -0.54654835440E+03 -0.31648968363E+03  0.65480905900E+03  0.90840494714E+02 0.  0.
          2    1    3    3  502    0 -0.14641777573E+03  0.55221912398E+02  0.15957565995E+03  0.22349947631E+03  0.00000000000E+00 0. -1.
         -1    1    3    3    0  502 -0.29376805010E+03  0.15967850171E+03  0.51513833013E+03  0.61413711037E+03  0.00000000000E+00 0.  1.
         11    1    5    5    0    0  0.30921686405E+02  0.82935446985E+01 -0.89610083335E+01  0.33245048416E+02  0.00000000000E+00 0. -1.
        -11    1    5    5    0    0  0.26215164936E+03  0.32335439559E+03 -0.31385947525E+03  0.52133417556E+03  0.00000000000E+00 0.  1.
          1    1    6    6  503    0  0.21815648313E+01 -0.82617406601E+02 -0.77041996877E+02  0.11298612473E+03  0.00000000000E+00 0. -1.
         -1    1    6    6    0  503  0.14493092524E+03 -0.46393094780E+03 -0.23944768675E+03  0.54182293427E+03  0.00000000000E+00 0.  1.
<mgrwt>
<rscale>  0 0.20467187E+04</rscale>
<asrwt>0</asrwt>
<pdfrwt beam="1">  1        2 0.15474008E+00 0.20467187E+04</pdfrwt>
<pdfrwt beam="2">  1       -1 0.16018682E+00 0.20467187E+04</pdfrwt>
<totfact> 0.76798535E+00</totfact>
</mgrwt>
</event>
<event>
12    6  0.1402540E-007  0.1501127E+04  0.7818608E-02  0.8883704E-01
         -1   -1    0    0    0  501 -0.00000000000E+00  0.00000000000E+00  0.69202649187E+03  0.69202649187E+03  0.00000000000E+00 0.  1.
          2   -1    0    0  501    0  0.00000000000E+00 -0.00000000000E+00 -0.81405234113E+03  0.81405234113E+03  0.00000000000E+00 0. -1.
         24    2    1    2    0    0 -0.30435998486E+03 -0.35567113854E+03  0.57218395936E+02  0.47826339529E+03  0.79529687962E+02 0.  0.
        254    2    1    2    0    0  0.30435998486E+03  0.35567113854E+03 -0.17924424520E+03  0.10278154377E+04  0.89729544487E+03 0.  0.
         23    2    4    4    0    0  0.11221084931E+03  0.60231875147E+03  0.61807793726E+02  0.62226495639E+03  0.89522731827E+02 0.  0.
         23    2    4    4    0    0  0.19214913554E+03 -0.24664761292E+03 -0.24105203893E+03  0.40555048132E+03  0.92783469318E+02 0.  0.
          4    1    3    3  502    0 -0.14112017133E+03 -0.20509657167E+03  0.10841305225E+00  0.24895686015E+03  0.00000000000E+00 0. -1.
         -3    1    3    3    0  502 -0.16323981353E+03 -0.15057456688E+03  0.57109982884E+02  0.22930653514E+03  0.00000000000E+00 0.  1.
         11    1    5    5    0    0 -0.33458679239E+01  0.45332421620E+02 -0.15853319904E+02  0.48140949659E+02  0.00000000000E+00 0. -1.
        -11    1    5    5    0    0  0.11555671724E+03  0.55698632985E+03  0.77661113630E+02  0.57412400673E+03  0.00000000000E+00 0.  1.
          2    1    6    6  503    0  0.12073548244E+02 -0.77929061646E+02 -0.48831392346E+02  0.92753512573E+02  0.00000000000E+00 0. -1.
         -2    1    6    6    0  503  0.18007558730E+03 -0.16871855128E+03 -0.19222064658E+03  0.31279696875E+03  0.00000000000E+00 0.  1.
<mgrwt>
<rscale>  0 0.15011273E+04</rscale>
<asrwt>0</asrwt>
<pdfrwt beam="1">  1        2 0.12523882E+00 0.15011273E+04</pdfrwt>
<pdfrwt beam="2">  1       -1 0.10646561E+00 0.15011273E+04</pdfrwt>
<totfact> 0.30603366E+01</totfact>
</mgrwt>
</event>
<event>
12    6  0.1402540E-007  0.1779566E+04  0.7818608E-02  0.8717242E-01
          2   -1    0    0  501    0  0.00000000000E+00  0.00000000000E+00  0.22670567805E+04  0.22670567805E+04  0.00000000000E+00 0. -1.
         -1   -1    0    0    0  501 -0.00000000000E+00 -0.00000000000E+00 -0.34922547970E+03  0.34922547970E+03  0.00000000000E+00 0.  1.
         24    2    1    2    0    0  0.65410512728E+03 -0.75450869574E+02  0.77936009982E+03  0.10235154958E+04  0.81458293992E+02 0.  0.
        254    2    1    2    0    0 -0.65410512728E+03  0.75450869574E+02  0.11384712010E+04  0.15927667644E+04  0.89846699388E+03 0.  0.
         23    2    4    4    0    0 -0.46576854518E+03 -0.36497482932E+03  0.79943520766E+03  0.99884470919E+03  0.91908313726E+02 0.  0.
         23    2    4    4    0    0 -0.18833658211E+03  0.44042569889E+03  0.33903599331E+03  0.59392205521E+03  0.91392223393E+02 0.  0.
          4    1    3    3  502    0  0.30000528606E+03  0.57838337499E+01  0.36149741581E+03  0.46980528524E+03  0.00000000000E+00 0. -1.
         -3    1    3    3    0  502  0.35409984123E+03 -0.81234703324E+02  0.41786268400E+03  0.55371021055E+03  0.00000000000E+00 0.  1.
         11    1    5    5    0    0 -0.33277898337E+03 -0.30502568600E+03  0.63380765248E+03  0.77813537461E+03  0.00000000000E+00 0. -1.
        -11    1    5    5    0    0 -0.13298956181E+03 -0.59949143316E+02  0.16562755518E+03  0.22070933458E+03  0.00000000000E+00 0.  1.
          4    1    6    6  503    0 -0.17121803538E+03  0.37025584269E+03  0.24681751724E+03  0.47678495310E+03  0.00000000000E+00 0. -1.
         -4    1    6    6    0  503 -0.17118546728E+02  0.70169856197E+02  0.92218476067E+02  0.11713710210E+03  0.00000000000E+00 0.  1.
<mgrwt>
<rscale>  0 0.17795662E+04</rscale>
<asrwt>0</asrwt>
<pdfrwt beam="1">  1        2 0.34877796E+00 0.17795662E+04</pdfrwt>
<pdfrwt beam="2">  1       -1 0.53726998E-01 0.17795662E+04</pdfrwt>
<totfact> 0.17826495E+01</totfact>
</mgrwt>
</event>
<event>
12    6  0.1402540E-007  0.1426126E+04  0.7818608E-02  0.8935121E-01
          2   -1    0    0  501    0  0.00000000000E+00  0.00000000000E+00  0.12668556502E+04  0.12668556502E+04  0.00000000000E+00 0. -1.
         -1   -1    0    0    0  501 -0.00000000000E+00 -0.00000000000E+00 -0.40135523319E+03  0.40135523319E+03  0.00000000000E+00 0.  1.
         24    2    1    2    0    0 -0.15462450665E+03 -0.39030855384E+03  0.18438596388E+03  0.46518226097E+03  0.78401830282E+02 0.  0.
        254    2    1    2    0    0  0.15462450665E+03  0.39030855384E+03  0.68111445309E+03  0.12030286224E+04  0.89839382390E+03 0.  0.
         23    2    4    4    0    0  0.16308885359E+03  0.34300346575E+03 -0.10935645656E+03  0.40597062611E+03  0.92757549523E+02 0.  0.
         23    2    4    4    0    0 -0.84643469486E+01  0.47305088094E+02  0.79047090965E+03  0.79705799627E+03  0.90265020331E+02 0.  0.
          4    1    3    3  502    0 -0.13608976913E+03 -0.38208950123E+03  0.16761967650E+03  0.43887261041E+03  0.00000000000E+00 0. -1.
         -1    1    3    3    0  502 -0.18534737513E+02 -0.82190526072E+01  0.16766287379E+02  0.26309650566E+02  0.00000000000E+00 0.  1.
         11    1    5    5    0    0  0.28670627777E+02  0.14332378256E+03 -0.13166978374E+02  0.14675517321E+03  0.00000000000E+00 0.  1.
        -11    1    5    5    0    0  0.13441822582E+03  0.19967968318E+03 -0.96189478184E+02  0.25921545290E+03  0.00000000000E+00 0. -1.
          2    1    6    6  503    0  0.32794845363E+02  0.39873535629E+02  0.58976558101E+03  0.59202098043E+03  0.00000000000E+00 0. -1.
         -2    1    6    6    0  503 -0.41259192311E+02  0.74315524646E+01  0.20070532864E+03  0.20503701584E+03  0.00000000000E+00 0.  1.
<mgrwt>
<rscale>  0 0.14261264E+04</rscale>
<asrwt>0</asrwt>
<pdfrwt beam="1">  1        2 0.19490087E+00 0.14261264E+04</pdfrwt>
<pdfrwt beam="2">  1       -1 0.61746960E-01 0.14261264E+04</pdfrwt>
<totfact> 0.50932282E+01</totfact>
</mgrwt>
</event>
<event>
12    6  0.1402540E-007  0.1466285E+04  0.7818608E-02  0.8907188E-01
         -1   -1    0    0    0  501 -0.00000000000E+00  0.00000000000E+00  0.24492852133E+03  0.24492852133E+03  0.00000000000E+00 0.  1.
          2   -1    0    0  501    0  0.00000000000E+00 -0.00000000000E+00 -0.21945096538E+04  0.21945096538E+04  0.00000000000E+00 0. -1.
         24    2    1    2    0    0 -0.11257022422E+03 -0.18850662718E+03  0.46922927646E+02  0.23841152689E+03  0.80196578126E+02 0.  0.
        254    2    1    2    0    0  0.11257022422E+03  0.18850662718E+03 -0.19965040601E+04  0.22010266482E+04  0.90015723091E+03 0.  0.
         23    2    4    4    0    0 -0.17770757335E+03  0.47062825823E+03 -0.11162075479E+04  0.12278145422E+04  0.92403035594E+02 0.  0.
         23    2    4    4    0    0  0.29027779757E+03 -0.28212163105E+03 -0.88029651217E+03  0.97321210600E+03  0.91466056344E+02 0.  0.
          2    1    3    3  502    0  0.65263447908E+01 -0.37712703497E+02 -0.68384211529E+01  0.38879367089E+02  0.00000000000E+00 0. -1.
         -1    1    3    3    0  502 -0.11909656901E+03 -0.15079392368E+03  0.53761348799E+02  0.19953215980E+03  0.00000000000E+00 0.  1.
         11    1    5    5    0    0 -0.84516514682E+02  0.15728909306E+03 -0.48798450219E+03  0.51962657209E+03  0.00000000000E+00 0. -1.
        -11    1    5    5    0    0 -0.93191058667E+02  0.31333916517E+03 -0.62822304573E+03  0.70818797012E+03  0.00000000000E+00 0.  1.
          1    1    6    6  503    0  0.19670400502E+03 -0.19085781083E+03 -0.48782309081E+03  0.55954493785E+03  0.00000000000E+00 0. -1.
         -1    1    6    6    0  503  0.93573792547E+02 -0.91263820218E+02 -0.39247342136E+03  0.41366716815E+03  0.00000000000E+00 0.  1.
<mgrwt>
<rscale>  0 0.14662851E+04</rscale>
<asrwt>0</asrwt>
<pdfrwt beam="1">  1        2 0.33761687E+00 0.14662851E+04</pdfrwt>
<pdfrwt beam="2">  1       -1 0.37681311E-01 0.14662851E+04</pdfrwt>
<totfact> 0.39015779E+01</totfact>
</mgrwt>
</event>
<event>
12    6  0.1402540E-007  0.3064753E+04  0.7818608E-02  0.8225478E-01
         -1   -1    0    0    0  501 -0.00000000000E+00  0.00000000000E+00  0.79829690374E+03  0.79829690374E+03  0.00000000000E+00 0.  1.
          2   -1    0    0  501    0  0.00000000000E+00 -0.00000000000E+00 -0.29414841767E+04  0.29414841767E+04  0.00000000000E+00 0. -1.
         24    2    1    2    0    0 -0.10338006187E+04 -0.52956973919E+03 -0.27381797666E+02  0.11644794251E+04  0.77940623559E+02 0.  0.
        254    2    1    2    0    0  0.10338006187E+04  0.52956973919E+03 -0.21158054753E+04  0.25753016553E+04  0.89797437543E+03 0.  0.
         23    2    4    4    0    0  0.65992583231E+03  0.76698980896E+03 -0.14761630336E+04  0.17919555008E+04  0.90949127633E+02 0.  0.
         23    2    4    4    0    0  0.37387478635E+03 -0.23742006977E+03 -0.63964244166E+03  0.78334615453E+03  0.91313193211E+02 0.  0.
          4    1    3    3  502    0 -0.75599324523E+03 -0.34789307636E+03 -0.16526526114E+02  0.83236320527E+03  0.00000000000E+00 0. -1.
         -3    1    3    3    0  502 -0.27780737343E+03 -0.18167666283E+03 -0.10855271552E+02  0.33211621982E+03  0.00000000000E+00 0.  1.
         11    1    5    5    0    0  0.43015031190E+03  0.56378284484E+03 -0.10350423691E+04  0.12546685191E+04  0.00000000000E+00 0. -1.
        -11    1    5    5    0    0  0.22977552041E+03  0.20320696412E+03 -0.44112066455E+03  0.53728698174E+03  0.00000000000E+00 0.  1.
          1    1    6    6  503    0  0.19438073486E+03 -0.15192924201E+03 -0.41989116302E+03  0.48700611233E+03  0.00000000000E+00 0.  1.
         -1    1    6    6    0  503  0.17949405149E+03 -0.85490827759E+02 -0.21975127863E+03  0.29634004220E+03  0.00000000000E+00 0. -1.
<mgrwt>
<rscale>  0 0.30647530E+04</rscale>
<asrwt>0</asrwt>
<pdfrwt beam="1">  1        2 0.45253602E+00 0.30647530E+04</pdfrwt>
<pdfrwt beam="2">  1       -1 0.12281491E+00 0.30647530E+04</pdfrwt>
<totfact> 0.10705536E+00</totfact>
</mgrwt>
</event>
<event>
12    6  0.1402540E-007  0.2189894E+04  0.7818608E-02  0.8522646E-01
         -1   -1    0    0    0  501 -0.00000000000E+00  0.00000000000E+00  0.16833355413E+04  0.16833355413E+04  0.00000000000E+00 0.  1.
          2   -1    0    0  501    0  0.00000000000E+00 -0.00000000000E+00 -0.71222231120E+03  0.71222231120E+03  0.00000000000E+00 0. -1.
         24    2    1    2    0    0 -0.13907788236E+03  0.88330482335E+03  0.58858555489E+03  0.10735240189E+04  0.80316844318E+02 0.  0.
        254    2    1    2    0    0  0.13907788236E+03 -0.88330482335E+03  0.38252767523E+03  0.13220338336E+04  0.89547527410E+03 0.  0.
         23    2    4    4    0    0  0.25024081323E+03 -0.73462097058E+03  0.62685084001E+03  0.10019161245E+04  0.92765887166E+02 0.  0.
         23    2    4    4    0    0 -0.11116293087E+03 -0.14868385276E+03 -0.24432316478E+03  0.32011770912E+03  0.91200074403E+02 0.  0.
          2    1    3    3  502    0 -0.56159308486E+02  0.48786735949E+03  0.28164842862E+03  0.56612212969E+03  0.00000000000E+00 0. -1.
         -1    1    3    3    0  502 -0.82918573871E+02  0.39543746386E+03  0.30693712628E+03  0.50740188924E+03  0.00000000000E+00 0.  1.
         11    1    5    5    0    0  0.71723602424E+02 -0.13265114804E+03  0.88587303204E+02  0.17489514719E+03  0.00000000000E+00 0. -1.
        -11    1    5    5    0    0  0.17851721081E+03 -0.60196982254E+03  0.53826353681E+03  0.82702097728E+03  0.00000000000E+00 0.  1.
          4    1    6    6  503    0 -0.10485131058E+03 -0.14558890533E+03 -0.25223391311E+03  0.30953493116E+03  0.00000000000E+00 0.  1.
         -4    1    6    6    0  503 -0.63116202943E+01 -0.30949474289E+01  0.79107483252E+01  0.10582777962E+02  0.00000000000E+00 0. -1.
<mgrwt>
<rscale>  0 0.21898942E+04</rscale>
<asrwt>0</asrwt>
<pdfrwt beam="1">  1        2 0.10957266E+00 0.21898942E+04</pdfrwt>
<pdfrwt beam="2">  1       -1 0.25897470E+00 0.21898942E+04</pdfrwt>
<totfact> 0.25495669E+00</totfact>
</mgrwt>
</event>
<event>
12    6  0.1402540E-007  0.1212793E+04  0.7818608E-02  0.9101732E-01
         -1   -1    0    0    0  501 -0.00000000000E+00  0.00000000000E+00  0.26582716021E+03  0.26582716021E+03  0.00000000000E+00 0.  1.
          2   -1    0    0  501    0  0.00000000000E+00 -0.00000000000E+00 -0.13832924704E+04  0.13832924704E+04  0.00000000000E+00 0. -1.
         24    2    1    2    0    0 -0.10647596444E+03  0.21070035083E+03 -0.40997300819E+03  0.47974524461E+03  0.79660927910E+02 0.  0.
        254    2    1    2    0    0  0.10647596444E+03 -0.21070035083E+03 -0.70749230197E+03  0.11693743860E+04  0.90064384102E+03 0.  0.
         23    2    4    4    0    0  0.10965700180E+03 -0.54234680944E+03 -0.56643995215E+03  0.79693865209E+03  0.89957078956E+02 0.  0.
         23    2    4    4    0    0 -0.31810373568E+01  0.33164645861E+03 -0.14105234982E+03  0.37243573388E+03  0.93878208195E+02 0.  0.
          2    1    3    3  502    0  0.12885850536E+01  0.57210643366E+02 -0.13784923419E+03  0.14925524960E+03  0.00000000000E+00 0. -1.
         -1    1    3    3    0  502 -0.10776454949E+03  0.15348970747E+03 -0.27212377400E+03  0.33048999501E+03  0.00000000000E+00 0.  1.
         11    1    5    5    0    0  0.56315690856E+01 -0.23538507424E+03 -0.21473269876E+03  0.31866593740E+03  0.00000000000E+00 0. -1.
        -11    1    5    5    0    0  0.10402543271E+03 -0.30696173520E+03 -0.35170725339E+03  0.47827271469E+03  0.00000000000E+00 0.  1.
          2    1    6    6  503    0  0.22133891591E+02  0.17703019400E+02 -0.28476553778E+01  0.28485350516E+02  0.00000000000E+00 0. -1.
         -2    1    6    6    0  503 -0.25314928948E+02  0.31394343921E+03 -0.13820469445E+03  0.34395038336E+03  0.00000000000E+00 0.  1.
<mgrwt>
<rscale>  0 0.12127930E+04</rscale>
<asrwt>0</asrwt>
<pdfrwt beam="1">  1        2 0.21281423E+00 0.12127930E+04</pdfrwt>
<pdfrwt beam="2">  1       -1 0.40896486E-01 0.12127930E+04</pdfrwt>
<totfact> 0.97152309E+01</totfact>
</mgrwt>
</event>
<event>
12    6  0.1402540E-007  0.2782847E+04  0.7818608E-02  0.8308613E-01
          2   -1    0    0  501    0  0.00000000000E+00  0.00000000000E+00  0.20697529151E+04  0.20697529151E+04  0.00000000000E+00 0. -1.
         -1   -1    0    0    0  501 -0.00000000000E+00 -0.00000000000E+00 -0.93540619830E+03  0.93540619830E+03  0.00000000000E+00 0.  1.
         24    2    1    2    0    0 -0.58917629144E+03  0.39882861842E+03  0.16141804882E+04  0.17656942176E+04  0.76840432449E+02 0.  0.
        254    2    1    2    0    0  0.58917629144E+03 -0.39882861842E+03 -0.47983377139E+03  0.12394648959E+04  0.89433763797E+03 0.  0.
         23    2    4    4    0    0  0.25387274515E+03  0.20498377153E+03  0.77302548370E+02  0.34760903828E+03  0.91578612089E+02 0.  0.
         23    2    4    4    0    0  0.33530354629E+03 -0.60381238994E+03 -0.55713631976E+03  0.89185585760E+03  0.89376291764E+02 0.  0.
          4    1    3    3  502    0 -0.16326153935E+03  0.14941011237E+03  0.46348974026E+03  0.51361508081E+03  0.00000000000E+00 0. -1.
         -3    1    3    3    0  502 -0.42591475209E+03  0.24941850605E+03  0.11506907480E+04  0.12520791367E+04  0.00000000000E+00 0.  1.
         11    1    5    5    0    0  0.16851324657E+03  0.15202559610E+03  0.94230880847E+02  0.24573960821E+03  0.00000000000E+00 0. -1.
        -11    1    5    5    0    0  0.85359498587E+02  0.52958175430E+02 -0.16928332477E+02  0.10186943008E+03  0.00000000000E+00 0.  1.
          3    1    6    6  503    0  0.31207192694E+03 -0.55337509099E+03 -0.47738267854E+03  0.79467421041E+03  0.00000000000E+00 0. -1.
         -3    1    6    6    0  503  0.23231619351E+02 -0.50437298956E+02 -0.79753641216E+02  0.97181647191E+02  0.00000000000E+00 0.  1.
<mgrwt>
<rscale>  0 0.27828473E+04</rscale>
<asrwt>0</asrwt>
<pdfrwt beam="1">  1        2 0.31842353E+00 0.27828473E+04</pdfrwt>
<pdfrwt beam="2">  1       -1 0.14390865E+00 0.27828473E+04</pdfrwt>
<totfact> 0.23603710E+00</totfact>
</mgrwt>
</event>
<event>
12    6  0.1402540E-007  0.1657273E+04  0.7818608E-02  0.8786115E-01
          2   -1    0    0  501    0  0.00000000000E+00  0.00000000000E+00  0.13443215888E+04  0.13443215888E+04  0.00000000000E+00 0. -1.
         -1   -1    0    0    0  501 -0.00000000000E+00 -0.00000000000E+00 -0.51076978282E+03  0.51076978282E+03  0.00000000000E+00 0.  1.
         24    2    1    2    0    0 -0.57367100445E+03  0.74554220175E+02  0.31122344695E+03  0.66237401448E+03  0.84985575436E+02 0.  0.
        254    2    1    2    0    0  0.57367100445E+03 -0.74554220175E+02  0.52232835905E+03  0.11927173572E+04  0.90282391766E+03 0.  0.
         23    2    4    4    0    0 -0.26344917081E+02 -0.18849346852E+03  0.53466706336E+03  0.57508958417E+03  0.92926416322E+02 0.  0.
         23    2    4    4    0    0  0.60001592153E+03  0.11393924834E+03 -0.12338704315E+02  0.61762777298E+03  0.91162294443E+02 0.  0.
          4    1    3    3  502    0 -0.21414293853E+03  0.41612015138E+02  0.16197529279E+03  0.27170710959E+03  0.00000000000E+00 0. -1.
         -3    1    3    3    0  502 -0.35952806592E+03  0.32942205037E+02  0.14924815416E+03  0.39066690489E+03  0.00000000000E+00 0.  1.
         11    1    5    5    0    0  0.26992686717E+02 -0.12207890308E+03  0.35180450082E+03  0.37336077795E+03  0.00000000000E+00 0.  1.
        -11    1    5    5    0    0 -0.53337603798E+02 -0.66414565434E+02  0.18286256254E+03  0.20172880622E+03  0.00000000000E+00 0. -1.
          3    1    6    6  503    0  0.12980912004E+02 -0.79623911467E+01  0.90014944852E+01  0.17689846020E+02  0.00000000000E+00 0. -1.
         -3    1    6    6    0  503  0.58703500953E+03  0.12190163949E+03 -0.21340198800E+02  0.59993792696E+03  0.00000000000E+00 0.  1.
<mgrwt>
<rscale>  0 0.16572735E+04</rscale>
<asrwt>0</asrwt>
<pdfrwt beam="1">  1        2 0.20681871E+00 0.16572735E+04</pdfrwt>
<pdfrwt beam="2">  1       -1 0.78579967E-01 0.16572735E+04</pdfrwt>
<totfact> 0.27475420E+01</totfact>
</mgrwt>
</event>
<event>
12    6  0.1402540E-007  0.1714887E+04  0.7818608E-02  0.8752919E-01
          2   -1    0    0  501    0  0.00000000000E+00  0.00000000000E+00  0.79246630948E+03  0.79246630948E+03  0.00000000000E+00 0. -1.
         -1   -1    0    0    0  501 -0.00000000000E+00 -0.00000000000E+00 -0.92774795464E+03  0.92774795464E+03  0.00000000000E+00 0.  1.
         24    2    1    2    0    0  0.60360257911E+02  0.21543735904E+03 -0.62443918491E+03  0.67220317183E+03  0.10897794350E+03 0.  0.
        254    2    1    2    0    0 -0.60360257911E+02 -0.21543735904E+03  0.48915753976E+03  0.10480110923E+04  0.89944179047E+03 0.  0.
         23    2    4    4    0    0 -0.36423550675E+03  0.11009281891E+03  0.44297038185E+03  0.59105222299E+03  0.91279997548E+02 0.  0.
         23    2    4    4    0    0  0.30387524883E+03 -0.32553017795E+03  0.46187157910E+02  0.45695886930E+03  0.91477270767E+02 0.  0.
          4    1    3    3  502    0  0.25996551839E+02  0.12732478715E+03 -0.20877692602E+03  0.24591711402E+03  0.00000000000E+00 0. -1.
         -3    1    3    3    0  502  0.34363706072E+02  0.88112571886E+02 -0.41566225889E+03  0.42628605781E+03  0.00000000000E+00 0.  1.
         11    1    5    5    0    0 -0.34204397882E+03  0.91990514415E+02  0.36784247636E+03  0.51065098218E+03  0.00000000000E+00 0.  1.
        -11    1    5    5    0    0 -0.22191527925E+02  0.18102304495E+02  0.75127905487E+02  0.80401240802E+02  0.00000000000E+00 0. -1.
          1    1    6    6  503    0  0.10571013975E+03 -0.93849263815E+02 -0.25828406200E+02  0.14369907631E+03  0.00000000000E+00 0. -1.
         -1    1    6    6    0  503  0.19816510908E+03 -0.23168091413E+03  0.72015564111E+02  0.31325979299E+03  0.00000000000E+00 0.  1.
<mgrwt>
<rscale>  0 0.17148866E+04</rscale>
<asrwt>0</asrwt>
<pdfrwt beam="1">  1        2 0.12191789E+00 0.17148866E+04</pdfrwt>
<pdfrwt beam="2">  1       -1 0.14273045E+00 0.17148866E+04</pdfrwt>
<totfact> 0.15080394E+01</totfact>
</mgrwt>
</event>
<event>
12    6  0.1402540E-007  0.1403916E+04  0.7818608E-02  0.8950989E-01
          2   -1    0    0  501    0  0.00000000000E+00  0.00000000000E+00  0.22343790284E+04  0.22343790284E+04  0.00000000000E+00 0. -1.
         -1   -1    0    0    0  501 -0.00000000000E+00 -0.00000000000E+00 -0.22052881425E+03  0.22052881425E+03  0.00000000000E+00 0.  1.
         24    2    1    2    0    0  0.33623522824E+03  0.21372121613E+03  0.72750665345E+03  0.83368496279E+03  0.83867749646E+02 0.  0.
        254    2    1    2    0    0 -0.33623522824E+03 -0.21372121613E+03  0.12863435607E+04  0.16212228799E+04  0.90274746364E+03 0.  0.
         23    2    4    4    0    0 -0.54388226155E+03 -0.39982168262E+03  0.79230161743E+03  0.10448006017E+04  0.90560212185E+02 0.  0.
         23    2    4    4    0    0  0.20764703331E+03  0.18610046648E+03  0.49404194327E+03  0.57642227816E+03  0.10214953243E+03 0.  0.
          4    1    3    3  502    0  0.12803661286E+03  0.12984619123E+03  0.34281332449E+03  0.38829677189E+03  0.00000000000E+00 0. -1.
         -3    1    3    3    0  502  0.20819861539E+03  0.83875024908E+02  0.38469332896E+03  0.44538819090E+03  0.00000000000E+00 0.  1.
         11    1    5    5    0    0 -0.25607085032E+03 -0.15684477602E+03  0.29492126865E+03  0.42089323926E+03  0.00000000000E+00 0. -1.
        -11    1    5    5    0    0 -0.28781141123E+03 -0.24297690659E+03  0.49738034877E+03  0.62390736245E+03  0.00000000000E+00 0.  1.
          4    1    6    6  503    0  0.15450354867E+03  0.11059896327E+03  0.40862523275E+03  0.45064182902E+03  0.00000000000E+00 0. -1.
         -4    1    6    6    0  503  0.53143484636E+02  0.75501503215E+02  0.85416710524E+02  0.12578044913E+03  0.00000000000E+00 0.  1.
<mgrwt>
<rscale>  0 0.14039159E+04</rscale>
<asrwt>0</asrwt>
<pdfrwt beam="1">  1        2 0.34375060E+00 0.14039159E+04</pdfrwt>
<pdfrwt beam="2">  1       -1 0.33927511E-01 0.14039159E+04</pdfrwt>
<totfact> 0.44983343E+01</totfact>
</mgrwt>
</event>
<event>
12    6  0.1402540E-007  0.1391647E+04  0.7818608E-02  0.8959887E-01
          2   -1    0    0  501    0  0.00000000000E+00  0.00000000000E+00  0.58495607100E+03  0.58495607100E+03  0.00000000000E+00 0. -1.
         -1   -1    0    0    0  501 -0.00000000000E+00 -0.00000000000E+00 -0.82770427337E+03  0.82770427337E+03  0.00000000000E+00 0.  1.
         24    2    1    2    0    0 -0.72099151713E+02 -0.39637636858E+03 -0.97319573364E+02  0.42189166287E+03  0.78796970704E+02 0.  0.
        254    2    1    2    0    0  0.72099151713E+02  0.39637636858E+03 -0.14542862901E+03  0.99076868150E+03  0.89339833270E+03 0.  0.
         23    2    4    4    0    0 -0.28611101573E+03 -0.24325754015E+02 -0.28630297383E+03  0.41351781526E+03  0.81094605771E+02 0.  0.
         23    2    4    4    0    0  0.35821016744E+03  0.42070212259E+03  0.14087434482E+03  0.57725086624E+03  0.89823056805E+02 0.  0.
          4    1    3    3  502    0 -0.19734848555E+02 -0.19287467976E+03 -0.94003779260E+01  0.19410943677E+03  0.00000000000E+00 0. -1.
         -3    1    3    3    0  502 -0.52364303157E+02 -0.20350168882E+03 -0.87919195438E+02  0.22778222609E+03  0.00000000000E+00 0.  1.
         11    1    5    5    0    0 -0.13072566362E+03 -0.49374868461E+02 -0.11588909132E+03  0.18154161576E+03  0.00000000000E+00 0.  1.
        -11    1    5    5    0    0 -0.15538535210E+03  0.25049114446E+02 -0.17041388252E+03  0.23197619951E+03  0.00000000000E+00 0. -1.
          3    1    6    6  503    0  0.15885750589E+03  0.17712672770E+03  0.10633000307E+03  0.26060632071E+03  0.00000000000E+00 0. -1.
         -3    1    6    6    0  503  0.19935266155E+03  0.24357539489E+03  0.34544341754E+02  0.31664454553E+03  0.00000000000E+00 0.  1.
<mgrwt>
<rscale>  0 0.13916474E+04</rscale>
<asrwt>0</asrwt>
<pdfrwt beam="1">  1        2 0.89993241E-01 0.13916474E+04</pdfrwt>
<pdfrwt beam="2">  1       -1 0.12733912E+00 0.13916474E+04</pdfrwt>
<totfact> 0.30421002E+01</totfact>
</mgrwt>
</event>
<event>
12    6  0.1402540E-007  0.1682373E+04  0.7818608E-02  0.8771482E-01
          2   -1    0    0  501    0  0.00000000000E+00  0.00000000000E+00  0.30790474497E+04  0.30790474497E+04  0.00000000000E+00 0. -1.
         -1   -1    0    0    0  501 -0.00000000000E+00 -0.00000000000E+00 -0.22980969120E+03  0.22980969120E+03  0.00000000000E+00 0.  1.
         24    2    1    2    0    0 -0.28975083560E+03  0.25863593466E+03  0.19103385536E+04  0.19510827170E+04  0.80512643105E+02 0.  0.
        254    2    1    2    0    0  0.28975083560E+03 -0.25863593466E+03  0.93889920488E+03  0.13577744239E+04  0.90065064030E+03 0.  0.
         23    2    4    4    0    0 -0.45189454157E+02 -0.47399864101E+03  0.78233113591E+03  0.92032217242E+03  0.90741921909E+02 0.  0.
         23    2    4    4    0    0  0.33494028976E+03  0.21536270635E+03  0.15656806897E+03  0.43745225149E+03  0.91020981756E+02 0.  0.
          4    1    3    3  502    0 -0.12617610514E+03  0.16079003328E+03  0.10772335273E+04  0.10964515113E+04  0.00000000000E+00 0. -1.
         -3    1    3    3    0  502 -0.16357473046E+03  0.97845901375E+02  0.83310502629E+03  0.85463120566E+03  0.00000000000E+00 0.  1.
         11    1    5    5    0    0 -0.62205186280E+02 -0.18556434653E+03  0.30835524202E+03  0.36522125785E+03  0.00000000000E+00 0. -1.
        -11    1    5    5    0    0  0.17015732123E+02 -0.28843429448E+03  0.47397589389E+03  0.55510091457E+03  0.00000000000E+00 0.  1.
          1    1    6    6  503    0  0.30065894144E+03  0.17063582804E+03  0.16012087288E+03  0.38098697984E+03  0.00000000000E+00 0. -1.
         -1    1    6    6    0  503  0.34281348319E+02  0.44726878314E+02 -0.35528039111E+01  0.56465271645E+02  0.00000000000E+00 0.  1.
<mgrwt>
<rscale>  0 0.16823733E+04</rscale>
<asrwt>0</asrwt>
<pdfrwt beam="1">  1        2 0.47369958E+00 0.16823733E+04</pdfrwt>
<pdfrwt beam="2">  1       -1 0.35355339E-01 0.16823733E+04</pdfrwt>
<totfact> 0.12904013E+01</totfact>
</mgrwt>
</event>
<event>
12    6  0.1402540E-007  0.2100139E+04  0.7818608E-02  0.8561182E-01
         -1   -1    0    0    0  501 -0.00000000000E+00  0.00000000000E+00  0.12772886379E+04  0.12772886379E+04  0.00000000000E+00 0.  1.
          2   -1    0    0  501    0  0.00000000000E+00 -0.00000000000E+00 -0.86327074967E+03  0.86327074967E+03  0.00000000000E+00 0. -1.
         24    2    1    2    0    0 -0.49066510049E+03 -0.67218615803E+03  0.36037800390E+03  0.91038674988E+03  0.79657120040E+02 0.  0.
        254    2    1    2    0    0  0.49066510049E+03  0.67218615803E+03  0.53639884351E+02  0.12301726377E+04  0.90435668267E+03 0.  0.
         23    2    4    4    0    0  0.36311473965E+03 -0.94146582888E+02  0.19978659797E+03  0.43463293942E+03  0.90968203681E+02 0.  0.
         23    2    4    4    0    0  0.12755036085E+03  0.76633274092E+03 -0.14614671362E+03  0.79553969829E+03  0.89384480221E+02 0.  0.
          4    1    3    3  502    0 -0.40745381179E+03 -0.60307694396E+03  0.31094355983E+03  0.79145834159E+03  0.00000000000E+00 0. -1.
         -3    1    3    3    0  502 -0.83211288708E+02 -0.69109214075E+02  0.49434444078E+02  0.11892840830E+03  0.00000000000E+00 0.  1.
         11    1    5    5    0    0  0.13829630488E+02  0.73736108554E+01  0.28624742144E+02  0.32634409437E+02  0.00000000000E+00 0. -1.
        -11    1    5    5    0    0  0.34928510916E+03 -0.10152019374E+03  0.17116185583E+03  0.40199852998E+03  0.00000000000E+00 0.  1.
          4    1    6    6  503    0  0.18770843531E+02  0.31363301796E+03 -0.29579567752E+02  0.31558353149E+03  0.00000000000E+00 0.  1.
         -4    1    6    6    0  503  0.10877951732E+03  0.45269972296E+03 -0.11656714587E+03  0.47995616680E+03  0.00000000000E+00 0. -1.
<mgrwt>
<rscale>  0 0.21001390E+04</rscale>
<asrwt>0</asrwt>
<pdfrwt beam="1">  1        2 0.13281088E+00 0.21001390E+04</pdfrwt>
<pdfrwt beam="2">  1       -1 0.19650595E+00 0.21001390E+04</pdfrwt>
<totfact> 0.51982001E+00</totfact>
</mgrwt>
</event>
<event>
12    6  0.1402540E-007  0.2160315E+04  0.7818608E-02  0.8535130E-01
          2   -1    0    0  501    0  0.00000000000E+00  0.00000000000E+00  0.15633878628E+04  0.15633878628E+04  0.00000000000E+00 0. -1.
         -1   -1    0    0    0  501 -0.00000000000E+00 -0.00000000000E+00 -0.74628957623E+03  0.74628957623E+03  0.00000000000E+00 0.  1.
         24    2    1    2    0    0  0.34088008494E+03  0.26825982877E+03  0.11684471574E+04  0.12488345796E+04  0.78463237871E+02 0.  0.
        254    2    1    2    0    0 -0.34088008494E+03 -0.26825982877E+03 -0.35134887074E+03  0.10608428594E+04  0.90209698781E+03 0.  0.
         23    2    4    4    0    0 -0.49049372554E+03 -0.70340680538E+02 -0.53720652470E+03  0.73675999695E+03  0.93233774916E+02 0.  0.
         23    2    4    4    0    0  0.14961364060E+03 -0.19791914823E+03  0.18585765396E+03  0.32408286250E+03  0.94500812372E+02 0.  0.
          2    1    3    3  502    0  0.18489097328E+03  0.12066593261E+03  0.68852709826E+03  0.72305912920E+03  0.00000000000E+00 0. -1.
         -1    1    3    3    0  502  0.15598911167E+03  0.14759389616E+03  0.47992005910E+03  0.52577545043E+03  0.00000000000E+00 0.  1.
         11    1    5    5    0    0 -0.28888749407E+03  0.18973041797E+01 -0.28367465047E+03  0.40488379976E+03  0.00000000000E+00 0.  1.
        -11    1    5    5    0    0 -0.20160623147E+03 -0.72237984717E+02 -0.25353187424E+03  0.33187619718E+03  0.00000000000E+00 0. -1.
          2    1    6    6  503    0  0.11945461241E+03 -0.12570287493E+03  0.17267641135E+03  0.24471975855E+03  0.00000000000E+00 0. -1.
         -2    1    6    6    0  503  0.30159028189E+02 -0.72216273300E+02  0.13181242617E+02  0.79363103944E+02  0.00000000000E+00 0.  1.
<mgrwt>
<rscale>  0 0.21603149E+04</rscale>
<asrwt>0</asrwt>
<pdfrwt beam="1">  1        2 0.24052121E+00 0.21603149E+04</pdfrwt>
<pdfrwt beam="2">  1       -1 0.11481378E+00 0.21603149E+04</pdfrwt>
<totfact> 0.84158682E+00</totfact>
</mgrwt>
</event>
<event>
12    6  0.1402540E-007  0.1253262E+04  0.7818608E-02  0.9067473E-01
         -1   -1    0    0    0  501 -0.00000000000E+00  0.00000000000E+00  0.15032197069E+03  0.15032197069E+03  0.00000000000E+00 0.  1.
          2   -1    0    0  501    0  0.00000000000E+00 -0.00000000000E+00 -0.26121695363E+04  0.26121695363E+04  0.00000000000E+00 0. -1.
         24    2    1    2    0    0 -0.16434868600E+03 -0.52171658115E+02 -0.11360946765E+04  0.11510159738E+04  0.66289406571E+02 0.  0.
        254    2    1    2    0    0  0.16434868600E+03  0.52171658115E+02 -0.13257528891E+04  0.16114755332E+04  0.89972234530E+03 0.  0.
         23    2    4    4    0    0 -0.29359089894E+03 -0.20513468998E+02 -0.97663377606E+03  0.10243991173E+04  0.94676293898E+02 0.  0.
         23    2    4    4    0    0  0.45793958495E+03  0.72685127113E+02 -0.34911911301E+03  0.58707641588E+03  0.88220019514E+02 0.  0.
          2    1    3    3  502    0 -0.42232239746E+02 -0.15969322104E+02 -0.51622444603E+03  0.51819519488E+03  0.00000000000E+00 0. -1.
         -1    1    3    3    0  502 -0.12211644626E+03 -0.36202336011E+02 -0.61987023048E+03  0.63282077891E+03  0.00000000000E+00 0.  1.
         11    1    5    5    0    0 -0.23245611220E+03 -0.54610321587E+02 -0.77571940356E+03  0.81163952860E+03  0.00000000000E+00 0. -1.
        -11    1    5    5    0    0 -0.61134786742E+02  0.34096852589E+02 -0.20091437250E+03  0.21275958870E+03  0.00000000000E+00 0.  1.
          1    1    6    6  503    0  0.23979515057E+03  0.25466800445E+02 -0.12849210324E+03  0.27324072309E+03  0.00000000000E+00 0. -1.
         -1    1    6    6    0  503  0.21814443438E+03  0.47218326668E+02 -0.22062700978E+03  0.31383569279E+03  0.00000000000E+00 0.  1.
<mgrwt>
<rscale>  0 0.12532621E+04</rscale>
<asrwt>0</asrwt>
<pdfrwt beam="1">  1        2 0.40187221E+00 0.12532621E+04</pdfrwt>
<pdfrwt beam="2">  1       -1 0.23126458E-01 0.12532621E+04</pdfrwt>
<totfact> 0.54019686E+01</totfact>
</mgrwt>
</event>
<event>
12    6  0.1402540E-007  0.2191195E+04  0.7818608E-02  0.8522102E-01
          2   -1    0    0  501    0  0.00000000000E+00  0.00000000000E+00  0.11566074740E+04  0.11566074740E+04  0.00000000000E+00 0. -1.
         -1   -1    0    0    0  501 -0.00000000000E+00 -0.00000000000E+00 -0.10378057389E+04  0.10378057389E+04  0.00000000000E+00 0.  1.
         24    2    1    2    0    0  0.11363306330E+03  0.77035601530E+03 -0.41883112788E+03  0.88745265466E+03  0.76104120820E+02 0.  0.
        254    2    1    2    0    0 -0.11363306330E+03 -0.77035601530E+03  0.53763286301E+03  0.13069605583E+04  0.90151868653E+03 0.  0.
         23    2    4    4    0    0 -0.30606780353E+03 -0.86613456561E+03  0.29077535598E+03  0.96772898674E+03  0.89902714139E+02 0.  0.
         23    2    4    4    0    0  0.19243474023E+03  0.95778550318E+02  0.24685750703E+03  0.33923157156E+03  0.89077328293E+02 0.  0.
          4    1    3    3  502    0  0.65757106992E+02  0.27146781717E+03 -0.12051483079E+03  0.30420814801E+03  0.00000000000E+00 0. -1.
         -3    1    3    3    0  502  0.47875956303E+02  0.49888819813E+03 -0.29831629709E+03  0.58324450665E+03  0.00000000000E+00 0.  1.
         11    1    5    5    0    0 -0.54239624466E+02 -0.24537705502E+03  0.52536595579E+02  0.25673318809E+03  0.00000000000E+00 0. -1.
        -11    1    5    5    0    0 -0.25182817906E+03 -0.62075751060E+03  0.23823876041E+03  0.71099579865E+03  0.00000000000E+00 0.  1.
          1    1    6    6  503    0  0.24227773047E+02 -0.15531384320E+02  0.48130236567E+02  0.56077879397E+02  0.00000000000E+00 0.  1.
         -1    1    6    6    0  503  0.16820696719E+03  0.11130993464E+03  0.19872727046E+03  0.28315369216E+03  0.00000000000E+00 0. -1.
<mgrwt>
<rscale>  0 0.21911950E+04</rscale>
<asrwt>0</asrwt>
<pdfrwt beam="1">  1        2 0.17793961E+00 0.21911950E+04</pdfrwt>
<pdfrwt beam="2">  1       -1 0.15966242E+00 0.21911950E+04</pdfrwt>
<totfact> 0.61671312E+00</totfact>
</mgrwt>
</event>
<event>
12    6  0.1402540E-007  0.1368395E+04  0.7818608E-02  0.8977019E-01
          2   -1    0    0  501    0  0.00000000000E+00  0.00000000000E+00  0.81651931066E+03  0.81651931066E+03  0.00000000000E+00 0. -1.
         -1   -1    0    0    0  501 -0.00000000000E+00 -0.00000000000E+00 -0.57331892827E+03  0.57331892827E+03  0.00000000000E+00 0.  1.
         24    2    1    2    0    0  0.22270995675E+03  0.30131148507E+03  0.14410501234E+03  0.40866472004E+03  0.76500084663E+02 0.  0.
        254    2    1    2    0    0 -0.22270995675E+03 -0.30131148507E+03  0.99095370055E+02  0.98117351889E+03  0.90138407238E+03 0.  0.
         23    2    4    4    0    0  0.32073668995E+03 -0.26165667094E+03  0.38472488144E+02  0.42535771734E+03  0.90071180927E+02 0.  0.
         23    2    4    4    0    0 -0.54344664670E+03 -0.39654814136E+02  0.60622881912E+02  0.55581580155E+03  0.91374555279E+02 0.  0.
          4    1    3    3  502    0  0.41174900374E+02  0.49356169944E+02  0.57576409335E+02  0.86292797175E+02  0.00000000000E+00 0. -1.
         -3    1    3    3    0  502  0.18153505637E+03  0.25195531513E+03  0.86528603003E+02  0.32237192287E+03  0.00000000000E+00 0.  1.
         11    1    5    5    0    0  0.83449335694E+02 -0.11344218111E+03 -0.10944784225E+02  0.14125405617E+03  0.00000000000E+00 0. -1.
        -11    1    5    5    0    0  0.23728735426E+03 -0.14821448983E+03  0.49417272369E+02  0.28410366118E+03  0.00000000000E+00 0.  1.
          2    1    6    6  503    0 -0.12139147706E+02  0.10858734215E+02  0.11331183557E+02  0.19841036681E+02  0.00000000000E+00 0. -1.
         -2    1    6    6    0  503 -0.53130749899E+03 -0.50513548350E+02  0.49291698354E+02  0.53597476487E+03  0.00000000000E+00 0.  1.
<mgrwt>
<rscale>  0 0.13683946E+04</rscale>
<asrwt>0</asrwt>
<pdfrwt beam="1">  1        2 0.12561836E+00 0.13683946E+04</pdfrwt>
<pdfrwt beam="2">  1       -1 0.88202912E-01 0.13683946E+04</pdfrwt>
<totfact> 0.47156658E+01</totfact>
</mgrwt>
</event>
<event>
12    6  0.1402540E-007  0.3681277E+04  0.7818608E-02  0.8072124E-01
         -1   -1    0    0    0  501 -0.00000000000E+00  0.00000000000E+00  0.25167959140E+04  0.25167959140E+04  0.00000000000E+00 0.  1.
          2   -1    0    0  501    0  0.00000000000E+00 -0.00000000000E+00 -0.13461360114E+04  0.13461360114E+04  0.00000000000E+00 0. -1.
         24    2    1    2    0    0  0.73372639071E+03  0.12853437027E+04 -0.38771958169E+03  0.15323186259E+04  0.84917881970E+02 0.  0.
        254    2    1    2    0    0 -0.73372639071E+03 -0.12853437027E+04  0.15583794843E+04  0.23306132995E+04  0.90152586455E+03 0.  0.
         23    2    4    4    0    0 -0.50457818661E+02 -0.15611000706E+03 -0.96078321775E+02  0.21221412941E+03  0.94273363358E+02 0.  0.
         23    2    4    4    0    0 -0.68326857205E+03 -0.11292336956E+04  0.16544578061E+04  0.21183991701E+04  0.91431564761E+02 0.  0.
          4    1    3    3  502    0  0.36781642540E+03  0.59368945951E+03 -0.21817693637E+03  0.73168112774E+03  0.00000000000E+00 0. -1.
         -3    1    3    3    0  502  0.36590996531E+03  0.69165424318E+03 -0.16954264532E+03  0.80063749813E+03  0.00000000000E+00 0.  1.
         11    1    5    5    0    0 -0.39693431353E+02 -0.55955368550E+02 -0.87399995543E+02  0.11110954497E+03  0.00000000000E+00 0. -1.
        -11    1    5    5    0    0 -0.10764387307E+02 -0.10015463851E+03 -0.86783262313E+01  0.10110458444E+03  0.00000000000E+00 0.  1.
          4    1    6    6  503    0 -0.64365967927E+03 -0.10800102986E+04  0.16008205214E+04  0.20355211543E+04  0.00000000000E+00 0. -1.
         -4    1    6    6    0  503 -0.39608892780E+02 -0.49223397067E+02  0.53637284640E+02  0.82878015840E+02  0.00000000000E+00 0.  1.
<mgrwt>
<rscale>  0 0.36812767E+04</rscale>
<asrwt>0</asrwt>
<pdfrwt beam="1">  1        2 0.20709785E+00 0.36812767E+04</pdfrwt>
<pdfrwt beam="2">  1       -1 0.38719937E+00 0.36812767E+04</pdfrwt>
<totfact> 0.12523741E-01</totfact>
</mgrwt>
</event>
<event>
12    6  0.1402540E-007  0.3579776E+04  0.7818608E-02  0.8095140E-01
          2   -1    0    0  501    0  0.00000000000E+00  0.00000000000E+00  0.17975983404E+04  0.17975983404E+04  0.00000000000E+00 0. -1.
         -1   -1    0    0    0  501 -0.00000000000E+00 -0.00000000000E+00 -0.17822104838E+04  0.17822104838E+04  0.00000000000E+00 0.  1.
         24    2    1    2    0    0 -0.32945732838E+03  0.14775554101E+04  0.72388053874E+03  0.16799677883E+04  0.81096327172E+02 0.  0.
        254    2    1    2    0    0  0.32945732838E+03 -0.14775554101E+04 -0.70849268215E+03  0.18998410359E+04  0.90317327238E+03 0.  0.
         23    2    4    4    0    0  0.36493307742E+03 -0.14563779325E+03 -0.30148230201E+03  0.50368851704E+03  0.91782492626E+02 0.  0.
         23    2    4    4    0    0 -0.35475749039E+02 -0.13319176169E+04 -0.40701038013E+03  0.13961525189E+04  0.91221376623E+02 0.  0.
          2    1    3    3  502    0 -0.49781604033E+02  0.22557259135E+03  0.78824086593E+02  0.24407875511E+03  0.00000000000E+00 0. -1.
         -1    1    3    3    0  502 -0.27967572435E+03  0.12519828188E+04  0.64505645215E+03  0.14358890332E+04  0.00000000000E+00 0.  1.
         11    1    5    5    0    0  0.53148004902E+02 -0.53515867612E+00 -0.12758576357E+02  0.54660571626E+02  0.00000000000E+00 0. -1.
        -11    1    5    5    0    0  0.31178507252E+03 -0.14510263457E+03 -0.28872372566E+03  0.44902794542E+03  0.00000000000E+00 0.  1.
          3    1    6    6  503    0 -0.34937729075E+02 -0.11990081303E+04 -0.39418108801E+03  0.12626242005E+04  0.00000000000E+00 0. -1.
         -3    1    6    6    0  503 -0.53801996420E+00 -0.13290948655E+03 -0.12829292126E+02  0.13352831841E+03  0.00000000000E+00 0.  1.
<mgrwt>
<rscale>  0 0.35797758E+04</rscale>
<asrwt>0</asrwt>
<pdfrwt beam="1">  1        2 0.27655359E+00 0.35797758E+04</pdfrwt>
<pdfrwt beam="2">  1       -1 0.27418623E+00 0.35797758E+04</pdfrwt>
<totfact> 0.39027397E-01</totfact>
</mgrwt>
</event>
<event>
12    6  0.1402540E-007  0.4003595E+04  0.7818608E-02  0.8003822E-01
          2   -1    0    0  501    0  0.00000000000E+00  0.00000000000E+00  0.49347354827E+04  0.49347354827E+04  0.00000000000E+00 0. -1.
         -1   -1    0    0    0  501 -0.00000000000E+00 -0.00000000000E+00 -0.81203828537E+03  0.81203828537E+03  0.00000000000E+00 0.  1.
         24    2    1    2    0    0 -0.22134836224E+03 -0.17528792252E+04  0.29592208894E+04  0.34474470998E+04  0.79514516512E+02 0.  0.
        254    2    1    2    0    0  0.22134836224E+03  0.17528792252E+04  0.11634763080E+04  0.22993266683E+04  0.90091360993E+03 0.  0.
         23    2    4    4    0    0  0.25577232642E+03  0.75248102010E+03  0.10008310457E+04  0.12811706399E+04  0.89934742230E+02 0.  0.
         23    2    4    4    0    0 -0.34423964180E+02  0.10003982051E+04  0.16264526225E+03  0.10181560284E+04  0.90590500108E+02 0.  0.
          4    1    3    3  502    0 -0.13968540933E+03 -0.94479209297E+03  0.16654705346E+04  0.19198792186E+04  0.00000000000E+00 0. -1.
         -3    1    3    3    0  502 -0.81662952917E+02 -0.80808713222E+03  0.12937503548E+04  0.15275678812E+04  0.00000000000E+00 0.  1.
         11    1    5    5    0    0  0.23368399060E+02  0.10633825819E+03  0.95035447248E+02  0.14451866130E+03  0.00000000000E+00 0.  1.
        -11    1    5    5    0    0  0.23240392736E+03  0.64614276191E+03  0.90579559847E+03  0.11366519786E+04  0.00000000000E+00 0. -1.
          3    1    6    6  503    0 -0.33232571041E+02  0.88081984925E+03  0.17249708637E+03  0.89816660783E+03  0.00000000000E+00 0. -1.
         -3    1    6    6    0  503 -0.11913931390E+01  0.11957835584E+03 -0.98518241156E+01  0.11998942054E+03  0.00000000000E+00 0.  1.
<mgrwt>
<rscale>  0 0.40035955E+04</rscale>
<asrwt>0</asrwt>
<pdfrwt beam="1">  1        2 0.75919006E+00 0.40035955E+04</pdfrwt>
<pdfrwt beam="2">  1       -1 0.12492897E+00 0.40035955E+04</pdfrwt>
<totfact> 0.20501327E-02</totfact>
</mgrwt>
</event>
<event>
12    6  0.1402540E-007  0.1154947E+04  0.7818608E-02  0.9153232E-01
         -3   -1    0    0    0  501 -0.00000000000E+00  0.00000000000E+00  0.24501402507E+03  0.24501402507E+03  0.00000000000E+00 0.  1.
          2   -1    0    0  501    0  0.00000000000E+00 -0.00000000000E+00 -0.13610469571E+04  0.13610469571E+04  0.00000000000E+00 0. -1.
         24    2    1    2    0    0  0.13974042159E+02  0.23459751177E+02  0.68553727723E+02  0.11856510959E+03  0.92803221113E+02 0.  0.
        254    2    1    2    0    0 -0.13974042159E+02 -0.23459751177E+02 -0.11845866597E+04  0.14874958725E+04  0.89925123446E+03 0.  0.
         23    2    4    4    0    0 -0.36549377385E+03 -0.20141357193E+03 -0.88904698901E+03  0.98642164528E+03  0.92032537383E+02 0.  0.
         23    2    4    4    0    0  0.35151973169E+03  0.17795382076E+03 -0.29553967071E+03  0.50107422726E+03  0.92184598325E+02 0.  0.
          4    1    3    3  502    0  0.64164662437E+01  0.95139819134E+01 -0.22970024855E+02  0.25677011756E+02  0.00000000000E+00 0. -1.
         -3    1    3    3    0  502  0.75575759154E+01  0.13945769263E+02  0.91523752578E+02  0.92888097838E+02  0.00000000000E+00 0.  1.
         11    1    5    5    0    0 -0.89180908706E+01  0.71204994317E+01 -0.10069942209E+02  0.15219644971E+02  0.00000000000E+00 0. -1.
        -11    1    5    5    0    0 -0.35657568298E+03 -0.20853407136E+03 -0.87897704680E+03  0.97120200031E+03  0.00000000000E+00 0.  1.
          3    1    6    6  503    0  0.11448616416E+03  0.65357880137E+02 -0.47907916121E+02  0.14026368991E+03  0.00000000000E+00 0. -1.
         -3    1    6    6    0  503  0.23703356753E+03  0.11259594062E+03 -0.24763175459E+03  0.36081053735E+03  0.00000000000E+00 0.  1.
<mgrwt>
<rscale>  0 0.11549469E+04</rscale>
<asrwt>0</asrwt>
<pdfrwt beam="1">  1        2 0.20939184E+00 0.11549469E+04</pdfrwt>
<pdfrwt beam="2">  1       -3 0.37694466E-01 0.11549469E+04</pdfrwt>
<totfact> 0.67548652E+01</totfact>
</mgrwt>
</event>
<event>
12    6  0.1402540E-007  0.1576639E+04  0.7818608E-02  0.8835029E-01
          2   -1    0    0  501    0  0.00000000000E+00  0.00000000000E+00  0.73912682508E+03  0.73912682508E+03  0.00000000000E+00 0. -1.
         -1   -1    0    0    0  501 -0.00000000000E+00 -0.00000000000E+00 -0.84078631216E+03  0.84078631216E+03  0.00000000000E+00 0.  1.
         24    2    1    2    0    0 -0.17480282021E+03 -0.41453777713E+03  0.24228617195E+03  0.51714525033E+03  0.79618001741E+02 0.  0.
        254    2    1    2    0    0  0.17480282021E+03  0.41453777713E+03 -0.34394565904E+03  0.10627678869E+04  0.89932161680E+03 0.  0.
         23    2    4    4    0    0  0.12141491799E+03  0.25608947202E+03 -0.64283563125E+03  0.70832695500E+03  0.90366068826E+02 0.  0.
         23    2    4    4    0    0  0.53387902227E+02  0.15844830510E+03  0.29888997221E+03  0.35444093190E+03  0.91307311998E+02 0.  0.
          2    1    3    3  502    0 -0.17267802071E+03 -0.41184813983E+03  0.22601905623E+03  0.50052093153E+03  0.00000000000E+00 0. -1.
         -1    1    3    3    0  502 -0.21247995047E+01 -0.26896372968E+01  0.16267115726E+02  0.16624318806E+02  0.00000000000E+00 0.  1.
         11    1    5    5    0    0  0.39175778708E+02  0.11058630525E+03 -0.16779591542E+03  0.20474262326E+03  0.00000000000E+00 0. -1.
        -11    1    5    5    0    0  0.82239139278E+02  0.14550316677E+03 -0.47503971582E+03  0.50358433174E+03  0.00000000000E+00 0.  1.
          3    1    6    6  503    0  0.79349532087E+02  0.12668716942E+03  0.23429917509E+03  0.27792461313E+03  0.00000000000E+00 0. -1.
         -3    1    6    6    0  503 -0.25961629860E+02  0.31761135688E+02  0.64590797119E+02  0.76516318767E+02  0.00000000000E+00 0.  1.
<mgrwt>
<rscale>  0 0.15766391E+04</rscale>
<asrwt>0</asrwt>
<pdfrwt beam="1">  1        2 0.11371182E+00 0.15766391E+04</pdfrwt>
<pdfrwt beam="2">  1       -1 0.12935174E+00 0.15766391E+04</pdfrwt>
<totfact> 0.21535990E+01</totfact>
</mgrwt>
</event>
<event>
12    6  0.1402540E-007  0.2138634E+04  0.7818608E-02  0.8544413E-01
         -1   -1    0    0    0  501 -0.00000000000E+00  0.00000000000E+00  0.51402589514E+03  0.51402589514E+03  0.00000000000E+00 0.  1.
          2   -1    0    0  501    0  0.00000000000E+00 -0.00000000000E+00 -0.22244762259E+04  0.22244762259E+04  0.00000000000E+00 0. -1.
         24    2    1    2    0    0 -0.81793339971E+03 -0.31557419805E+03 -0.76815433319E+03  0.11683430545E+04  0.79763979911E+02 0.  0.
        254    2    1    2    0    0  0.81793339971E+03  0.31557419805E+03 -0.94229599762E+03  0.15701590666E+04  0.89937513114E+03 0.  0.
         23    2    4    4    0    0  0.61073927065E+03 -0.21533430152E+03 -0.65148050620E+03  0.92377740048E+03  0.97808576114E+02 0.  0.
         23    2    4    4    0    0  0.20719412906E+03  0.53090849957E+03 -0.29081549142E+03  0.64638166613E+03  0.91882349954E+02 0.  0.
          2    1    3    3  502    0 -0.17066264193E+03 -0.10116574237E+03 -0.17924762047E+03  0.26737605394E+03  0.00000000000E+00 0. -1.
         -1    1    3    3    0  502 -0.64727075779E+03 -0.21440845568E+03 -0.58890671272E+03  0.90096700053E+03  0.00000000000E+00 0.  1.
         11    1    5    5    0    0  0.15720494911E+02 -0.23621773773E+01  0.31451336046E+00  0.15900086819E+02  0.00000000000E+00 0. -1.
        -11    1    5    5    0    0  0.59501877574E+03 -0.21297212414E+03 -0.65179501956E+03  0.90787731366E+03  0.00000000000E+00 0.  1.
          1    1    6    6  503    0  0.87444119220E+02  0.33365880837E+03 -0.15063205823E+03  0.37638370230E+03  0.00000000000E+00 0.  1.
         -1    1    6    6    0  503  0.11975000984E+03  0.19724969120E+03 -0.14018343319E+03  0.26999796384E+03  0.00000000000E+00 0. -1.
<mgrwt>
<rscale>  0 0.21386336E+04</rscale>
<asrwt>0</asrwt>
<pdfrwt beam="1">  1        2 0.34222712E+00 0.21386336E+04</pdfrwt>
<pdfrwt beam="2">  1       -1 0.79080906E-01 0.21386336E+04</pdfrwt>
<totfact> 0.83618479E+00</totfact>
</mgrwt>
</event>
<event>
12    6  0.1402540E-007  0.3209966E+04  0.7818608E-02  0.8186190E-01
          2   -1    0    0  501    0  0.00000000000E+00  0.00000000000E+00  0.27251751225E+04  0.27251751225E+04  0.00000000000E+00 0. -1.
         -1   -1    0    0    0  501 -0.00000000000E+00 -0.00000000000E+00 -0.94524969629E+03  0.94524969629E+03  0.00000000000E+00 0.  1.
         24    2    1    2    0    0 -0.97481727846E+03 -0.85467894344E+03  0.59588110942E+01  0.12988928384E+04  0.79638404897E+02 0.  0.
        254    2    1    2    0    0  0.97481727846E+03  0.85467894344E+03  0.17739666151E+04  0.23715319804E+04  0.89244695057E+03 0.  0.
         23    2    4    4    0    0  0.93629985630E+02 -0.45581052237E+02  0.69757591467E+03  0.71176923470E+03  0.95703083568E+02 0.  0.
         23    2    4    4    0    0  0.88118729283E+03  0.90025999567E+03  0.10763907005E+04  0.16597627457E+04  0.96105811614E+02 0.  0.
          4    1    3    3  502    0 -0.35072553692E+03 -0.26134696641E+03 -0.12548446956E+02  0.43757068300E+03  0.00000000000E+00 0. -1.
         -3    1    3    3    0  502 -0.62409174155E+03 -0.59333197703E+03  0.18507258050E+02  0.86132215543E+03  0.00000000000E+00 0.  1.
         11    1    5    5    0    0  0.79892979016E+02 -0.40988021030E+02  0.68922534489E+03  0.69504998525E+03  0.00000000000E+00 0.  1.
        -11    1    5    5    0    0  0.13737006614E+02 -0.45930312065E+01  0.83505697830E+01  0.16719249447E+02  0.00000000000E+00 0. -1.
          3    1    6    6  503    0  0.51319892570E+03  0.58984234436E+03  0.67763320728E+03  0.10346370823E+04  0.00000000000E+00 0. -1.
         -3    1    6    6    0  503  0.36798836713E+03  0.31041765131E+03  0.39875749317E+03  0.62512566333E+03  0.00000000000E+00 0.  1.
<mgrwt>
<rscale>  0 0.32099663E+04</rscale>
<asrwt>0</asrwt>
<pdfrwt beam="1">  1        2 0.41925771E+00 0.32099663E+04</pdfrwt>
<pdfrwt beam="2">  1       -1 0.14542303E+00 0.32099663E+04</pdfrwt>
<totfact> 0.92926670E-01</totfact>
</mgrwt>
</event>
<event>
12    6  0.1402540E-007  0.2503450E+04  0.7818608E-02  0.8401757E-01
          2   -1    0    0  501    0  0.00000000000E+00  0.00000000000E+00  0.12901234989E+04  0.12901234989E+04  0.00000000000E+00 0. -1.
         -1   -1    0    0    0  501 -0.00000000000E+00 -0.00000000000E+00 -0.12144694670E+04  0.12144694670E+04  0.00000000000E+00 0.  1.
         24    2    1    2    0    0 -0.92450676961E+03  0.31690353040E+02  0.60673810592E+03  0.11092457069E+04  0.81104029502E+02 0.  0.
        254    2    1    2    0    0  0.92450676961E+03 -0.31690353040E+02 -0.53108407405E+03  0.13953472590E+04  0.89957024966E+03 0.  0.
         23    2    4    4    0    0 -0.47909799628E+02 -0.16526741369E+03  0.10551685882E+03  0.22175989887E+03  0.91842138059E+02 0.  0.
         23    2    4    4    0    0  0.97241656924E+03  0.13357706065E+03 -0.63660093287E+03  0.11735873602E+04  0.92788625166E+02 0.  0.
          2    1    3    3  502    0 -0.91247502330E+03  0.23663637401E+02  0.60399893918E+03  0.10945251730E+04  0.00000000000E+00 0. -1.
         -1    1    3    3    0  502 -0.12031746318E+02  0.80267156388E+01  0.27391667415E+01  0.14720533884E+02  0.00000000000E+00 0.  1.
         11    1    5    5    0    0 -0.19874206795E+02 -0.15616824240E+03  0.61991973009E+02  0.16919370186E+03  0.00000000000E+00 0.  1.
        -11    1    5    5    0    0 -0.28035592833E+02 -0.90991712902E+01  0.43524885811E+02  0.52566197013E+02  0.00000000000E+00 0. -1.
          1    1    6    6  503    0  0.33958108399E+03  0.11775734741E+02 -0.18746077862E+03  0.38806639130E+03  0.00000000000E+00 0. -1.
         -1    1    6    6    0  503  0.63283548525E+03  0.12180132591E+03 -0.44914015424E+03  0.78552096887E+03  0.00000000000E+00 0.  1.
<mgrwt>
<rscale>  0 0.25034501E+04</rscale>
<asrwt>0</asrwt>
<pdfrwt beam="1">  1        2 0.19848054E+00 0.25034501E+04</pdfrwt>
<pdfrwt beam="2">  1       -1 0.18684146E+00 0.25034501E+04</pdfrwt>
<totfact> 0.31658516E+00</totfact>
</mgrwt>
</event>
<event>
12    6  0.1402540E-007  0.1690378E+04  0.7818608E-02  0.8766871E-01
          2   -1    0    0  501    0  0.00000000000E+00  0.00000000000E+00  0.19958811748E+04  0.19958811748E+04  0.00000000000E+00 0. -1.
         -1   -1    0    0    0  501 -0.00000000000E+00 -0.00000000000E+00 -0.35790924031E+03  0.35790924031E+03  0.00000000000E+00 0.  1.
         24    2    1    2    0    0 -0.54835207827E+03 -0.25251922628E+03  0.57576510767E+03  0.83799388960E+03  0.79198095964E+02 0.  0.
        254    2    1    2    0    0  0.54835207827E+03  0.25251922628E+03  0.10622068268E+04  0.15157965255E+04  0.89716208257E+03 0.  0.
         23    2    4    4    0    0  0.26842738489E+03  0.19436563874E+03  0.11523969119E+04  0.12024421014E+04  0.89538271998E+02 0.  0.
         23    2    4    4    0    0  0.27992469338E+03  0.58153587542E+02 -0.90190085132E+02  0.31335442407E+03  0.91197971046E+02 0.  0.
          2    1    3    3  502    0 -0.23444888664E+03 -0.67683434332E+02  0.24887747761E+03  0.34855032146E+03  0.00000000000E+00 0. -1.
         -3    1    3    3    0  502 -0.31390319163E+03 -0.18483579195E+03  0.32688763006E+03  0.48944356814E+03  0.00000000000E+00 0.  1.
         11    1    5    5    0    0  0.50848791030E+02  0.91725202304E+01  0.27128917383E+03  0.27616580258E+03  0.00000000000E+00 0. -1.
        -11    1    5    5    0    0  0.21757859386E+03  0.18519311851E+03  0.88110773808E+03  0.92627629882E+03  0.00000000000E+00 0.  1.
          2    1    6    6  503    0  0.25054833344E+03  0.78680406653E+02 -0.68255562862E+02  0.27133723600E+03  0.00000000000E+00 0. -1.
         -2    1    6    6    0  503  0.29376359941E+02 -0.20526819111E+02 -0.21934522271E+02  0.42017188071E+02  0.00000000000E+00 0.  1.
<mgrwt>
<rscale>  0 0.16903778E+04</rscale>
<asrwt>0</asrwt>
<pdfrwt beam="1">  1        2 0.30705864E+00 0.16903778E+04</pdfrwt>
<pdfrwt beam="2">  1       -1 0.55062961E-01 0.16903778E+04</pdfrwt>
<totfact> 0.24287741E+01</totfact>
</mgrwt>
</event>
<event>
12    6  0.1402540E-007  0.2323036E+04  0.7818608E-02  0.8468894E-01
         -1   -1    0    0    0  501 -0.00000000000E+00  0.00000000000E+00  0.83957247856E+03  0.83957247856E+03  0.00000000000E+00 0.  1.
          2   -1    0    0  501    0  0.00000000000E+00 -0.00000000000E+00 -0.16069172910E+04  0.16069172910E+04  0.00000000000E+00 0. -1.
         24    2    1    2    0    0 -0.38821163691E+03 -0.10886061246E+01  0.62778667879E+03  0.74262037585E+03  0.81605443867E+02 0.  0.
        254    2    1    2    0    0  0.38821163691E+03  0.10886061246E+01 -0.13951314912E+04  0.17038693937E+04  0.89781377408E+03 0.  0.
         23    2    4    4    0    0  0.54157533249E+03 -0.23283274059E+03 -0.12293084996E+04  0.13661424489E+04  0.87354895351E+02 0.  0.
         23    2    4    4    0    0 -0.15336369558E+03  0.23392134671E+03 -0.16582299170E+03  0.33772694484E+03  0.91228313186E+02 0.  0.
          4    1    3    3  502    0 -0.82484689115E+02 -0.23736511082E+02  0.95822005382E+02  0.12864292679E+03  0.00000000000E+00 0. -1.
         -3    1    3    3    0  502 -0.30572694779E+03  0.22647904957E+02  0.53196467341E+03  0.61397744906E+03  0.00000000000E+00 0.  1.
         11    1    5    5    0    0  0.33477799089E+03 -0.12727102359E+03 -0.83471450133E+03  0.90830750044E+03  0.00000000000E+00 0.  1.
        -11    1    5    5    0    0  0.20679734160E+03 -0.10556171700E+03 -0.39459399822E+03  0.45783494845E+03  0.00000000000E+00 0. -1.
          1    1    6    6  503    0 -0.70161287220E+02  0.11331851826E+03 -0.13152017562E+03  0.18724649369E+03  0.00000000000E+00 0. -1.
         -1    1    6    6    0  503 -0.83202408361E+02  0.12060282845E+03 -0.34302816079E+02  0.15048045115E+03  0.00000000000E+00 0.  1.
<mgrwt>
<rscale>  0 0.23230355E+04</rscale>
<asrwt>0</asrwt>
<pdfrwt beam="1">  1        2 0.24721804E+00 0.23230355E+04</pdfrwt>
<pdfrwt beam="2">  1       -1 0.12916500E+00 0.23230355E+04</pdfrwt>
<totfact> 0.58717376E+00</totfact>
</mgrwt>
</event>
<event>
12    6  0.1402540E-007  0.1961833E+04  0.7818608E-02  0.8624676E-01
          2   -1    0    0  501    0  0.00000000000E+00  0.00000000000E+00  0.10578156801E+04  0.10578156801E+04  0.00000000000E+00 0. -1.
         -1   -1    0    0    0  501 -0.00000000000E+00 -0.00000000000E+00 -0.90960739624E+03  0.90960739624E+03  0.00000000000E+00 0.  1.
         24    2    1    2    0    0 -0.47396971875E+03 -0.45420320878E+03 -0.36273093988E+03  0.75445337118E+03  0.81720899255E+02 0.  0.
        254    2    1    2    0    0  0.47396971875E+03  0.45420320878E+03  0.51093922378E+03  0.12129697052E+04  0.88277333794E+03 0.  0.
         23    2    4    4    0    0  0.11890905153E+03  0.65257672633E+03  0.40520159752E+03  0.78330331724E+03  0.96850430479E+02 0.  0.
         23    2    4    4    0    0  0.35506066723E+03 -0.19837351755E+03  0.10573762627E+03  0.42966638797E+03  0.89513292078E+02 0.  0.
          4    1    3    3  502    0 -0.33291188903E+03 -0.36692959271E+03 -0.27998817249E+03  0.56908789181E+03  0.00000000000E+00 0. -1.
         -3    1    3    3    0  502 -0.14105782972E+03 -0.87273616066E+02 -0.82742767389E+02  0.18536547937E+03  0.00000000000E+00 0.  1.
         11    1    5    5    0    0  0.63807163734E+02  0.54105501949E+03  0.31151343928E+03  0.62757669740E+03  0.00000000000E+00 0. -1.
        -11    1    5    5    0    0  0.55101887791E+02  0.11152170684E+03  0.93688158232E+02  0.15572661984E+03  0.00000000000E+00 0.  1.
          1    1    6    6  503    0  0.26423234525E+03 -0.12029577937E+03  0.10828840658E+03  0.30986478633E+03  0.00000000000E+00 0. -1.
         -1    1    6    6    0  503  0.90828321981E+02 -0.78077738183E+02 -0.25507803096E+01  0.11980160163E+03  0.00000000000E+00 0.  1.
<mgrwt>
<rscale>  0 0.19618328E+04</rscale>
<asrwt>0</asrwt>
<pdfrwt beam="1">  1        2 0.16274087E+00 0.19618328E+04</pdfrwt>
<pdfrwt beam="2">  1       -1 0.13993960E+00 0.19618328E+04</pdfrwt>
<totfact> 0.10324490E+01</totfact>
</mgrwt>
</event>
<event>
12    6  0.1402540E-007  0.1824834E+04  0.7818608E-02  0.8693204E-01
         -1   -1    0    0    0  501 -0.00000000000E+00  0.00000000000E+00  0.54211017643E+03  0.54211017643E+03  0.00000000000E+00 0.  1.
          2   -1    0    0  501    0  0.00000000000E+00 -0.00000000000E+00 -0.15356740264E+04  0.15356740264E+04  0.00000000000E+00 0. -1.
         24    2    1    2    0    0  0.15381652178E+03 -0.45606717814E+03  0.18317652006E+03  0.52104999245E+03  0.79263256200E+02 0.  0.
        254    2    1    2    0    0 -0.15381652178E+03  0.45606717814E+03 -0.11767403700E+04  0.15567342103E+04  0.89835778503E+03 0.  0.
         23    2    4    4    0    0  0.28766204133E+03  0.44654163863E+03 -0.82374640655E+03  0.98445014228E+03  0.91842557017E+02 0.  0.
         23    2    4    4    0    0 -0.44147856311E+03  0.95255395068E+01 -0.35299396343E+03  0.57228406805E+03  0.88939635383E+02 0.  0.
          2    1    3    3  502    0  0.93720570924E+02 -0.18653229552E+03  0.10702529848E+03  0.23458955049E+03  0.00000000000E+00 0. -1.
         -3    1    3    3    0  502  0.60095950851E+02 -0.26953488263E+03  0.76151221587E+02  0.28646044196E+03  0.00000000000E+00 0.  1.
         11    1    5    5    0    0  0.77455389816E+01 -0.13639812614E+01 -0.29553645644E+01  0.84016664244E+01  0.00000000000E+00 0.  1.
        -11    1    5    5    0    0  0.27991650235E+03  0.44790561990E+03 -0.82079104199E+03  0.97604847586E+03  0.00000000000E+00 0. -1.
          4    1    6    6  503    0 -0.42420897824E+03  0.88740706347E+01 -0.35703935286E+03  0.55453503571E+03  0.00000000000E+00 0. -1.
         -4    1    6    6    0  503 -0.17269584870E+02  0.65146887209E+00  0.40453894275E+01  0.17749032337E+02  0.00000000000E+00 0.  1.
<mgrwt>
<rscale>  0 0.18248337E+04</rscale>
<asrwt>0</asrwt>
<pdfrwt beam="1">  1        2 0.23625754E+00 0.18248337E+04</pdfrwt>
<pdfrwt beam="2">  1       -1 0.83401568E-01 0.18248337E+04</pdfrwt>
<totfact> 0.18559223E+01</totfact>
</mgrwt>
</event>
<event>
12    6  0.1402540E-007  0.1538022E+04  0.7818608E-02  0.8859555E-01
         -1   -1    0    0    0  501 -0.00000000000E+00  0.00000000000E+00  0.13821709412E+03  0.13821709412E+03  0.00000000000E+00 0.  1.
          2   -1    0    0  501    0  0.00000000000E+00 -0.00000000000E+00 -0.42786140721E+04  0.42786140721E+04  0.00000000000E+00 0. -1.
         24    2    1    2    0    0  0.50159958592E+03  0.23225698169E+02 -0.13023174184E+04  0.13972406035E+04  0.64102014016E+02 0.  0.
        254    2    1    2    0    0 -0.50159958592E+03 -0.23225698169E+02 -0.28380795596E+04  0.30195905628E+04  0.90060535319E+03 0.  0.
         23    2    4    4    0    0 -0.67271629624E+03  0.22321117504E+03 -0.18537013567E+04  0.19866089827E+04  0.89644221702E+02 0.  0.
         23    2    4    4    0    0  0.17111671032E+03 -0.24643687321E+03 -0.98437820294E+03  0.10329815800E+04  0.89657332383E+02 0.  0.
          4    1    3    3  502    0  0.22820042401E+03  0.21199939445E+01 -0.67739368295E+03  0.71480216115E+03  0.00000000000E+00 0. -1.
         -3    1    3    3    0  502  0.27339916191E+03  0.21105704224E+02 -0.62492373541E+03  0.68243844232E+03  0.00000000000E+00 0.  1.
         11    1    5    5    0    0 -0.61301937192E+03  0.20280363760E+03 -0.16045958064E+04  0.17296386235E+04  0.00000000000E+00 0.  1.
        -11    1    5    5    0    0 -0.59696924322E+02  0.20407537448E+02 -0.24910555027E+03  0.25697035925E+03  0.00000000000E+00 0. -1.
          2    1    6    6  503    0  0.66416096454E+02 -0.32073245306E+02 -0.20225940050E+03  0.21528738009E+03  0.00000000000E+00 0. -1.
         -2    1    6    6    0  503  0.10470061387E+03 -0.21436362791E+03 -0.78211880244E+03  0.81769419995E+03  0.00000000000E+00 0.  1.
<mgrwt>
<rscale>  0 0.15380216E+04</rscale>
<asrwt>0</asrwt>
<pdfrwt beam="1">  1        2 0.65824824E+00 0.15380216E+04</pdfrwt>
<pdfrwt beam="2">  1       -1 0.21264171E-01 0.15380216E+04</pdfrwt>
<totfact> 0.41281224E+00</totfact>
</mgrwt>
</event>
<event>
12    6  0.1402540E-007  0.1795340E+04  0.7818608E-02  0.8708782E-01
         -1   -1    0    0    0  501 -0.00000000000E+00  0.00000000000E+00  0.64316313822E+03  0.64316313822E+03  0.00000000000E+00 0.  1.
          2   -1    0    0  501    0  0.00000000000E+00 -0.00000000000E+00 -0.12528875527E+04  0.12528875527E+04  0.00000000000E+00 0. -1.
         24    2    1    2    0    0  0.30586423343E+02  0.63451477572E+03 -0.78602774977E+01  0.64019345194E+03  0.79002164789E+02 0.  0.
        254    2    1    2    0    0 -0.30586423343E+02 -0.63451477572E+03 -0.60186413700E+03  0.12558572390E+04  0.90077324306E+03 0.  0.
         23    2    4    4    0    0  0.39676887404E+03 -0.36437153655E+03 -0.48190488326E+03  0.72850938036E+03  0.91112264298E+02 0.  0.
         23    2    4    4    0    0 -0.42735529738E+03 -0.27014323917E+03 -0.11995925373E+03  0.52734785863E+03  0.89975672120E+02 0.  0.
          2    1    3    3  502    0  0.25039243052E+02  0.16362709918E+03  0.28108748856E+02  0.16790143847E+03  0.00000000000E+00 0. -1.
         -1    1    3    3    0  502  0.55471802902E+01  0.47088767654E+03 -0.35969026354E+02  0.47229201347E+03  0.00000000000E+00 0.  1.
         11    1    5    5    0    0  0.59872885432E+02 -0.17650967241E+02 -0.45654155165E+02  0.77334474449E+02  0.00000000000E+00 0.  1.
        -11    1    5    5    0    0  0.33689598861E+03 -0.34672056931E+03 -0.43625072810E+03  0.65117490591E+03  0.00000000000E+00 0. -1.
          2    1    6    6  503    0 -0.84792346873E+01 -0.28659445935E+02 -0.98548748791E+01  0.31470300619E+02  0.00000000000E+00 0.  1.
         -2    1    6    6    0  503 -0.41887606270E+03 -0.24148379323E+03 -0.11010437885E+03  0.49587755801E+03  0.00000000000E+00 0. -1.
<mgrwt>
<rscale>  0 0.17953396E+04</rscale>
<asrwt>0</asrwt>
<pdfrwt beam="1">  1        2 0.19275193E+00 0.17953396E+04</pdfrwt>
<pdfrwt beam="2">  1       -1 0.98948176E-01 0.17953396E+04</pdfrwt>
<totfact> 0.18524980E+01</totfact>
</mgrwt>
</event>
<event>
12    6  0.1402540E-007  0.5849095E+04  0.7818608E-02  0.7709399E-01
          2   -1    0    0  501    0  0.00000000000E+00  0.00000000000E+00  0.28896506789E+04  0.28896506789E+04  0.00000000000E+00 0. -1.
         -1   -1    0    0    0  501 -0.00000000000E+00 -0.00000000000E+00 -0.29598656754E+04  0.29598656754E+04  0.00000000000E+00 0.  1.
         24    2    1    2    0    0 -0.39900153113E+03 -0.27116284439E+04  0.76357188264E+03  0.28463377145E+04  0.80407247927E+02 0.  0.
        254    2    1    2    0    0  0.39900153113E+03  0.27116284439E+04 -0.83378687915E+03  0.30031786398E+04  0.90097188810E+03 0.  0.
         23    2    4    4    0    0  0.64395811810E+03  0.23423375318E+04 -0.66288249736E+03  0.25197566277E+04  0.92374709586E+02 0.  0.
         23    2    4    4    0    0 -0.24495658697E+03  0.36929091206E+03 -0.17090438178E+03  0.48342201204E+03  0.90050134798E+02 0.  0.
          4    1    3    3  502    0 -0.21004273762E+03 -0.13020444462E+04  0.33025698823E+03  0.13595982384E+04  0.00000000000E+00 0. -1.
         -3    1    3    3    0  502 -0.18895879351E+03 -0.14095839977E+04  0.43331489441E+03  0.14867394761E+04  0.00000000000E+00 0.  1.
         11    1    5    5    0    0  0.18200621312E+03  0.67057769482E+03 -0.14659682391E+03  0.71013473031E+03  0.00000000000E+00 0.  1.
        -11    1    5    5    0    0  0.46195190498E+03  0.16717598370E+04 -0.51628567346E+03  0.18096218974E+04  0.00000000000E+00 0. -1.
          2    1    6    6  503    0 -0.97606011843E+02  0.21398853728E+03 -0.11683160233E+03  0.26261692813E+03  0.00000000000E+00 0.  1.
         -2    1    6    6    0  503 -0.14735057512E+03  0.15530237478E+03 -0.54072779453E+02  0.22080508391E+03  0.00000000000E+00 0. -1.
<mgrwt>
<rscale>  0 0.58490949E+04</rscale>
<asrwt>0</asrwt>
<pdfrwt beam="1">  1        2 0.44456165E+00 0.58490949E+04</pdfrwt>
<pdfrwt beam="2">  1       -1 0.45536395E+00 0.58490949E+04</pdfrwt>
<totfact> 0.47164362E-03</totfact>
</mgrwt>
</event>
<event>
12    6  0.1402540E-007  0.1560918E+04  0.7818608E-02  0.8844924E-01
          2   -1    0    0  501    0  0.00000000000E+00  0.00000000000E+00  0.13606893371E+04  0.13606893371E+04  0.00000000000E+00 0. -1.
         -1   -1    0    0    0  501 -0.00000000000E+00 -0.00000000000E+00 -0.44765278997E+03  0.44765278997E+03  0.00000000000E+00 0.  1.
         24    2    1    2    0    0 -0.10996965530E+03  0.36757825303E+03 -0.96369983287E+02  0.40336102170E+03  0.78777172823E+02 0.  0.
        254    2    1    2    0    0  0.10996965530E+03 -0.36757825303E+03  0.10094065305E+04  0.14049811054E+04  0.89881214146E+03 0.  0.
         23    2    4    4    0    0  0.22632199292E+02 -0.33253838563E+03  0.11571008966E+04  0.12076119703E+04  0.91379381700E+02 0.  0.
         23    2    4    4    0    0  0.87337456005E+02 -0.35039867401E+02 -0.14769436617E+03  0.19736913514E+03  0.91023767122E+02 0.  0.
          4    1    3    3  502    0 -0.76408343347E+02  0.12325112443E+03 -0.32760282254E+02  0.14866845899E+03  0.00000000000E+00 0. -1.
         -3    1    3    3    0  502 -0.33561311950E+02  0.24432712861E+03 -0.63609701033E+02  0.25469256271E+03  0.00000000000E+00 0.  1.
         11    1    5    5    0    0  0.11471789825E+02 -0.32269497180E+03  0.11404494770E+04  0.11852799907E+04  0.00000000000E+00 0. -1.
        -11    1    5    5    0    0  0.11160409467E+02 -0.98434138332E+01  0.16651419613E+02  0.22331979547E+02  0.00000000000E+00 0.  1.
          1    1    6    6  503    0  0.58703765839E+02 -0.61611599963E+02 -0.12777404835E+03  0.15351979939E+03  0.00000000000E+00 0. -1.
         -1    1    6    6    0  503  0.28633690166E+02  0.26571732562E+02 -0.19920317817E+02  0.43849335751E+02  0.00000000000E+00 0.  1.
<mgrwt>
<rscale>  0 0.15609182E+04</rscale>
<asrwt>0</asrwt>
<pdfrwt beam="1">  1        2 0.20933682E+00 0.15609182E+04</pdfrwt>
<pdfrwt beam="2">  1       -1 0.68869661E-01 0.15609182E+04</pdfrwt>
<totfact> 0.35650967E+01</totfact>
</mgrwt>
</event>
<event>
12    6  0.1402540E-007  0.1679176E+04  0.7818608E-02  0.8773331E-01
          2   -1    0    0  501    0  0.00000000000E+00  0.00000000000E+00  0.14226167532E+04  0.14226167532E+04  0.00000000000E+00 0. -1.
         -1   -1    0    0    0  501 -0.00000000000E+00 -0.00000000000E+00 -0.49550095833E+03  0.49550095833E+03  0.00000000000E+00 0.  1.
         24    2    1    2    0    0  0.55618574721E+03  0.10859141436E+03  0.53755467514E+03  0.78524667444E+03  0.80700869196E+02 0.  0.
        254    2    1    2    0    0 -0.55618574721E+03 -0.10859141436E+03  0.38956111974E+03  0.11328710371E+04  0.90028008977E+03 0.  0.
         23    2    4    4    0    0 -0.49936070510E+03 -0.10376349621E+03  0.66106668487E+03  0.83993785937E+03  0.91424661939E+02 0.  0.
         23    2    4    4    0    0 -0.56825042110E+02 -0.48279181446E+01 -0.27150556514E+03  0.29293317774E+03  0.94032869334E+02 0.  0.
          2    1    3    3  502    0  0.22634126199E+03  0.58832060895E+01  0.22932132822E+03  0.32226270428E+03  0.00000000000E+00 0. -1.
         -1    1    3    3    0  502  0.32984448522E+03  0.10270820827E+03  0.30823334692E+03  0.46298397016E+03  0.00000000000E+00 0.  1.
         11    1    5    5    0    0 -0.51897414940E+02  0.17117410168E+02  0.68516762630E+02  0.87640710686E+02  0.00000000000E+00 0. -1.
        -11    1    5    5    0    0 -0.44746329016E+03 -0.12088090638E+03  0.59254992224E+03  0.75229714868E+03  0.00000000000E+00 0.  1.
          3    1    6    6  503    0 -0.39328932941E+02 -0.10955700132E+01 -0.27220115561E+03  0.27502987903E+03  0.00000000000E+00 0. -1.
         -3    1    6    6    0  503 -0.17496109169E+02 -0.37323481314E+01  0.69559047715E+00  0.17903298712E+02  0.00000000000E+00 0.  1.
<mgrwt>
<rscale>  0 0.16791759E+04</rscale>
<asrwt>0</asrwt>
<pdfrwt beam="1">  1        2 0.21886411E+00 0.16791759E+04</pdfrwt>
<pdfrwt beam="2">  1       -1 0.76230917E-01 0.16791759E+04</pdfrwt>
<totfact> 0.26361744E+01</totfact>
</mgrwt>
</event>
<event>
12    6  0.1402540E-007  0.1615629E+04  0.7818608E-02  0.8811004E-01
         -1   -1    0    0    0  501 -0.00000000000E+00  0.00000000000E+00  0.10976726758E+04  0.10976726758E+04  0.00000000000E+00 0.  1.
          2   -1    0    0  501    0  0.00000000000E+00 -0.00000000000E+00 -0.59449784808E+03  0.59449784808E+03  0.00000000000E+00 0. -1.
         24    2    1    2    0    0  0.38365006874E+03  0.74512227478E+02  0.58220054146E+03  0.70591125356E+03  0.81325150682E+02 0.  0.
        254    2    1    2    0    0 -0.38365006874E+03 -0.74512227478E+02 -0.79025713771E+02  0.98625927028E+03  0.90206587204E+03 0.  0.
         23    2    4    4    0    0 -0.44158509315E+03  0.46961587350E+02 -0.41360521724E+03  0.61382758258E+03  0.92261802683E+02 0.  0.
         23    2    4    4    0    0  0.57935024405E+02 -0.12147381483E+03  0.33457950347E+03  0.37243168770E+03  0.93003027473E+02 0.  0.
          4    1    3    3  502    0  0.27821911844E+03  0.44290769347E+02  0.35149343217E+03  0.45046107820E+03  0.00000000000E+00 0. -1.
         -3    1    3    3    0  502  0.10543095030E+03  0.30221458131E+02  0.23070710929E+03  0.25545017536E+03  0.00000000000E+00 0.  1.
         11    1    5    5    0    0 -0.11785551911E+03 -0.85455060374E+01 -0.15977379782E+03  0.19872245854E+03  0.00000000000E+00 0. -1.
        -11    1    5    5    0    0 -0.32372957404E+03  0.55507093387E+02 -0.25383141942E+03  0.41510512405E+03  0.00000000000E+00 0.  1.
          3    1    6    6  503    0  0.25087141153E+02 -0.68421082213E+02  0.28065113136E+03  0.28995838784E+03  0.00000000000E+00 0. -1.
         -3    1    6    6    0  503  0.32847883252E+02 -0.53052732615E+02  0.53928372108E+02  0.82473299863E+02  0.00000000000E+00 0.  1.
<mgrwt>
<rscale>  0 0.16156287E+04</rscale>
<asrwt>0</asrwt>
<pdfrwt beam="1">  1        2 0.91461208E-01 0.16156287E+04</pdfrwt>
<pdfrwt beam="2">  1       -1 0.16887272E+00 0.16156287E+04</pdfrwt>
<totfact> 0.13764781E+01</totfact>
</mgrwt>
</event>
<event>
12    6  0.1402540E-007  0.4497917E+04  0.7818608E-02  0.7911002E-01
          2   -1    0    0  501    0  0.00000000000E+00  0.00000000000E+00  0.25079832368E+04  0.25079832368E+04  0.00000000000E+00 0. -1.
         -3   -1    0    0    0  501 -0.00000000000E+00 -0.00000000000E+00 -0.20166860994E+04  0.20166860994E+04  0.00000000000E+00 0.  1.
         24    2    1    2    0    0  0.15781921566E+04  0.32480035812E+03  0.16803804032E+04  0.23295497638E+04  0.83294939714E+02 0.  0.
        254    2    1    2    0    0 -0.15781921566E+04 -0.32480035812E+03 -0.11890832658E+04  0.21951195724E+04  0.89913578984E+03 0.  0.
         23    2    4    4    0    0 -0.25402596660E+03 -0.31130154627E+03  0.18768937799E+01  0.41175724010E+03  0.90014763384E+02 0.  0.
         23    2    4    4    0    0 -0.13241661900E+04 -0.13498811847E+02 -0.11909601596E+04  0.17833623323E+04  0.91634000724E+02 0.  0.
          4    1    3    3  502    0  0.14597549290E+04  0.27846924410E+03  0.15567334004E+04  0.21521729607E+04  0.00000000000E+00 0. -1.
         -3    1    3    3    0  502  0.11843722757E+03  0.46331114025E+02  0.12364700275E+03  0.17737680313E+03  0.00000000000E+00 0.  1.
         11    1    5    5    0    0  0.69331744213E+01 -0.63016452848E+01  0.43888095515E+01  0.10346076074E+02  0.00000000000E+00 0. -1.
        -11    1    5    5    0    0 -0.26095914102E+03 -0.30499990099E+03 -0.25119157716E+01  0.40141116403E+03  0.00000000000E+00 0.  1.
          2    1    6    6  503    0 -0.36778708059E+02  0.85289344693E+00 -0.15192553536E+02  0.39802191857E+02  0.00000000000E+00 0. -1.
         -2    1    6    6    0  503 -0.12873874819E+04 -0.14351705294E+02 -0.11757676060E+04  0.17435601405E+04  0.00000000000E+00 0.  1.
<mgrwt>
<rscale>  0 0.44979173E+04</rscale>
<asrwt>0</asrwt>
<pdfrwt beam="1">  1        2 0.38584357E+00 0.44979173E+04</pdfrwt>
<pdfrwt beam="2">  1       -3 0.31025940E+00 0.44979173E+04</pdfrwt>
<totfact> 0.54686039E-02</totfact>
</mgrwt>
</event>
<event>
12    6  0.1402540E-007  0.4704287E+04  0.7818608E-02  0.7875817E-01
         -1   -1    0    0    0  501 -0.00000000000E+00  0.00000000000E+00  0.14604291449E+04  0.14604291449E+04  0.00000000000E+00 0.  1.
          2   -1    0    0  501    0  0.00000000000E+00 -0.00000000000E+00 -0.37883245414E+04  0.37883245414E+04  0.00000000000E+00 0. -1.
         24    2    1    2    0    0  0.15314533608E+03 -0.15783511122E+04 -0.29268691271E+04  0.33298844338E+04  0.83196922636E+02 0.  0.
        254    2    1    2    0    0 -0.15314533608E+03  0.15783511122E+04  0.59897373054E+03  0.19188692525E+04  0.89924632384E+03 0.  0.
         23    2    4    4    0    0  0.22971794244E+03  0.11106847547E+03 -0.31329258736E+02  0.27409671949E+03  0.95083909570E+02 0.  0.
         23    2    4    4    0    0 -0.38286327852E+03  0.14672826367E+04  0.63030298928E+03  0.16447725330E+04  0.92153138526E+02 0.  0.
          4    1    3    3  502    0  0.85169662978E+02 -0.93839033423E+03 -0.16535410481E+04  0.19031627068E+04  0.00000000000E+00 0. -1.
         -3    1    3    3    0  502  0.67975673103E+02 -0.63996077798E+03 -0.12733280789E+04  0.14267217269E+04  0.00000000000E+00 0.  1.
         11    1    5    5    0    0  0.36571157316E+02  0.53407582689E+02  0.16773012943E+02  0.66866683777E+02  0.00000000000E+00 0.  1.
        -11    1    5    5    0    0  0.19314678513E+03  0.57660892783E+02 -0.48102271679E+02  0.20723003572E+03  0.00000000000E+00 0. -1.
          2    1    6    6  503    0 -0.31768382707E+03  0.13270415593E+04  0.56336690459E+03  0.14762603372E+04  0.00000000000E+00 0. -1.
         -2    1    6    6    0  503 -0.65179451459E+02  0.14024107742E+03  0.66936084689E+02  0.16851219576E+03  0.00000000000E+00 0.  1.
<mgrwt>
<rscale>  0 0.47042872E+04</rscale>
<asrwt>0</asrwt>
<pdfrwt beam="1">  1        2 0.58281916E+00 0.47042872E+04</pdfrwt>
<pdfrwt beam="2">  1       -1 0.22468141E+00 0.47042872E+04</pdfrwt>
<totfact> 0.43275069E-02</totfact>
</mgrwt>
</event>
<event>
12    6  0.1402540E-007  0.2226391E+04  0.7818608E-02  0.8507523E-01
         -1   -1    0    0    0  501 -0.00000000000E+00  0.00000000000E+00  0.66830370456E+03  0.66830370456E+03  0.00000000000E+00 0.  1.
          2   -1    0    0  501    0  0.00000000000E+00 -0.00000000000E+00 -0.18542539363E+04  0.18542539363E+04  0.00000000000E+00 0. -1.
         24    2    1    2    0    0  0.19858412565E+03 -0.87926562587E+03 -0.75279717835E+03  0.11771472144E+04  0.80176535218E+02 0.  0.
        254    2    1    2    0    0 -0.19858412565E+03  0.87926562587E+03 -0.43315305337E+03  0.13454104265E+04  0.89997997322E+03 0.  0.
         23    2    4    4    0    0 -0.54561461785E+03  0.61827319769E+03 -0.29854522453E+03  0.88167336062E+03  0.90893374571E+02 0.  0.
         23    2    4    4    0    0  0.34703049221E+03  0.26099242818E+03 -0.13460782884E+03  0.46373706584E+03  0.91572859311E+02 0.  0.
          2    1    3    3  502    0  0.61351867368E+02 -0.25793363980E+03 -0.17522601702E+03  0.31780177975E+03  0.00000000000E+00 0. -1.
         -1    1    3    3    0  502  0.13723225828E+03 -0.62133198607E+03 -0.57757116133E+03  0.85934543463E+03  0.00000000000E+00 0.  1.
         11    1    5    5    0    0 -0.24014006097E+03  0.33790937495E+03 -0.13538521106E+03  0.43609534501E+03  0.00000000000E+00 0. -1.
        -11    1    5    5    0    0 -0.30547455688E+03  0.28036382274E+03 -0.16316001347E+03  0.44557801562E+03  0.00000000000E+00 0.  1.
          3    1    6    6  503    0  0.35950707179E+02 -0.23778049450E+01 -0.77193977632E+01  0.36846932095E+02  0.00000000000E+00 0. -1.
         -3    1    6    6    0  503  0.31107978503E+03  0.26337023313E+03 -0.12688843108E+03  0.42689013375E+03  0.00000000000E+00 0.  1.
<mgrwt>
<rscale>  0 0.22263915E+04</rscale>
<asrwt>0</asrwt>
<pdfrwt beam="1">  1        2 0.28526983E+00 0.22263915E+04</pdfrwt>
<pdfrwt beam="2">  1       -1 0.10281596E+00 0.22263915E+04</pdfrwt>
<totfact> 0.74727569E+00</totfact>
</mgrwt>
</event>
<event>
12    6  0.1402540E-007  0.1594637E+04  0.7818608E-02  0.8823850E-01
         -1   -1    0    0    0  501 -0.00000000000E+00  0.00000000000E+00  0.46971602667E+03  0.46971602667E+03  0.00000000000E+00 0.  1.
          2   -1    0    0  501    0  0.00000000000E+00 -0.00000000000E+00 -0.13534059524E+04  0.13534059524E+04  0.00000000000E+00 0. -1.
         24    2    1    2    0    0 -0.20786187844E+03 -0.31544257223E+03 -0.74297444138E+03  0.83741396913E+03  0.80873717951E+02 0.  0.
        254    2    1    2    0    0  0.20786187844E+03  0.31544257223E+03 -0.14071548430E+03  0.98570800990E+03  0.89950478397E+03 0.  0.
         23    2    4    4    0    0  0.11961210487E+02  0.22806451338E+03  0.35703708067E+03  0.43609154043E+03  0.10268330845E+03 0.  0.
         23    2    4    4    0    0  0.19590066795E+03  0.87378058844E+02 -0.49775256497E+03  0.54961646948E+03  0.91151800383E+02 0.  0.
          2    1    3    3  502    0 -0.16210832447E+03 -0.23191493201E+03 -0.62290482667E+03  0.68415938760E+03  0.00000000000E+00 0. -1.
         -1    1    3    3    0  502 -0.45753553963E+02 -0.83527640219E+02 -0.12006961471E+03  0.15325458152E+03  0.00000000000E+00 0.  1.
         11    1    5    5    0    0  0.75737947091E+01  0.34947717868E+02  0.14463021365E+03  0.14898524777E+03  0.00000000000E+00 0. -1.
        -11    1    5    5    0    0  0.43874157782E+01  0.19311679552E+03  0.21240686702E+03  0.28710629266E+03  0.00000000000E+00 0.  1.
          1    1    6    6  503    0  0.15110573471E+03  0.10582988294E+03 -0.40181981635E+03  0.44214485409E+03  0.00000000000E+00 0. -1.
         -1    1    6    6    0  503  0.44794933235E+02 -0.18451824092E+02 -0.95932748626E+02  0.10747161539E+03  0.00000000000E+00 0.  1.
<mgrwt>
<rscale>  0 0.15946366E+04</rscale>
<asrwt>0</asrwt>
<pdfrwt beam="1">  1        2 0.20821630E+00 0.15946366E+04</pdfrwt>
<pdfrwt beam="2">  1       -1 0.72264005E-01 0.15946366E+04</pdfrwt>
<totfact> 0.32516738E+01</totfact>
</mgrwt>
</event>
<event>
12    6  0.1402540E-007  0.3853422E+04  0.7818608E-02  0.8034787E-01
         -1   -1    0    0    0  501 -0.00000000000E+00  0.00000000000E+00  0.15813180722E+04  0.15813180722E+04  0.00000000000E+00 0.  1.
          2   -1    0    0  501    0  0.00000000000E+00 -0.00000000000E+00 -0.23475445974E+04  0.23475445974E+04  0.00000000000E+00 0. -1.
         24    2    1    2    0    0 -0.16356386081E+04  0.22698973122E+02  0.45390423465E+03  0.16995152813E+04  0.80586831000E+02 0.  0.
        254    2    1    2    0    0  0.16356386081E+04 -0.22698973122E+02 -0.12201307598E+04  0.22293473883E+04  0.89746409782E+03 0.  0.
         23    2    4    4    0    0  0.27480498484E+03  0.34025830516E+03 -0.20910227038E+03  0.49319759981E+03  0.90700711426E+02 0.  0.
         23    2    4    4    0    0  0.13608336233E+04 -0.36295727828E+03 -0.10110284894E+04  0.17361497885E+04  0.91822358400E+02 0.  0.
          4    1    3    3  502    0 -0.74866919712E+03  0.28753028356E+02  0.17082735344E+03  0.76844927487E+03  0.00000000000E+00 0. -1.
         -3    1    3    3    0  502 -0.88696941099E+03 -0.60540552344E+01  0.28307688121E+03  0.93106600641E+03  0.00000000000E+00 0.  1.
         11    1    5    5    0    0  0.16061957552E+03  0.22751693033E+03 -0.87699974398E+02  0.29198268294E+03  0.00000000000E+00 0.  1.
        -11    1    5    5    0    0  0.11418540932E+03  0.11274137483E+03 -0.12140229599E+03  0.20121491687E+03  0.00000000000E+00 0. -1.
          4    1    6    6  503    0  0.96528952581E+03 -0.25293256212E+03 -0.66435980494E+03  0.11988046964E+04  0.00000000000E+00 0. -1.
         -4    1    6    6    0  503  0.39554409746E+03 -0.11002471616E+03 -0.34666868451E+03  0.53734509212E+03  0.00000000000E+00 0.  1.
<mgrwt>
<rscale>  0 0.38534217E+04</rscale>
<asrwt>0</asrwt>
<pdfrwt beam="1">  1        2 0.36116071E+00 0.38534217E+04</pdfrwt>
<pdfrwt beam="2">  1       -1 0.24327970E+00 0.38534217E+04</pdfrwt>
<totfact> 0.29827931E-01</totfact>
</mgrwt>
</event>
<event>
12    6  0.1402540E-007  0.1474957E+04  0.7818608E-02  0.8901279E-01
          2   -1    0    0  501    0  0.00000000000E+00  0.00000000000E+00  0.39872600157E+03  0.39872600157E+03  0.00000000000E+00 0. -1.
         -1   -1    0    0    0  501 -0.00000000000E+00 -0.00000000000E+00 -0.13640303403E+04  0.13640303403E+04  0.00000000000E+00 0.  1.
         24    2    1    2    0    0  0.39577668188E+03  0.75166278613E+01 -0.58568063629E+03  0.71136978736E+03  0.79558060749E+02 0.  0.
        254    2    1    2    0    0 -0.39577668188E+03 -0.75166278613E+01 -0.37962370248E+03  0.10513865545E+04  0.89699712930E+03 0.  0.
         23    2    4    4    0    0 -0.46154313229E+03 -0.12161534976E+03  0.14156082267E+03  0.50603563240E+03  0.90665530811E+02 0.  0.
         23    2    4    4    0    0  0.65766450410E+02  0.11409872190E+03 -0.52118452515E+03  0.54535092214E+03  0.91818160999E+02 0.  0.
          2    1    3    3  502    0  0.23329331427E+03 -0.25404553472E+02 -0.29763416194E+03  0.37902144553E+03  0.00000000000E+00 0. -1.
         -1    1    3    3    0  502  0.16248336761E+03  0.32921181334E+02 -0.28804647435E+03  0.33234834183E+03  0.00000000000E+00 0.  1.
         11    1    5    5    0    0 -0.62636792817E+02 -0.83456785120E+01 -0.11087716050E+02  0.64155713786E+02  0.00000000000E+00 0. -1.
        -11    1    5    5    0    0 -0.39890633947E+03 -0.11326967125E+03  0.15264853872E+03  0.44187991861E+03  0.00000000000E+00 0.  1.
          2    1    6    6  503    0 -0.19301667007E+02  0.39518295662E+02 -0.20135484500E+03  0.20610197391E+03  0.00000000000E+00 0. -1.
         -2    1    6    6    0  503  0.85068117417E+02  0.74580426238E+02 -0.31982968014E+03  0.33924894824E+03  0.00000000000E+00 0.  1.
<mgrwt>
<rscale>  0 0.14749568E+04</rscale>
<asrwt>0</asrwt>
<pdfrwt beam="1">  1        2 0.61342462E-01 0.14749568E+04</pdfrwt>
<pdfrwt beam="2">  1       -1 0.20985082E+00 0.14749568E+04</pdfrwt>
<totfact> 0.11388498E+01</totfact>
</mgrwt>
</event>
<event>
12    6  0.1402540E-007  0.5472483E+04  0.7818608E-02  0.7759487E-01
         -1   -1    0    0    0  501 -0.00000000000E+00  0.00000000000E+00  0.55736201070E+04  0.55736201070E+04  0.00000000000E+00 0.  1.
          2   -1    0    0  501    0  0.00000000000E+00 -0.00000000000E+00 -0.13432954523E+04  0.13432954523E+04  0.00000000000E+00 0. -1.
         24    2    1    2    0    0 -0.23336573535E+04  0.58069574405E+03  0.35123185552E+04  0.42574606941E+04  0.80160699393E+02 0.  0.
        254    2    1    2    0    0  0.23336573535E+04 -0.58069574405E+03  0.71800609945E+03  0.26594548652E+04  0.87977453392E+03 0.  0.
         23    2    4    4    0    0  0.56991689821E+03 -0.45932989428E+03 -0.27782305487E+02  0.73817200484E+03  0.91306240641E+02 0.  0.
         23    2    4    4    0    0  0.17637404553E+04 -0.12136584977E+03  0.74578840494E+03  0.19212828604E+04  0.98068453136E+02 0.  0.
          2    1    3    3  502    0 -0.18058107147E+03  0.46149980444E+02  0.23594217253E+03  0.30067931895E+03  0.00000000000E+00 0. -1.
         -1    1    3    3    0  502 -0.21530762821E+04  0.53454576360E+03  0.32763763826E+04  0.39567813751E+04  0.00000000000E+00 0.  1.
         11    1    5    5    0    0  0.12038404168E+03 -0.73826639563E+02  0.25814208001E+02  0.14355857179E+03  0.00000000000E+00 0. -1.
        -11    1    5    5    0    0  0.44953285653E+03 -0.38550325472E+03 -0.53596513487E+02  0.59461343305E+03  0.00000000000E+00 0.  1.
          3    1    6    6  503    0  0.16849706282E+03 -0.76757008726E+01  0.41000033938E+02  0.17358334985E+03  0.00000000000E+00 0. -1.
         -3    1    6    6    0  503  0.15952433925E+04 -0.11369014889E+03  0.70478837100E+03  0.17476995105E+04  0.00000000000E+00 0.  1.
<mgrwt>
<rscale>  0 0.54724834E+04</rscale>
<asrwt>0</asrwt>
<pdfrwt beam="1">  1        2 0.20666084E+00 0.54724834E+04</pdfrwt>
<pdfrwt beam="2">  1       -1 0.85748000E+00 0.54724834E+04</pdfrwt>
<totfact> 0.31287673E-04</totfact>
</mgrwt>
</event>
<event>
12    6  0.1402540E-007  0.1764326E+04  0.7818608E-02  0.8725504E-01
          2   -1    0    0  501    0  0.00000000000E+00  0.00000000000E+00  0.63280835306E+03  0.63280835306E+03  0.00000000000E+00 0. -1.
         -1   -1    0    0    0  501 -0.00000000000E+00 -0.00000000000E+00 -0.12297742080E+04  0.12297742080E+04  0.00000000000E+00 0.  1.
         24    2    1    2    0    0 -0.51622629040E+03 -0.32986296668E+03 -0.43202741427E+03  0.75380213908E+03  0.79188499833E+02 0.  0.
        254    2    1    2    0    0  0.51622629040E+03  0.32986296668E+03 -0.16493844066E+03  0.11087804220E+04  0.90933501817E+03 0.  0.
         23    2    4    4    0    0  0.62120915845E+03  0.48041367595E+03 -0.31913058278E+03  0.85242293227E+03  0.89902213597E+02 0.  0.
         23    2    4    4    0    0 -0.10498286804E+03 -0.15055070927E+03  0.15419214212E+03  0.25635748971E+03  0.90868185816E+02 0.  0.
          2    1    3    3  502    0 -0.39612038632E+03 -0.26335981499E+03 -0.29442325472E+03  0.55942363690E+03  0.00000000000E+00 0. -1.
         -1    1    3    3    0  502 -0.12010590408E+03 -0.66503151688E+02 -0.13760415955E+03  0.19437850217E+03  0.00000000000E+00 0.  1.
         11    1    5    5    0    0  0.48359384601E+03  0.36841813010E+03 -0.20554258534E+03  0.64174970267E+03  0.00000000000E+00 0. -1.
        -11    1    5    5    0    0  0.13761531244E+03  0.11199554584E+03 -0.11358799744E+03  0.21067322960E+03  0.00000000000E+00 0.  1.
          4    1    6    6  503    0 -0.82229435185E+02 -0.40742732959E+02  0.81352361654E+02  0.12263709490E+03  0.00000000000E+00 0. -1.
         -4    1    6    6    0  503 -0.22753432859E+02 -0.10980797631E+03  0.72839780469E+02  0.13372039481E+03  0.00000000000E+00 0.  1.
<mgrwt>
<rscale>  0 0.17643258E+04</rscale>
<asrwt>0</asrwt>
<pdfrwt beam="1">  1        2 0.97355132E-01 0.17643258E+04</pdfrwt>
<pdfrwt beam="2">  1       -1 0.18919603E+00 0.17643258E+04</pdfrwt>
<totfact> 0.89952146E+00</totfact>
</mgrwt>
</event>
<event>
12    6  0.1402540E-007  0.3223892E+04  0.7818608E-02  0.8182536E-01
         -1   -1    0    0    0  501 -0.00000000000E+00  0.00000000000E+00  0.17779294284E+04  0.17779294284E+04  0.00000000000E+00 0.  1.
          2   -1    0    0  501    0  0.00000000000E+00 -0.00000000000E+00 -0.14614585645E+04  0.14614585645E+04  0.00000000000E+00 0. -1.
         24    2    1    2    0    0 -0.90808102590E+03  0.12866969804E+03 -0.10288734915E+04  0.13806230154E+04  0.79826114239E+02 0.  0.
        254    2    1    2    0    0  0.90808102590E+03 -0.12866969804E+03  0.13453443553E+04  0.18587649774E+04  0.89659844193E+03 0.  0.
         23    2    4    4    0    0  0.10258021728E+04  0.14582015243E+02  0.89800049151E+03  0.13665028876E+04  0.91883220486E+02 0.  0.
         23    2    4    4    0    0 -0.11772114685E+03 -0.14325171329E+03  0.44734386383E+03  0.49226208985E+03  0.88465308601E+02 0.  0.
          2    1    3    3  502    0 -0.13279881633E+03  0.18126556259E+02 -0.11065794106E+03  0.17380816316E+03  0.00000000000E+00 0. -1.
         -1    1    3    3    0  502 -0.77528220957E+03  0.11054314178E+03 -0.91821555040E+03  0.12068148523E+04  0.00000000000E+00 0.  1.
         11    1    5    5    0    0  0.51890926353E+03 -0.38251859271E+02  0.46078498339E+03  0.69502002089E+03  0.00000000000E+00 0. -1.
        -11    1    5    5    0    0  0.50689290922E+03  0.52833874514E+02  0.43721550812E+03  0.67148286669E+03  0.00000000000E+00 0.  1.
          2    1    6    6  503    0 -0.63622322255E+02 -0.10356970382E+03  0.37210358407E+03  0.39145313988E+03  0.00000000000E+00 0. -1.
         -2    1    6    6    0  503 -0.54098824593E+02 -0.39682009466E+02  0.75240279754E+02  0.10080894997E+03  0.00000000000E+00 0.  1.
<mgrwt>
<rscale>  0 0.32238922E+04</rscale>
<asrwt>0</asrwt>
<pdfrwt beam="1">  1        2 0.22483978E+00 0.32238922E+04</pdfrwt>
<pdfrwt beam="2">  1       -1 0.27352760E+00 0.32238922E+04</pdfrwt>
<totfact> 0.62607498E-01</totfact>
</mgrwt>
</event>
<event>
12    6  0.1402540E-007  0.1872487E+04  0.7818608E-02  0.8668674E-01
         -1   -1    0    0    0  501 -0.00000000000E+00  0.00000000000E+00  0.43158997205E+03  0.43158997205E+03  0.00000000000E+00 0.  1.
          2   -1    0    0  501    0  0.00000000000E+00 -0.00000000000E+00 -0.20309822784E+04  0.20309822784E+04  0.00000000000E+00 0. -1.
         24    2    1    2    0    0  0.23128457315E+03  0.44799947072E+03 -0.12880023194E+04  0.13854406552E+04  0.79370995804E+02 0.  0.
        254    2    1    2    0    0 -0.23128457315E+03 -0.44799947072E+03 -0.31138998699E+03  0.10771315952E+04  0.89947355149E+03 0.  0.
         23    2    4    4    0    0  0.25642068634E+03 -0.76514397259E+02  0.13364176504E+03  0.31407820363E+03  0.95806968752E+02 0.  0.
         23    2    4    4    0    0 -0.48770525949E+03 -0.37148507346E+03 -0.44503175203E+03  0.76305339157E+03  0.91321619197E+02 0.  0.
          2    1    3    3  502    0  0.16753839964E+03  0.28051082577E+03 -0.91584628511E+03  0.97238359544E+03  0.00000000000E+00 0. -1.
         -1    1    3    3    0  502  0.63746173515E+02  0.16748864495E+03 -0.37215603426E+03  0.41305705981E+03  0.00000000000E+00 0.  1.
         11    1    5    5    0    0  0.24504447887E+03 -0.93759060197E+02  0.11582604375E+03  0.28679823989E+03  0.00000000000E+00 0. -1.
        -11    1    5    5    0    0  0.11376207462E+02  0.17244662938E+02  0.17815721297E+02  0.27279963735E+02  0.00000000000E+00 0.  1.
          1    1    6    6  503    0 -0.22046050416E+03 -0.11317118841E+03 -0.16559864340E+03  0.29804942959E+03  0.00000000000E+00 0. -1.
         -1    1    6    6    0  503 -0.26724475532E+03 -0.25831388505E+03 -0.27943310863E+03  0.46500396198E+03  0.00000000000E+00 0.  1.
<mgrwt>
<rscale>  0 0.18724867E+04</rscale>
<asrwt>0</asrwt>
<pdfrwt beam="1">  1        2 0.31245881E+00 0.18724867E+04</pdfrwt>
<pdfrwt beam="2">  1       -1 0.66398457E-01 0.18724867E+04</pdfrwt>
<totfact> 0.15773901E+01</totfact>
</mgrwt>
</event>
<event>
12    6  0.1402540E-007  0.1632144E+04  0.7818608E-02  0.8801041E-01
          2   -1    0    0  501    0  0.00000000000E+00  0.00000000000E+00  0.61679692881E+03  0.61679692881E+03  0.00000000000E+00 0. -1.
         -1   -1    0    0    0  501 -0.00000000000E+00 -0.00000000000E+00 -0.10797284483E+04  0.10797284483E+04  0.00000000000E+00 0.  1.
         24    2    1    2    0    0  0.97388737136E+02 -0.55243199848E+03 -0.23536885824E+03  0.61405618207E+03  0.83670880482E+02 0.  0.
        254    2    1    2    0    0 -0.97388737136E+02  0.55243199848E+03 -0.22756266128E+03  0.10824691951E+04  0.89737902495E+03 0.  0.
         23    2    4    4    0    0  0.30350529006E+03  0.25396443711E+03 -0.37565247463E+03  0.55331724568E+03  0.91824812864E+02 0.  0.
         23    2    4    4    0    0 -0.40089402720E+03  0.29846756136E+03  0.14808981335E+03  0.52915194940E+03  0.90952111030E+02 0.  0.
          4    1    3    3  502    0 -0.13318816164E+02 -0.11622431550E+03 -0.43180344640E+02  0.12469973753E+03  0.00000000000E+00 0. -1.
         -3    1    3    3    0  502  0.11070755330E+03 -0.43620768298E+03 -0.19218851360E+03  0.48935644454E+03  0.00000000000E+00 0.  1.
         11    1    5    5    0    0  0.29648302431E+03  0.25391645492E+03 -0.38023232169E+03  0.54493336129E+03  0.00000000000E+00 0. -1.
        -11    1    5    5    0    0  0.70222657488E+01  0.47982194015E-01  0.45798470553E+01  0.83838843973E+01  0.00000000000E+00 0.  1.
          3    1    6    6  503    0 -0.26034204675E+03  0.24476648500E+03  0.97235811131E+02  0.37032879506E+03  0.00000000000E+00 0. -1.
         -3    1    6    6    0  503 -0.14055198045E+03  0.53701076361E+02  0.50854002224E+02  0.15882315433E+03  0.00000000000E+00 0.  1.
<mgrwt>
<rscale>  0 0.16321436E+04</rscale>
<asrwt>0</asrwt>
<pdfrwt beam="1">  1        2 0.94891836E-01 0.16321436E+04</pdfrwt>
<pdfrwt beam="2">  1       -1 0.16611207E+00 0.16321436E+04</pdfrwt>
<totfact> 0.13778736E+01</totfact>
</mgrwt>
</event>
<event>
12    6  0.1402540E-007  0.1849634E+04  0.7818608E-02  0.8680341E-01
         -1   -1    0    0    0  501 -0.00000000000E+00  0.00000000000E+00  0.34308289880E+03  0.34308289880E+03  0.00000000000E+00 0.  1.
          2   -1    0    0  501    0  0.00000000000E+00 -0.00000000000E+00 -0.24929442089E+04  0.24929442089E+04  0.00000000000E+00 0. -1.
         24    2    1    2    0    0  0.50485900771E+03 -0.26275392344E+03 -0.14577298812E+04  0.15667737950E+04  0.76690784308E+02 0.  0.
        254    2    1    2    0    0 -0.50485900771E+03  0.26275392344E+03 -0.69213142894E+03  0.12692533127E+04  0.89890812371E+03 0.  0.
         23    2    4    4    0    0 -0.49367393775E+03  0.20446164471E+03  0.25211745261E+02  0.54280781050E+03  0.92120388981E+02 0.  0.
         23    2    4    4    0    0 -0.11185069961E+02  0.58292278731E+02 -0.71734317420E+03  0.72644550218E+03  0.98075188073E+02 0.  0.
          2    1    3    3  502    0  0.30639402365E+03 -0.13385330478E+03 -0.93452748254E+03  0.99253998436E+03  0.00000000000E+00 0. -1.
         -1    1    3    3    0  502  0.19846498406E+03 -0.12890061866E+03 -0.52320239863E+03  0.57423381067E+03  0.00000000000E+00 0.  1.
         11    1    5    5    0    0 -0.70129936987E+02  0.35720678385E+02 -0.28566513083E+02  0.83727060117E+02  0.00000000000E+00 0.  1.
        -11    1    5    5    0    0 -0.42354400077E+03  0.16874096633E+03  0.53778258345E+02  0.45908075038E+03  0.00000000000E+00 0. -1.
          1    1    6    6  503    0 -0.10773811980E+02  0.70313822898E+02 -0.70703460606E+03  0.71060399864E+03  0.00000000000E+00 0. -1.
         -1    1    6    6    0  503 -0.41125798141E+00 -0.12021544167E+02 -0.10308568136E+02  0.15841503537E+02  0.00000000000E+00 0.  1.
<mgrwt>
<rscale>  0 0.18496340E+04</rscale>
<asrwt>0</asrwt>
<pdfrwt beam="1">  1        2 0.38352989E+00 0.18496340E+04</pdfrwt>
<pdfrwt beam="2">  1       -1 0.52781982E-01 0.18496340E+04</pdfrwt>
<totfact> 0.13625170E+01</totfact>
</mgrwt>
</event>
<event>
12    6  0.1402540E-007  0.3277804E+04  0.7818608E-02  0.8168566E-01
         -1   -1    0    0    0  501 -0.00000000000E+00  0.00000000000E+00  0.12879842134E+04  0.12879842134E+04  0.00000000000E+00 0.  1.
          2   -1    0    0  501    0  0.00000000000E+00 -0.00000000000E+00 -0.20854289624E+04  0.20854289624E+04  0.00000000000E+00 0. -1.
         24    2    1    2    0    0  0.45114641068E+03  0.12423064490E+04  0.39111883024E+03  0.13806391652E+04  0.79574919629E+02 0.  0.
        254    2    1    2    0    0 -0.45114641068E+03 -0.12423064490E+04 -0.11885635792E+04  0.19927740107E+04  0.90089204607E+03 0.  0.
         23    2    4    4    0    0 -0.27417958621E+03 -0.12113594487E+04 -0.12688185835E+04  0.17778715026E+04  0.91434799074E+02 0.  0.
         23    2    4    4    0    0 -0.17696682448E+03 -0.30947000342E+02  0.80255004307E+02  0.21490250808E+03  0.86413242435E+02 0.  0.
          2    1    3    3  502    0  0.24797074172E+03  0.62928762197E+03  0.16322913304E+03  0.69579892914E+03  0.00000000000E+00 0. -1.
         -1    1    3    3    0  502  0.20317566896E+03  0.61301882706E+03  0.22788969720E+03  0.68484023603E+03  0.00000000000E+00 0.  1.
         11    1    5    5    0    0 -0.14526327838E+03 -0.44480414381E+03 -0.46492298283E+03  0.65962529239E+03  0.00000000000E+00 0. -1.
        -11    1    5    5    0    0 -0.12891630783E+03 -0.76655530489E+03 -0.80389560070E+03  0.11182462102E+04  0.00000000000E+00 0.  1.
          2    1    6    6  503    0  0.14343337912E+01 -0.20265132713E+02  0.11977028120E+02  0.23583513731E+02  0.00000000000E+00 0. -1.
         -2    1    6    6    0  503 -0.17840115827E+03 -0.10681867628E+02  0.68277976187E+02  0.19131899435E+03  0.00000000000E+00 0.  1.
<mgrwt>
<rscale>  0 0.32778039E+04</rscale>
<asrwt>0</asrwt>
<pdfrwt beam="1">  1        2 0.32083522E+00 0.32778039E+04</pdfrwt>
<pdfrwt beam="2">  1       -1 0.19815142E+00 0.32778039E+04</pdfrwt>
<totfact> 0.88306368E-01</totfact>
</mgrwt>
</event>
<event>
12    6  0.1402540E-007  0.2030589E+04  0.7818608E-02  0.8592451E-01
          2   -1    0    0  501    0  0.00000000000E+00  0.00000000000E+00  0.29656862610E+03  0.29656862610E+03  0.00000000000E+00 0. -1.
         -1   -1    0    0    0  501 -0.00000000000E+00 -0.00000000000E+00 -0.34758337017E+04  0.34758337017E+04  0.00000000000E+00 0.  1.
         24    2    1    2    0    0  0.23870431847E+03  0.20516864340E+03 -0.26660462669E+04  0.26856997527E+04  0.78144354876E+02 0.  0.
        254    2    1    2    0    0 -0.23870431847E+03 -0.20516864340E+03 -0.51321880867E+03  0.10867025751E+04  0.90468503764E+03 0.  0.
         23    2    4    4    0    0  0.14212309102E+03 -0.45786467457E+03 -0.29838304008E+03  0.57339223937E+03  0.99534859932E+02 0.  0.
         23    2    4    4    0    0 -0.38082740949E+03  0.25269603117E+03 -0.21483576860E+03  0.51331033576E+03  0.91914598089E+02 0.  0.
          4    1    3    3  502    0  0.78191145634E+02  0.97670483966E+02 -0.80668522614E+03  0.81632985537E+03  0.00000000000E+00 0. -1.
         -3    1    3    3    0  502  0.16051317283E+03  0.10749815943E+03 -0.18593610408E+04  0.18693698973E+04  0.00000000000E+00 0.  1.
         11    1    5    5    0    0  0.20908629019E+02 -0.19736026371E+03 -0.87045660770E+02  0.21671453924E+03  0.00000000000E+00 0. -1.
        -11    1    5    5    0    0  0.12121446201E+03 -0.26050441086E+03 -0.21133737931E+03  0.35667770013E+03  0.00000000000E+00 0.  1.
          1    1    6    6  503    0 -0.89300520027E+02  0.40777912070E+02 -0.86156094212E+02  0.13061505870E+03  0.00000000000E+00 0. -1.
         -1    1    6    6    0  503 -0.29152688946E+03  0.21191811910E+03 -0.12867967439E+03  0.38269527706E+03  0.00000000000E+00 0.  1.
<mgrwt>
<rscale>  0 0.20305893E+04</rscale>
<asrwt>0</asrwt>
<pdfrwt beam="1">  1        2 0.45625941E-01 0.20305893E+04</pdfrwt>
<pdfrwt beam="2">  1       -1 0.53474367E+00 0.20305893E+04</pdfrwt>
<totfact> 0.10641848E-01</totfact>
</mgrwt>
</event>
<event>
12    6  0.1402540E-007  0.4404172E+04  0.7818608E-02  0.7927632E-01
         -1   -1    0    0    0  501 -0.00000000000E+00  0.00000000000E+00  0.21123516872E+04  0.21123516872E+04  0.00000000000E+00 0.  1.
          2   -1    0    0  501    0  0.00000000000E+00 -0.00000000000E+00 -0.22956322761E+04  0.22956322761E+04  0.00000000000E+00 0. -1.
         24    2    1    2    0    0 -0.16786632428E+04  0.64328043437E+03 -0.11922588910E+04  0.21584369981E+04  0.75159907786E+02 0.  0.
        254    2    1    2    0    0  0.16786632428E+04 -0.64328043437E+03  0.10089783020E+04  0.22495469652E+04  0.90039121202E+03 0.  0.
         23    2    4    4    0    0  0.86036947060E+03 -0.61780182620E+03  0.17519635888E+03  0.10774861844E+04  0.91476724309E+02 0.  0.
         23    2    4    4    0    0  0.81829377219E+03 -0.25478608173E+02  0.83378194314E+03  0.11720607807E+04  0.90996087717E+02 0.  0.
          4    1    3    3  502    0 -0.62293310232E+03  0.21460526266E+03 -0.47101870700E+03  0.80991338491E+03  0.00000000000E+00 0. -1.
         -3    1    3    3    0  502 -0.10557301405E+04  0.42867517172E+03 -0.72124018399E+03  0.13485236132E+04  0.00000000000E+00 0.  1.
         11    1    5    5    0    0  0.58035881080E+03 -0.44626779208E+03  0.15609433295E+03  0.74855643227E+03  0.00000000000E+00 0.  1.
        -11    1    5    5    0    0  0.28001065980E+03 -0.17153403412E+03  0.19102025932E+02  0.32892975216E+03  0.00000000000E+00 0. -1.
          3    1    6    6  503    0  0.10332377170E+03  0.81748189054E+01  0.68598358619E+02  0.12429144889E+03  0.00000000000E+00 0. -1.
         -3    1    6    6    0  503  0.71497000048E+03 -0.33653427079E+02  0.76518358452E+03  0.10477693318E+04  0.00000000000E+00 0.  1.
<mgrwt>
<rscale>  0 0.44041720E+04</rscale>
<asrwt>0</asrwt>
<pdfrwt beam="1">  1        2 0.35317419E+00 0.44041720E+04</pdfrwt>
<pdfrwt beam="2">  1       -1 0.32497719E+00 0.44041720E+04</pdfrwt>
<totfact> 0.89928225E-02</totfact>
</mgrwt>
</event>
<event>
12    6  0.1402540E-007  0.1145102E+04  0.7818608E-02  0.9162314E-01
          2   -1    0    0  501    0  0.00000000000E+00  0.00000000000E+00  0.13999664127E+04  0.13999664127E+04  0.00000000000E+00 0. -1.
         -1   -1    0    0    0  501 -0.00000000000E+00 -0.00000000000E+00 -0.23415896533E+03  0.23415896533E+03  0.00000000000E+00 0.  1.
         24    2    1    2    0    0 -0.60316658992E+02 -0.17632912381E+03  0.18061213483E+03  0.27125630115E+03  0.78925144354E+02 0.  0.
        254    2    1    2    0    0  0.60316658992E+02  0.17632912381E+03  0.98519531255E+03  0.13628690769E+04  0.92307760108E+03 0.  0.
         23    2    4    4    0    0  0.38831474874E+03  0.36974525471E+03  0.49423859249E+03  0.73487004713E+03  0.90897207859E+02 0.  0.
         23    2    4    4    0    0 -0.32799808975E+03 -0.19341613090E+03  0.49095672006E+03  0.62799902976E+03  0.91387821004E+02 0.  0.
          4    1    3    3  502    0 -0.14928855210E+02 -0.14802585341E+03  0.13687840552E+03  0.20216384913E+03  0.00000000000E+00 0. -1.
         -3    1    3    3    0  502 -0.45387803782E+02 -0.28303270396E+02  0.43733729310E+02  0.69092452023E+02  0.00000000000E+00 0.  1.
         11    1    5    5    0    0  0.83119594623E+02  0.74957935877E+02  0.57053100082E+02  0.12562887960E+03  0.00000000000E+00 0. -1.
        -11    1    5    5    0    0  0.30519515412E+03  0.29478731883E+03  0.43718549241E+03  0.60924116753E+03  0.00000000000E+00 0.  1.
          3    1    6    6  503    0 -0.44101096505E+02 -0.20801951259E+02  0.12256698101E+03  0.13191016914E+03  0.00000000000E+00 0. -1.
         -3    1    6    6    0  503 -0.28389699325E+03 -0.17261417964E+03  0.36838973906E+03  0.49608886062E+03  0.00000000000E+00 0.  1.
<mgrwt>
<rscale>  0 0.11451021E+04</rscale>
<asrwt>0</asrwt>
<pdfrwt beam="1">  1        2 0.21537944E+00 0.11451021E+04</pdfrwt>
<pdfrwt beam="2">  1       -1 0.36024457E-01 0.11451021E+04</pdfrwt>
<totfact> 0.12020960E+02</totfact>
</mgrwt>
</event>
<event>
12    6  0.1402540E-007  0.2494680E+04  0.7818608E-02  0.8404883E-01
          2   -1    0    0  501    0  0.00000000000E+00  0.00000000000E+00  0.16689595277E+04  0.16689595277E+04  0.00000000000E+00 0. -1.
         -1   -1    0    0    0  501 -0.00000000000E+00 -0.00000000000E+00 -0.93223204592E+03  0.93223204592E+03  0.00000000000E+00 0.  1.
         24    2    1    2    0    0 -0.67442978829E+03  0.76096670681E+03 -0.63675454233E+02  0.10219649532E+04  0.80199338436E+02 0.  0.
        254    2    1    2    0    0  0.67442978829E+03 -0.76096670681E+03  0.80040293596E+03  0.15792266204E+04  0.90519942026E+03 0.  0.
         23    2    4    4    0    0  0.52806132552E+03 -0.82240682935E+03  0.27145936893E+03  0.10186062902E+04  0.93095804888E+02 0.  0.
         23    2    4    4    0    0  0.14636846277E+03  0.61440122548E+02  0.52894356703E+03  0.56062033023E+03  0.96515501403E+02 0.  0.
          2    1    3    3  502    0 -0.43481259263E+03  0.47569474520E+03 -0.28669284960E+01  0.64448095441E+03  0.00000000000E+00 0. -1.
         -3    1    3    3    0  502 -0.23961719566E+03  0.28527196160E+03 -0.60808525737E+02  0.37748399878E+03  0.00000000000E+00 0.  1.
         11    1    5    5    0    0  0.11546710544E+03 -0.19652069699E+03  0.24087723596E+02  0.22920134208E+03  0.00000000000E+00 0. -1.
        -11    1    5    5    0    0  0.41259422008E+03 -0.62588613237E+03  0.24737164533E+03  0.78940494808E+03  0.00000000000E+00 0.  1.
          2    1    6    6  503    0  0.11378455581E+03  0.20852092257E+02  0.23301599185E+03  0.26015031684E+03  0.00000000000E+00 0. -1.
         -2    1    6    6    0  503  0.32583906957E+02  0.40588030291E+02  0.29592757518E+03  0.30047001339E+03  0.00000000000E+00 0.  1.
<mgrwt>
<rscale>  0 0.24946804E+04</rscale>
<asrwt>0</asrwt>
<pdfrwt beam="1">  1        2 0.25676300E+00 0.24946804E+04</pdfrwt>
<pdfrwt beam="2">  1       -1 0.14342031E+00 0.24946804E+04</pdfrwt>
<totfact> 0.40782838E+00</totfact>
</mgrwt>
</event>
<event>
12    6  0.1402540E-007  0.2725340E+04  0.7818608E-02  0.8326830E-01
          2   -1    0    0  501    0  0.00000000000E+00  0.00000000000E+00  0.15898274518E+04  0.15898274518E+04  0.00000000000E+00 0. -1.
         -1   -1    0    0    0  501 -0.00000000000E+00 -0.00000000000E+00 -0.11679690313E+04  0.11679690313E+04  0.00000000000E+00 0.  1.
         24    2    1    2    0    0 -0.46747386277E+03  0.10236063338E+04  0.64643214605E+03  0.13001739848E+04  0.79222044413E+02 0.  0.
        254    2    1    2    0    0  0.46747386277E+03 -0.10236063338E+04 -0.22457372549E+03  0.14576224983E+04  0.89884829109E+03 0.  0.
         23    2    4    4    0    0 -0.21895790698E+03 -0.48627571839E+03 -0.21152403003E+03  0.58095067172E+03  0.91403656184E+02 0.  0.
         23    2    4    4    0    0  0.68643176975E+03 -0.53733061543E+03 -0.13049695456E+02  0.87667182659E+03  0.92034950935E+02 0.  0.
          4    1    3    3  502    0 -0.18283688213E+03  0.32305199158E+03  0.23468655070E+03  0.43916932021E+03  0.00000000000E+00 0. -1.
         -3    1    3    3    0  502 -0.28463698063E+03  0.70055434223E+03  0.41174559535E+03  0.86100466460E+03  0.00000000000E+00 0.  1.
         11    1    5    5    0    0 -0.73869742380E+02 -0.18675592208E+03 -0.33797586382E+02  0.20365851349E+03  0.00000000000E+00 0. -1.
        -11    1    5    5    0    0 -0.14508816460E+03 -0.29951979631E+03 -0.17772644365E+03  0.37729215823E+03  0.00000000000E+00 0.  1.
          3    1    6    6  503    0  0.36430244560E+03 -0.22777521522E+03  0.22123042913E+01  0.42965418051E+03  0.00000000000E+00 0. -1.
         -3    1    6    6    0  503  0.32212932415E+03 -0.30955540021E+03 -0.15261999747E+02  0.44701764608E+03  0.00000000000E+00 0.  1.
<mgrwt>
<rscale>  0 0.27253398E+04</rscale>
<asrwt>0</asrwt>
<pdfrwt beam="1">  1        2 0.24458884E+00 0.27253398E+04</pdfrwt>
<pdfrwt beam="2">  1       -1 0.17968754E+00 0.27253398E+04</pdfrwt>
<totfact> 0.23563102E+00</totfact>
</mgrwt>
</event>
<event>
12    6  0.1402540E-007  0.2280450E+04  0.7818608E-02  0.8485670E-01
          2   -1    0    0  501    0  0.00000000000E+00  0.00000000000E+00  0.24754054172E+04  0.24754054172E+04  0.00000000000E+00 0. -1.
         -1   -1    0    0    0  501 -0.00000000000E+00 -0.00000000000E+00 -0.52521214266E+03  0.52521214266E+03  0.00000000000E+00 0.  1.
         24    2    1    2    0    0 -0.31145894223E+03 -0.35270318695E+03 -0.27748170512E+03  0.55213999830E+03  0.80350919514E+02 0.  0.
        254    2    1    2    0    0  0.31145894223E+03  0.35270318695E+03  0.22276749796E+04  0.24484775615E+04  0.90061109455E+03 0.  0.
         23    2    4    4    0    0 -0.66947821263E+02  0.55009951937E+03  0.10098791905E+04  0.11547243236E+04  0.80254544887E+02 0.  0.
         23    2    4    4    0    0  0.37840676349E+03 -0.19739633242E+03  0.12177957891E+04  0.12937532380E+04  0.92810915711E+02 0.  0.
          4    1    3    3  502    0 -0.13063857893E+03 -0.12709380318E+03 -0.65686673732E+02  0.19373696658E+03  0.00000000000E+00 0. -1.
         -1    1    3    3    0  502 -0.18082036330E+03 -0.22560938377E+03 -0.21179503139E+03  0.35840303173E+03  0.00000000000E+00 0.  1.
         11    1    5    5    0    0 -0.72506646225E+02  0.38542917357E+03  0.76334284354E+03  0.85819878722E+03  0.00000000000E+00 0. -1.
        -11    1    5    5    0    0  0.55588249620E+01  0.16467034580E+03  0.24653634699E+03  0.29652553636E+03  0.00000000000E+00 0.  1.
          4    1    6    6  503    0  0.86329129034E+02 -0.19690062963E+02  0.35027474962E+03  0.36129325668E+03  0.00000000000E+00 0.  1.
         -4    1    6    6    0  503  0.29207763446E+03 -0.17770626946E+03  0.86752103949E+03  0.93245998129E+03  0.00000000000E+00 0. -1.
<mgrwt>
<rscale>  0 0.22804499E+04</rscale>
<asrwt>0</asrwt>
<pdfrwt beam="1">  1        2 0.38083160E+00 0.22804499E+04</pdfrwt>
<pdfrwt beam="2">  1       -1 0.80801869E-01 0.22804499E+04</pdfrwt>
<totfact> 0.56752628E+00</totfact>
</mgrwt>
</event>
<event>
12    6  0.1402540E-007  0.2252647E+04  0.7818608E-02  0.8496829E-01
          2   -1    0    0  501    0  0.00000000000E+00  0.00000000000E+00  0.18185771404E+04  0.18185771404E+04  0.00000000000E+00 0. -1.
         -1   -1    0    0    0  501 -0.00000000000E+00 -0.00000000000E+00 -0.69758108021E+03  0.69758108021E+03  0.00000000000E+00 0.  1.
         24    2    1    2    0    0 -0.52861456771E+03 -0.70976274674E+03  0.84574359193E+03  0.12263401885E+04  0.73698825097E+02 0.  0.
        254    2    1    2    0    0  0.52861456771E+03  0.70976274674E+03  0.27525246827E+03  0.12898180321E+04  0.89703406669E+03 0.  0.
         23    2    4    4    0    0  0.18346984744E+03  0.11288208446E+03 -0.30371975052E+03  0.38484197501E+03  0.97232242412E+02 0.  0.
         23    2    4    4    0    0  0.34514472027E+03  0.59688066228E+03  0.57897221879E+03  0.90497605710E+03  0.91550154896E+02 0.  0.
          2    1    3    3  502    0 -0.17895159696E+03 -0.28697344401E+03  0.29181523994E+03  0.44669180190E+03  0.00000000000E+00 0. -1.
         -1    1    3    3    0  502 -0.34966297074E+03 -0.42278930273E+03  0.55392835199E+03  0.77964838661E+03  0.00000000000E+00 0.  1.
         11    1    5    5    0    0  0.11220748742E+03  0.78093813590E+02 -0.26131768587E+03  0.29491710175E+03  0.00000000000E+00 0.  1.
        -11    1    5    5    0    0  0.71262360013E+02  0.34788270872E+02 -0.42402064648E+02  0.89924873263E+02  0.00000000000E+00 0. -1.
          2    1    6    6  503    0  0.21412962188E+03  0.28533172053E+03  0.31922871104E+03  0.47871980914E+03  0.00000000000E+00 0.  1.
         -2    1    6    6    0  503  0.13101509839E+03  0.31154894174E+03  0.25974350775E+03  0.42625624796E+03  0.00000000000E+00 0. -1.
<mgrwt>
<rscale>  0 0.22526473E+04</rscale>
<asrwt>0</asrwt>
<pdfrwt beam="1">  1        2 0.27978110E+00 0.22526473E+04</pdfrwt>
<pdfrwt beam="2">  1       -1 0.10732017E+00 0.22526473E+04</pdfrwt>
<totfact> 0.70620376E+00</totfact>
</mgrwt>
</event>
<event>
12    6  0.1402540E-007  0.2203614E+04  0.7818608E-02  0.8516925E-01
          2   -1    0    0  501    0  0.00000000000E+00  0.00000000000E+00  0.70580108110E+03  0.70580108110E+03  0.00000000000E+00 0. -1.
         -1   -1    0    0    0  501 -0.00000000000E+00 -0.00000000000E+00 -0.17200007962E+04  0.17200007962E+04  0.00000000000E+00 0.  1.
         24    2    1    2    0    0 -0.70599554528E+03 -0.69569015248E+02  0.21470009037E+03  0.74553834876E+03  0.80384966458E+02 0.  0.
        254    2    1    2    0    0  0.70599554528E+03  0.69569015248E+02 -0.12288998055E+04  0.16802635285E+04  0.89990068099E+03 0.  0.
         23    2    4    4    0    0  0.90753047259E+03  0.84996096753E+02 -0.91459000316E+03  0.12944388085E+04  0.90890373371E+02 0.  0.
         23    2    4    4    0    0 -0.20153492731E+03 -0.15427081505E+02 -0.31430980230E+03  0.38582472003E+03  0.95998650980E+02 0.  0.
          2    1    3    3  502    0 -0.68748301638E+03 -0.55415063156E+02  0.21427557163E+03  0.72223109019E+03  0.00000000000E+00 0. -1.
         -1    1    3    3    0  502 -0.18512528901E+02 -0.14153952092E+02  0.42451873599E+00  0.23307258575E+02  0.00000000000E+00 0.  1.
         11    1    5    5    0    0  0.68848472335E+03  0.25130528615E+02 -0.68775651595E+03  0.97347407926E+03  0.00000000000E+00 0. -1.
        -11    1    5    5    0    0  0.21904574924E+03  0.59865568138E+02 -0.22683348720E+03  0.32096472926E+03  0.00000000000E+00 0.  1.
          3    1    6    6  503    0 -0.45477356369E+02  0.37384197631E+02 -0.76800184417E+02  0.96767951830E+02  0.00000000000E+00 0. -1.
         -3    1    6    6    0  503 -0.15605757094E+03 -0.52811279136E+02 -0.23750961788E+03  0.28905676820E+03  0.00000000000E+00 0.  1.
<mgrwt>
<rscale>  0 0.22036138E+04</rscale>
<asrwt>0</asrwt>
<pdfrwt beam="1">  1        2 0.10858478E+00 0.22036138E+04</pdfrwt>
<pdfrwt beam="2">  1       -1 0.26461551E+00 0.22036138E+04</pdfrwt>
<totfact> 0.23678319E+00</totfact>
</mgrwt>
</event>
<event>
12    6  0.1402540E-007  0.2591124E+04  0.7818608E-02  0.8371222E-01
         -1   -1    0    0    0  501 -0.00000000000E+00  0.00000000000E+00  0.56256414244E+03  0.56256414244E+03  0.00000000000E+00 0.  1.
          2   -1    0    0  501    0  0.00000000000E+00 -0.00000000000E+00 -0.29836261120E+04  0.29836261120E+04  0.00000000000E+00 0. -1.
         24    2    1    2    0    0  0.66206975230E+03  0.57153585396E+03 -0.20559953971E+04  0.22356576419E+04  0.77835915978E+02 0.  0.
        254    2    1    2    0    0 -0.66206975230E+03 -0.57153585396E+03 -0.36506657246E+03  0.13105326125E+04  0.90511465396E+03 0.  0.
         23    2    4    4    0    0  0.10316040706E+03 -0.79386208140E+02  0.18452987713E+03  0.24355437152E+03  0.91231665031E+02 0.  0.
         23    2    4    4    0    0 -0.76523015936E+03 -0.49214964582E+03 -0.54959644958E+03  0.10669782410E+04  0.92724531019E+02 0.  0.
          2    1    3    3  502    0  0.21700615768E+03  0.21179353385E+03 -0.79563669810E+03  0.85146105537E+03  0.00000000000E+00 0. -1.
         -1    1    3    3    0  502  0.44506359462E+03  0.35974232011E+03 -0.12603586990E+04  0.13841965866E+04  0.00000000000E+00 0.  1.
         11    1    5    5    0    0  0.52750945623E+02 -0.72038473867E+02  0.56247180649E+02  0.10552700750E+03  0.00000000000E+00 0. -1.
        -11    1    5    5    0    0  0.50409461440E+02 -0.73477342730E+01  0.12828269648E+03  0.13802736401E+03  0.00000000000E+00 0.  1.
          4    1    6    6  503    0 -0.74397672066E+03 -0.45756442833E+03 -0.53237174843E+03  0.10228813448E+04  0.00000000000E+00 0. -1.
         -4    1    6    6    0  503 -0.21253438703E+02 -0.34585217483E+02 -0.17224701146E+02  0.44096896201E+02  0.00000000000E+00 0.  1.
<mgrwt>
<rscale>  0 0.25911241E+04</rscale>
<asrwt>0</asrwt>
<pdfrwt beam="1">  1        2 0.45901940E+00 0.25911241E+04</pdfrwt>
<pdfrwt beam="2">  1       -1 0.86548330E-01 0.25911241E+04</pdfrwt>
<totfact> 0.23617498E+00</totfact>
</mgrwt>
</event>
<event>
12    6  0.1402540E-007  0.1315940E+04  0.7818608E-02  0.9017019E-01
          2   -1    0    0  501    0  0.00000000000E+00  0.00000000000E+00  0.24184999389E+04  0.24184999389E+04  0.00000000000E+00 0. -1.
         -1   -1    0    0    0  501 -0.00000000000E+00 -0.00000000000E+00 -0.17900551451E+03  0.17900551451E+03  0.00000000000E+00 0.  1.
         24    2    1    2    0    0  0.20023902747E+03 -0.21375804408E+03  0.24854125753E+03  0.39245334249E+03  0.80366036381E+02 0.  0.
        254    2    1    2    0    0 -0.20023902747E+03  0.21375804408E+03  0.19909531668E+04  0.22050521109E+04  0.90142782833E+03 0.  0.
         23    2    4    4    0    0 -0.21057794505E+03  0.54928254212E+03  0.13625024709E+04  0.14868637871E+04  0.91085431957E+02 0.  0.
         23    2    4    4    0    0  0.10338917577E+02 -0.33552449804E+03  0.62845069591E+03  0.71818832385E+03  0.90336090948E+02 0.  0.
          2    1    3    3  502    0  0.11289787517E+03 -0.80917548899E+02  0.15442077328E+03  0.20770015686E+03  0.00000000000E+00 0. -1.
         -1    1    3    3    0  502  0.87341152297E+02 -0.13284049518E+03  0.94120484251E+02  0.18475318563E+03  0.00000000000E+00 0.  1.
         11    1    5    5    0    0 -0.86439834456E+02  0.27095145319E+03  0.76436504102E+03  0.81556143294E+03  0.00000000000E+00 0.  1.
        -11    1    5    5    0    0 -0.12413811059E+03  0.27833108893E+03  0.59813742992E+03  0.67130235412E+03  0.00000000000E+00 0. -1.
          3    1    6    6  503    0  0.17865450797E+02 -0.33811161165E+03  0.62090525508E+03  0.70722130345E+03  0.00000000000E+00 0. -1.
         -3    1    6    6    0  503 -0.75265332197E+01  0.25871136153E+01  0.75454408230E+01  0.10967020397E+02  0.00000000000E+00 0.  1.
<mgrwt>
<rscale>  0 0.13159405E+04</rscale>
<asrwt>0</asrwt>
<pdfrwt beam="1">  1        2 0.37207689E+00 0.13159405E+04</pdfrwt>
<pdfrwt beam="2">  1       -1 0.27539312E-01 0.13159405E+04</pdfrwt>
<totfact> 0.51464363E+01</totfact>
</mgrwt>
</event>
<event>
12    6  0.1402540E-007  0.3242032E+04  0.7818608E-02  0.8177804E-01
         -1   -1    0    0    0  501 -0.00000000000E+00  0.00000000000E+00  0.94868626502E+03  0.94868626502E+03  0.00000000000E+00 0.  1.
          2   -1    0    0  501    0  0.00000000000E+00 -0.00000000000E+00 -0.27698220903E+04  0.27698220903E+04  0.00000000000E+00 0. -1.
         24    2    1    2    0    0 -0.13171582641E+04  0.50329073174E+03 -0.27081088435E+03  0.14379904573E+04  0.79186911477E+02 0.  0.
        254    2    1    2    0    0  0.13171582641E+04 -0.50329073174E+03 -0.15503249409E+04  0.22805178979E+04  0.89947040368E+03 0.  0.
         23    2    4    4    0    0  0.11221972612E+04 -0.53389976203E+03 -0.75659424867E+03  0.14576159696E+04  0.88508805834E+02 0.  0.
         23    2    4    4    0    0  0.19496100295E+03  0.30609030297E+02 -0.79373069224E+03  0.82290192840E+03  0.90622660279E+02 0.  0.
          4    1    3    3  502    0 -0.92233639572E+03  0.33956916469E+03 -0.22357402679E+03  0.10079667603E+04  0.00000000000E+00 0. -1.
         -3    1    3    3    0  502 -0.39482186840E+03  0.16372156705E+03 -0.47236857554E+02  0.43002369701E+03  0.00000000000E+00 0.  1.
         11    1    5    5    0    0  0.18496470842E+03 -0.12028844980E+03 -0.15431154498E+03  0.26924581228E+03  0.00000000000E+00 0. -1.
        -11    1    5    5    0    0  0.93723255275E+03 -0.41361131223E+03 -0.60228270369E+03  0.11883701573E+04  0.00000000000E+00 0.  1.
          3    1    6    6  503    0  0.20044025134E+03  0.41249576959E+02 -0.73454925606E+03  0.76252241379E+03  0.00000000000E+00 0. -1.
         -3    1    6    6    0  503 -0.54792483897E+01 -0.10640546662E+02 -0.59181436179E+02  0.60379514609E+02  0.00000000000E+00 0.  1.
<mgrwt>
<rscale>  0 0.32420316E+04</rscale>
<asrwt>0</asrwt>
<pdfrwt beam="1">  1        2 0.42612647E+00 0.32420316E+04</pdfrwt>
<pdfrwt beam="2">  1       -1 0.14595174E+00 0.32420316E+04</pdfrwt>
<totfact> 0.86283968E-01</totfact>
</mgrwt>
</event>
<event>
12    6  0.1402540E-007  0.1729491E+04  0.7818608E-02  0.8744721E-01
          2   -1    0    0  501    0  0.00000000000E+00  0.00000000000E+00  0.17923732701E+04  0.17923732701E+04  0.00000000000E+00 0. -1.
         -1   -1    0    0    0  501 -0.00000000000E+00 -0.00000000000E+00 -0.41720373393E+03  0.41720373393E+03  0.00000000000E+00 0.  1.
         24    2    1    2    0    0  0.78065625954E+02 -0.60586520637E+03  0.31978764095E+03  0.69425401214E+03  0.80979057925E+02 0.  0.
        254    2    1    2    0    0 -0.78065625954E+02  0.60586520637E+03  0.10553818953E+04  0.15153229919E+04  0.89955874447E+03 0.  0.
         23    2    4    4    0    0 -0.31786437094E+02  0.17080604791E+02  0.88908640093E+03  0.89440559404E+03  0.90468854804E+02 0.  0.
         23    2    4    4    0    0 -0.46279188859E+02  0.58878460158E+03  0.16629549433E+03  0.62091739788E+03  0.95263598349E+02 0.  0.
          2    1    3    3  502    0 -0.37542818997E+01 -0.26967041301E+03  0.15416850455E+03  0.31065117750E+03  0.00000000000E+00 0. -1.
         -1    1    3    3    0  502  0.81819907853E+02 -0.33619479336E+03  0.16561913640E+03  0.38360283465E+03  0.00000000000E+00 0.  1.
         11    1    5    5    0    0  0.58386035312E+01  0.42998723091E+02  0.61575175683E+03  0.61727887176E+03  0.00000000000E+00 0. -1.
        -11    1    5    5    0    0 -0.37625040626E+02 -0.25918118300E+02  0.27333464410E+03  0.27712672228E+03  0.00000000000E+00 0.  1.
          2    1    6    6  503    0 -0.37373518080E+02  0.55128967254E+03  0.12926944433E+03  0.56747482072E+03  0.00000000000E+00 0. -1.
         -2    1    6    6    0  503 -0.89056707797E+01  0.37494929037E+02  0.37026049991E+02  0.53442577159E+02  0.00000000000E+00 0.  1.
<mgrwt>
<rscale>  0 0.17294910E+04</rscale>
<asrwt>0</asrwt>
<pdfrwt beam="1">  1        2 0.27574973E+00 0.17294910E+04</pdfrwt>
<pdfrwt beam="2">  1       -1 0.64185191E-01 0.17294910E+04</pdfrwt>
<totfact> 0.23192279E+01</totfact>
</mgrwt>
</event>
<event>
12    6  0.1402540E-007  0.5823564E+04  0.7818608E-02  0.7712671E-01
          2   -1    0    0  501    0  0.00000000000E+00  0.00000000000E+00  0.42255923130E+04  0.42255923130E+04  0.00000000000E+00 0. -1.
         -1   -1    0    0    0  501 -0.00000000000E+00 -0.00000000000E+00 -0.20064583916E+04  0.20064583916E+04  0.00000000000E+00 0.  1.
         24    2    1    2    0    0 -0.89516900289E+02  0.23991260990E+04  0.27098195699E+04  0.36212360133E+04  0.80055281182E+02 0.  0.
        254    2    1    2    0    0  0.89516900289E+02 -0.23991260990E+04 -0.49068564852E+03  0.26108146913E+04  0.90097815311E+03 0.  0.
         23    2    4    4    0    0  0.43278997372E+03 -0.87908645132E+03 -0.39942342206E+02  0.98604621227E+03  0.10291545942E+03 0.  0.
         23    2    4    4    0    0 -0.34327307343E+03 -0.15200396477E+04 -0.45074330632E+03  0.16247684790E+04  0.91357259341E+02 0.  0.
          4    1    3    3  502    0 -0.19373578997E+02  0.57267187937E+03  0.59617005543E+03  0.82689004830E+03  0.00000000000E+00 0. -1.
         -3    1    3    3    0  502 -0.70143321292E+02  0.18264542196E+04  0.21136495145E+04  0.27943459650E+04  0.00000000000E+00 0.  1.
         11    1    5    5    0    0  0.31656413376E+03 -0.54978391195E+03 -0.52761936200E+02  0.63659957786E+03  0.00000000000E+00 0. -1.
        -11    1    5    5    0    0  0.11622583996E+03 -0.32930253937E+03  0.12819593994E+02  0.34944663441E+03  0.00000000000E+00 0.  1.
          1    1    6    6  503    0 -0.30128282227E+03 -0.12615420904E+04 -0.40606860788E+03  0.13590995177E+04  0.00000000000E+00 0. -1.
         -1    1    6    6    0  503 -0.41990251162E+02 -0.25849755728E+03 -0.44674698436E+02  0.26566896129E+03  0.00000000000E+00 0.  1.
<mgrwt>
<rscale>  0 0.58235643E+04</rscale>
<asrwt>0</asrwt>
<pdfrwt beam="1">  1        2 0.65009112E+00 0.58235643E+04</pdfrwt>
<pdfrwt beam="2">  1       -1 0.30868591E+00 0.58235643E+04</pdfrwt>
<totfact> 0.49258131E-03</totfact>
</mgrwt>
</event>
<event>
12    6  0.1402540E-007  0.1419834E+04  0.7818608E-02  0.8939586E-01
          2   -1    0    0  501    0  0.00000000000E+00  0.00000000000E+00  0.14906789015E+04  0.14906789015E+04  0.00000000000E+00 0. -1.
         -1   -1    0    0    0  501 -0.00000000000E+00 -0.00000000000E+00 -0.33808890307E+03  0.33808890307E+03  0.00000000000E+00 0.  1.
         24    2    1    2    0    0  0.29396196374E+03  0.26533627399E+03  0.16971054999E+03  0.43831417881E+03  0.80626758246E+02 0.  0.
        254    2    1    2    0    0 -0.29396196374E+03 -0.26533627399E+03  0.98287944842E+03  0.13904536257E+04  0.90027345890E+03 0.  0.
         23    2    4    4    0    0  0.14513323273E+03 -0.33306275944E+03  0.80754172097E+02  0.38087348682E+03  0.80925395771E+02 0.  0.
         23    2    4    4    0    0 -0.43909519647E+03  0.67726485446E+02  0.90212527632E+03  0.10095801389E+04  0.89613471825E+02 0.  0.
          2    1    3    3  502    0  0.14005450861E+03  0.75798352385E+02  0.54278806794E+02  0.16824638027E+03  0.00000000000E+00 0. -1.
         -1    1    3    3    0  502  0.15390745513E+03  0.18953792161E+03  0.11543174320E+03  0.27006779854E+03  0.00000000000E+00 0.  1.
         11    1    5    5    0    0  0.74790056474E+02 -0.79998339937E+02  0.21181580867E+02  0.11154347273E+03  0.00000000000E+00 0. -1.
        -11    1    5    5    0    0  0.70343176261E+02 -0.25306441950E+03  0.59572591230E+02  0.26933001409E+03  0.00000000000E+00 0.  1.
          1    1    6    6  503    0 -0.25029709864E+03  0.57007960309E+02  0.60722524082E+03  0.65925794513E+03  0.00000000000E+00 0.  1.
         -1    1    6    6    0  503 -0.18879809783E+03  0.10718525137E+02  0.29490003550E+03  0.35032219380E+03  0.00000000000E+00 0. -1.
<mgrwt>
<rscale>  0 0.14198338E+04</rscale>
<asrwt>0</asrwt>
<pdfrwt beam="1">  1        2 0.22933521E+00 0.14198338E+04</pdfrwt>
<pdfrwt beam="2">  1       -1 0.52013678E-01 0.14198338E+04</pdfrwt>
<totfact> 0.52954305E+01</totfact>
</mgrwt>
</event>
<event>
12    6  0.1402540E-007  0.2556921E+04  0.7818608E-02  0.8382983E-01
         -1   -1    0    0    0  501 -0.00000000000E+00  0.00000000000E+00  0.11495439898E+04  0.11495439898E+04  0.00000000000E+00 0.  1.
          2   -1    0    0  501    0  0.00000000000E+00 -0.00000000000E+00 -0.14218340717E+04  0.14218340717E+04  0.00000000000E+00 0. -1.
         24    2    1    2    0    0 -0.24652525460E+02  0.57554781540E+03 -0.10836977438E+04  0.12299241525E+04  0.80309315118E+02 0.  0.
        254    2    1    2    0    0  0.24652525460E+02 -0.57554781540E+03  0.81140766197E+03  0.13414539090E+04  0.89958499396E+03 0.  0.
         23    2    4    4    0    0  0.28244711968E+03 -0.13808349368E+03 -0.55464776974E+02  0.33194801423E+03  0.90937979002E+02 0.  0.
         23    2    4    4    0    0 -0.25779459422E+03 -0.43746432172E+03  0.86687243895E+03  0.10095058948E+04  0.99001215470E+02 0.  0.
          4    1    3    3  502    0 -0.43268642661E+02  0.48474403775E+03 -0.94747212195E+03  0.10651536882E+04  0.00000000000E+00 0. -1.
         -3    1    3    3    0  502  0.18616117200E+02  0.90803777646E+02 -0.13622562187E+03  0.16477046431E+03  0.00000000000E+00 0.  1.
         11    1    5    5    0    0  0.12646123146E+03 -0.18459824995E+02 -0.43531792570E+02  0.13501194453E+03  0.00000000000E+00 0. -1.
        -11    1    5    5    0    0  0.15598588822E+03 -0.11962366868E+03 -0.11932984405E+02  0.19693606970E+03  0.00000000000E+00 0.  1.
          1    1    6    6  503    0 -0.13831358711E+03 -0.26479838471E+03  0.41620615497E+03  0.51232450298E+03  0.00000000000E+00 0. -1.
         -1    1    6    6    0  503 -0.11948100711E+03 -0.17266593701E+03  0.45066628398E+03  0.49718139183E+03  0.00000000000E+00 0.  1.
<mgrwt>
<rscale>  0 0.25569207E+04</rscale>
<asrwt>0</asrwt>
<pdfrwt beam="1">  1        2 0.21874370E+00 0.25569207E+04</pdfrwt>
<pdfrwt beam="2">  1       -1 0.17685292E+00 0.25569207E+04</pdfrwt>
<totfact> 0.31179669E+00</totfact>
</mgrwt>
</event>
<event>
12    6  0.1402540E-007  0.1482229E+04  0.7818608E-02  0.8896357E-01
         -1   -1    0    0    0  501 -0.00000000000E+00  0.00000000000E+00  0.30122952726E+03  0.30122952726E+03  0.00000000000E+00 0.  1.
          2   -1    0    0  501    0  0.00000000000E+00 -0.00000000000E+00 -0.18233635614E+04  0.18233635614E+04  0.00000000000E+00 0. -1.
         24    2    1    2    0    0 -0.43278136565E+02 -0.26876019769E+03 -0.10252799716E+04  0.10634121359E+04  0.74439974287E+02 0.  0.
        254    2    1    2    0    0  0.43278136565E+02  0.26876019769E+03 -0.49685406258E+03  0.10611809527E+04  0.89729371669E+03 0.  0.
         23    2    4    4    0    0  0.18413879874E+02  0.34416488936E+03  0.16200489188E+03  0.39145675610E+03  0.90577397074E+02 0.  0.
         23    2    4    4    0    0  0.24864256690E+02 -0.75404691672E+02 -0.65885895446E+03  0.66972419665E+03  0.90173604342E+02 0.  0.
          4    1    3    3  502    0 -0.32101320639E+02 -0.26304929577E+03 -0.92059237709E+03  0.95797481780E+03  0.00000000000E+00 0. -1.
         -3    1    3    3    0  502 -0.11176815926E+02 -0.57109019136E+01 -0.10468759448E+03  0.10543731812E+03  0.00000000000E+00 0.  1.
         11    1    5    5    0    0  0.97513739083E+00  0.18908856789E+03  0.39767147352E+02  0.19322749134E+03  0.00000000000E+00 0. -1.
        -11    1    5    5    0    0  0.17438742484E+02  0.15507632147E+03  0.12223774453E+03  0.19822926476E+03  0.00000000000E+00 0.  1.
          2    1    6    6  503    0 -0.17458564739E+02 -0.69885689809E+02 -0.30973107711E+03  0.31799709315E+03  0.00000000000E+00 0. -1.
         -2    1    6    6    0  503  0.42322821429E+02 -0.55190018630E+01 -0.34912787735E+03  0.35172710351E+03  0.00000000000E+00 0.  1.
<mgrwt>
<rscale>  0 0.14822293E+04</rscale>
<asrwt>0</asrwt>
<pdfrwt beam="1">  1        2 0.28051748E+00 0.14822293E+04</pdfrwt>
<pdfrwt beam="2">  1       -1 0.46343003E-01 0.14822293E+04</pdfrwt>
<totfact> 0.42781515E+01</totfact>
</mgrwt>
</event>
<event>
12    6  0.1402540E-007  0.1700722E+04  0.7818608E-02  0.8760953E-01
         -1   -1    0    0    0  501 -0.00000000000E+00  0.00000000000E+00  0.32437109072E+03  0.32437109072E+03  0.00000000000E+00 0.  1.
          2   -1    0    0  501    0  0.00000000000E+00 -0.00000000000E+00 -0.22292796399E+04  0.22292796399E+04  0.00000000000E+00 0. -1.
         24    2    1    2    0    0  0.69548274012E+02 -0.45406965363E+03 -0.12892421393E+04  0.13708698647E+04  0.78247553369E+02 0.  0.
        254    2    1    2    0    0 -0.69548274012E+02  0.45406965363E+03 -0.61566640992E+03  0.11827808659E+04  0.89939381568E+03 0.  0.
         23    2    4    4    0    0 -0.44471918377E+03  0.21099535723E+03 -0.51217033282E+03  0.71610132071E+03  0.90490101799E+02 0.  0.
         23    2    4    4    0    0  0.37517090975E+03  0.24307429639E+03 -0.10349607711E+03  0.46667954519E+03  0.85088394225E+02 0.  0.
          4    1    3    3  502    0 -0.11555109255E+02 -0.14399129541E+03 -0.35967970576E+03  0.38760354028E+03  0.00000000000E+00 0. -1.
         -3    1    3    3    0  502  0.81103383267E+02 -0.31007835822E+03 -0.92956243350E+03  0.98326632444E+03  0.00000000000E+00 0.  1.
         11    1    5    5    0    0 -0.42808469307E+03  0.19259696794E+03 -0.45480590449E+03  0.65360424360E+03  0.00000000000E+00 0.  1.
        -11    1    5    5    0    0 -0.16634490694E+02  0.18398389290E+02 -0.57364428331E+02  0.62497077106E+02  0.00000000000E+00 0. -1.
          2    1    6    6  503    0  0.88226415389E+02  0.74369735086E+02 -0.62702136073E+02  0.13132522887E+03  0.00000000000E+00 0. -1.
         -2    1    6    6    0  503  0.28694449436E+03  0.16870456131E+03 -0.40793941035E+02  0.33535431633E+03  0.00000000000E+00 0.  1.
<mgrwt>
<rscale>  0 0.17007220E+04</rscale>
<asrwt>0</asrwt>
<pdfrwt beam="1">  1        2 0.34296610E+00 0.17007220E+04</pdfrwt>
<pdfrwt beam="2">  1       -1 0.49903245E-01 0.17007220E+04</pdfrwt>
<totfact> 0.21714913E+01</totfact>
</mgrwt>
</event>
<event>
12    6  0.1402540E-007  0.1403644E+04  0.7818608E-02  0.8951185E-01
          2   -1    0    0  501    0  0.00000000000E+00  0.00000000000E+00  0.16086002164E+04  0.16086002164E+04  0.00000000000E+00 0. -1.
         -1   -1    0    0    0  501 -0.00000000000E+00 -0.00000000000E+00 -0.30620029286E+03  0.30620029286E+03  0.00000000000E+00 0.  1.
         24    2    1    2    0    0  0.30496447762E+03 -0.19732499741E+03  0.63915528282E+03  0.73935822233E+03  0.78680481379E+02 0.  0.
        254    2    1    2    0    0 -0.30496447762E+03  0.19732499741E+03  0.66324464066E+03  0.11754422869E+04  0.89990590019E+03 0.  0.
         23    2    4    4    0    0  0.31122663274E+03  0.48841995315E+02  0.18817037242E+03  0.37819335894E+03  0.91512678109E+02 0.  0.
         23    2    4    4    0    0 -0.61619111037E+03  0.14848300210E+03  0.47507426825E+03  0.79724892794E+03  0.90396937703E+02 0.  0.
          4    1    3    3  502    0  0.20013316990E+03 -0.12834728955E+03  0.48850345866E+03  0.54328808338E+03  0.00000000000E+00 0. -1.
         -3    1    3    3    0  502  0.10483130773E+03 -0.68977707860E+02  0.15065182417E+03  0.19607013895E+03  0.00000000000E+00 0.  1.
         11    1    5    5    0    0  0.71614859122E+02  0.19487414720E+02  0.92327376789E+02  0.11846008562E+03  0.00000000000E+00 0. -1.
        -11    1    5    5    0    0  0.23961177362E+03  0.29354580594E+02  0.95842995628E+02  0.25973327332E+03  0.00000000000E+00 0.  1.
          3    1    6    6  503    0 -0.48903494106E+03  0.98713611840E+02  0.33082057336E+03  0.59861657386E+03  0.00000000000E+00 0. -1.
         -3    1    6    6    0  503 -0.12715616931E+03  0.49769390257E+02  0.14425369489E+03  0.19863235408E+03  0.00000000000E+00 0.  1.
<mgrwt>
<rscale>  0 0.14036436E+04</rscale>
<asrwt>0</asrwt>
<pdfrwt beam="1">  1        2 0.24747695E+00 0.14036436E+04</pdfrwt>
<pdfrwt beam="2">  1       -1 0.47107738E-01 0.14036436E+04</pdfrwt>
<totfact> 0.54943186E+01</totfact>
</mgrwt>
</event>
<event>
12    6  0.1402540E-007  0.1675939E+04  0.7818608E-02  0.8775207E-01
         -1   -1    0    0    0  501 -0.00000000000E+00  0.00000000000E+00  0.57246484767E+03  0.57246484767E+03  0.00000000000E+00 0.  1.
          2   -1    0    0  501    0  0.00000000000E+00 -0.00000000000E+00 -0.12266136838E+04  0.12266136838E+04  0.00000000000E+00 0. -1.
         24    2    1    2    0    0 -0.29607362830E+03  0.47801951094E+03 -0.33568700164E+02  0.56892553960E+03  0.79919745794E+02 0.  0.
        254    2    1    2    0    0  0.29607362830E+03 -0.47801951094E+03 -0.62058013593E+03  0.12301529918E+04  0.90110733655E+03 0.  0.
         23    2    4    4    0    0  0.59885994112E+02 -0.16222054822E+03  0.22238849935E+03  0.29491937434E+03  0.87286620761E+02 0.  0.
         23    2    4    4    0    0  0.23618763419E+03 -0.31579896272E+03 -0.84296863528E+03  0.93523361750E+03  0.92478191111E+02 0.  0.
          4    1    3    3  502    0 -0.74017318786E+02  0.78116625092E+02 -0.29126045524E+02  0.11148586065E+03  0.00000000000E+00 0. -1.
         -3    1    3    3    0  502 -0.22205630952E+03  0.39990288585E+03 -0.44426546406E+01  0.45743967896E+03  0.00000000000E+00 0.  1.
         11    1    5    5    0    0  0.21150708691E+02 -0.42587908722E+01  0.29452521908E+01  0.21775313736E+02  0.00000000000E+00 0. -1.
        -11    1    5    5    0    0  0.38735285420E+02 -0.15796175734E+03  0.21944324715E+03  0.27314406060E+03  0.00000000000E+00 0.  1.
          1    1    6    6  503    0 -0.64833977843E+01 -0.11275557546E+02 -0.12647169020E+02  0.18141762015E+02  0.00000000000E+00 0. -1.
         -1    1    6    6    0  503  0.24267103197E+03 -0.30452340518E+03 -0.83032146626E+03  0.91709185548E+03  0.00000000000E+00 0.  1.
<mgrwt>
<rscale>  0 0.16759394E+04</rscale>
<asrwt>0</asrwt>
<pdfrwt beam="1">  1        2 0.18870980E+00 0.16759394E+04</pdfrwt>
<pdfrwt beam="2">  1       -1 0.88071515E-01 0.16759394E+04</pdfrwt>
<totfact> 0.25151847E+01</totfact>
</mgrwt>
</event>
<event>
12    6  0.1402540E-007  0.1179277E+04  0.7818608E-02  0.9131191E-01
         -1   -1    0    0    0  501 -0.00000000000E+00  0.00000000000E+00  0.42375729866E+03  0.42375729866E+03  0.00000000000E+00 0.  1.
          2   -1    0    0  501    0  0.00000000000E+00 -0.00000000000E+00 -0.82045446116E+03  0.82045446116E+03  0.00000000000E+00 0. -1.
         24    2    1    2    0    0  0.22654838103E+03 -0.57905837477E+02 -0.51987825675E+02  0.25218365850E+03  0.78845473120E+02 0.  0.
        254    2    1    2    0    0 -0.22654838103E+03  0.57905837477E+02 -0.34470933682E+03  0.99202810133E+03  0.90034325230E+03 0.  0.
         23    2    4    4    0    0 -0.32314078558E+03  0.41632131773E+03 -0.28252861914E+03  0.60483517109E+03  0.90883203293E+02 0.  0.
         23    2    4    4    0    0  0.96592404549E+02 -0.35841548026E+03 -0.62180717681E+02  0.38719293024E+03  0.90885502008E+02 0.  0.
          2    1    3    3  502    0  0.13301617903E+03 -0.27357303276E+02 -0.69007788173E+02  0.15232793820E+03  0.00000000000E+00 0. -1.
         -1    1    3    3    0  502  0.93532202001E+02 -0.30548534202E+02  0.17019962498E+02  0.99855720299E+02  0.00000000000E+00 0.  1.
         11    1    5    5    0    0 -0.26848001187E+03  0.35173613082E+03 -0.27240783314E+03  0.51962087146E+03  0.00000000000E+00 0. -1.
        -11    1    5    5    0    0 -0.54660773719E+02  0.64585186913E+02 -0.10120786001E+02  0.85214299630E+02  0.00000000000E+00 0.  1.
          3    1    6    6  503    0  0.37196325379E+02 -0.87655998508E+02  0.21541481816E+02  0.97627742650E+02  0.00000000000E+00 0. -1.
         -3    1    6    6    0  503  0.59396079170E+02 -0.27075948175E+03 -0.83722199496E+02  0.28956518759E+03  0.00000000000E+00 0.  1.
<mgrwt>
<rscale>  0 0.11792770E+04</rscale>
<asrwt>0</asrwt>
<pdfrwt beam="1">  1        2 0.12622376E+00 0.11792770E+04</pdfrwt>
<pdfrwt beam="2">  1       -1 0.65193431E-01 0.11792770E+04</pdfrwt>
<totfact> 0.89606243E+01</totfact>
</mgrwt>
</event>
<event>
12    6  0.1402540E-007  0.1224333E+04  0.7818608E-02  0.9091820E-01
          2   -1    0    0  501    0  0.00000000000E+00  0.00000000000E+00  0.31239809774E+04  0.31239809774E+04  0.00000000000E+00 0. -1.
         -1   -1    0    0    0  501 -0.00000000000E+00 -0.00000000000E+00 -0.11995849754E+03  0.11995849754E+03  0.00000000000E+00 0.  1.
         24    2    1    2    0    0  0.42228833955E+02 -0.25171595618E+03  0.95602803717E+03  0.99256765161E+03  0.77825048366E+02 0.  0.
        254    2    1    2    0    0 -0.42228833955E+02  0.25171595618E+03  0.20479944427E+04  0.22513718234E+04  0.89958304375E+03 0.  0.
         23    2    4    4    0    0  0.15027691211E+03  0.45777076145E+03  0.17965115911E+04  0.18622244775E+04  0.91043327145E+02 0.  0.
         23    2    4    4    0    0 -0.19250574607E+03 -0.20605480526E+03  0.25148285166E+03  0.38914734587E+03  0.93139610666E+02 0.  0.
          2    1    3    3  502    0  0.59401587818E+02 -0.14795511496E+03  0.51173913729E+03  0.53600019525E+03  0.00000000000E+00 0. -1.
         -1    1    3    3    0  502 -0.17172753864E+02 -0.10376084122E+03  0.44428889988E+03  0.45656745636E+03  0.00000000000E+00 0.  1.
         11    1    5    5    0    0  0.15437861315E+03  0.35772664663E+03  0.13911539894E+04  0.14446835405E+04  0.00000000000E+00 0.  1.
        -11    1    5    5    0    0 -0.41017010347E+01  0.10004411481E+03  0.40535760163E+03  0.41754093698E+03  0.00000000000E+00 0. -1.
          4    1    6    6  503    0 -0.67606569820E+02 -0.88185713571E+02  0.15932663552E+03  0.19424815352E+03  0.00000000000E+00 0. -1.
         -4    1    6    6    0  503 -0.12489917625E+03 -0.11786909169E+03  0.92156216144E+02  0.19489919235E+03  0.00000000000E+00 0.  1.
<mgrwt>
<rscale>  0 0.12243334E+04</rscale>
<asrwt>0</asrwt>
<pdfrwt beam="1">  1        2 0.48061240E+00 0.12243334E+04</pdfrwt>
<pdfrwt beam="2">  1       -1 0.18455156E-01 0.12243334E+04</pdfrwt>
<totfact> 0.38742863E+01</totfact>
</mgrwt>
</event>
<event>
12    6  0.1402540E-007  0.2572401E+04  0.7818608E-02  0.8377637E-01
         -1   -1    0    0    0  501 -0.00000000000E+00  0.00000000000E+00  0.51062578314E+03  0.51062578314E+03  0.00000000000E+00 0.  1.
          2   -1    0    0  501    0  0.00000000000E+00 -0.00000000000E+00 -0.32397738800E+04  0.32397738800E+04  0.00000000000E+00 0. -1.
         24    2    1    2    0    0  0.10674824881E+04  0.23245306838E+03 -0.16052166775E+04  0.19437066118E+04  0.87872176264E+02 0.  0.
        254    2    1    2    0    0 -0.10674824881E+04 -0.23245306838E+03 -0.11239314193E+04  0.18066930514E+04  0.89853472665E+03 0.  0.
         23    2    4    4    0    0 -0.57731269864E+03 -0.15828988398E+03 -0.35580469736E+02  0.60700827593E+03  0.94060819925E+02 0.  0.
         23    2    4    4    0    0 -0.49016978950E+03 -0.74163184407E+02 -0.10883509496E+04  0.11996847754E+04  0.94705704491E+02 0.  0.
          2    1    3    3  502    0  0.22766115857E+03  0.40862258373E+02 -0.40452977769E+03  0.46598676839E+03  0.00000000000E+00 0. -1.
         -1    1    3    3    0  502  0.83982132958E+03  0.19159081001E+03 -0.12006868999E+04  0.14777198434E+04  0.00000000000E+00 0.  1.
         11    1    5    5    0    0 -0.92240181165E+02 -0.52630649463E+02  0.17871982041E+02  0.10769235825E+03  0.00000000000E+00 0. -1.
        -11    1    5    5    0    0 -0.48507251748E+03 -0.10565923451E+03 -0.53452451776E+02  0.49931591768E+03  0.00000000000E+00 0.  1.
          3    1    6    6  503    0 -0.29909685596E+03 -0.34776867530E+02 -0.54930926192E+03  0.62642559413E+03  0.00000000000E+00 0. -1.
         -3    1    6    6    0  503 -0.19107293354E+03 -0.39386316876E+02 -0.53904168766E+03  0.57325918128E+03  0.00000000000E+00 0.  1.
<mgrwt>
<rscale>  0 0.25724013E+04</rscale>
<asrwt>0</asrwt>
<pdfrwt beam="1">  1        2 0.49842674E+00 0.25724013E+04</pdfrwt>
<pdfrwt beam="2">  1       -1 0.78557814E-01 0.25724013E+04</pdfrwt>
<totfact> 0.19966702E+00</totfact>
</mgrwt>
</event>
<event>
12    6  0.1402540E-007  0.1709692E+04  0.7818608E-02  0.8755856E-01
          2   -1    0    0  501    0  0.00000000000E+00  0.00000000000E+00  0.79644639449E+03  0.79644639449E+03  0.00000000000E+00 0. -1.
         -1   -1    0    0    0  501 -0.00000000000E+00 -0.00000000000E+00 -0.91752792544E+03  0.91752792544E+03  0.00000000000E+00 0.  1.
         24    2    1    2    0    0 -0.29385470226E+03  0.47582853853E+03  0.21232439816E+03  0.60359602132E+03  0.80517841350E+02 0.  0.
        254    2    1    2    0    0  0.29385470226E+03 -0.47582853853E+03 -0.33340592911E+03  0.11103782986E+04  0.89945376108E+03 0.  0.
         23    2    4    4    0    0 -0.26956576141E+03 -0.20336215464E+03 -0.32558000985E+03  0.47776817491E+03  0.90764643310E+02 0.  0.
         23    2    4    4    0    0  0.56342046367E+03 -0.27246638389E+03 -0.78259192602E+01  0.63261012370E+03  0.91944409066E+02 0.  0.
          2    1    3    3  502    0 -0.24378208949E+03  0.44029916004E+03  0.18261833392E+03  0.53539005722E+03  0.00000000000E+00 0. -1.
         -1    1    3    3    0  502 -0.50072612774E+02  0.35529378491E+02  0.29706064234E+02  0.68205964096E+02  0.00000000000E+00 0.  1.
         11    1    5    5    0    0 -0.11175187155E+03 -0.91377937850E+02 -0.20158429511E+03  0.24794079204E+03  0.00000000000E+00 0.  1.
        -11    1    5    5    0    0 -0.15781388986E+03 -0.11198421679E+03 -0.12399571474E+03  0.22982738287E+03  0.00000000000E+00 0. -1.
          1    1    6    6  503    0  0.35442442877E+03 -0.13041576795E+03  0.21176387514E+02  0.37825042978E+03  0.00000000000E+00 0. -1.
         -1    1    6    6    0  503  0.20899603490E+03 -0.14205061593E+03 -0.29002306774E+02  0.25435969392E+03  0.00000000000E+00 0.  1.
<mgrwt>
<rscale>  0 0.17096921E+04</rscale>
<asrwt>0</asrwt>
<pdfrwt beam="1">  1        2 0.12253021E+00 0.17096921E+04</pdfrwt>
<pdfrwt beam="2">  1       -1 0.14115814E+00 0.17096921E+04</pdfrwt>
<totfact> 0.15430270E+01</totfact>
</mgrwt>
</event>
<event>
12    6  0.1402540E-007  0.1663387E+04  0.7818608E-02  0.8782526E-01
          2   -1    0    0  501    0  0.00000000000E+00  0.00000000000E+00  0.59434941872E+03  0.59434941872E+03  0.00000000000E+00 0. -1.
         -3   -1    0    0    0  501 -0.00000000000E+00 -0.00000000000E+00 -0.11638169901E+04  0.11638169901E+04  0.00000000000E+00 0.  1.
         24    2    1    2    0    0 -0.32338888099E+03  0.42747011115E+03 -0.44582017759E+03  0.70364800471E+03  0.95151560732E+02 0.  0.
        254    2    1    2    0    0  0.32338888099E+03 -0.42747011115E+03 -0.12364739382E+03  0.10545184041E+04  0.89967178593E+03 0.  0.
         23    2    4    4    0    0  0.46086469710E+03 -0.33897530588E+03  0.25415641231E+03  0.63266876668E+03  0.91508247626E+02 0.  0.
         23    2    4    4    0    0 -0.13747581611E+03 -0.88494805273E+02 -0.37780380613E+03  0.42184963746E+03  0.92143747052E+02 0.  0.
          4    1    3    3  502    0 -0.32452867927E+03  0.39734500158E+03 -0.40934432047E+03  0.65632666154E+03  0.00000000000E+00 0. -1.
         -3    1    3    3    0  502  0.11397982761E+01  0.30125109568E+02 -0.36475857118E+02  0.47321343167E+02  0.00000000000E+00 0.  1.
         11    1    5    5    0    0  0.22584937800E+03 -0.15830542973E+03  0.17206514919E+03  0.32507686197E+03  0.00000000000E+00 0.  1.
        -11    1    5    5    0    0  0.23501531911E+03 -0.18066987615E+03  0.82091263122E+02  0.30759190471E+03  0.00000000000E+00 0. -1.
          2    1    6    6  503    0 -0.29659687532E+02  0.19053562414E+02 -0.64925477905E+02  0.73878636874E+02  0.00000000000E+00 0. -1.
         -2    1    6    6    0  503 -0.10781612858E+03 -0.10754836769E+03 -0.31287832823E+03  0.34797100059E+03  0.00000000000E+00 0.  1.
<mgrwt>
<rscale>  0 0.16633868E+04</rscale>
<asrwt>0</asrwt>
<pdfrwt beam="1">  1        2 0.91438373E-01 0.16633868E+04</pdfrwt>
<pdfrwt beam="2">  1       -3 0.17904877E+00 0.16633868E+04</pdfrwt>
<totfact> 0.60240939E+00</totfact>
</mgrwt>
</event>
<event>
12    6  0.1402540E-007  0.2126164E+04  0.7818608E-02  0.8549805E-01
          2   -1    0    0  501    0  0.00000000000E+00  0.00000000000E+00  0.22818290404E+04  0.22818290404E+04  0.00000000000E+00 0. -1.
         -1   -1    0    0    0  501 -0.00000000000E+00 -0.00000000000E+00 -0.49527947106E+03  0.49527947106E+03  0.00000000000E+00 0.  1.
         24    2    1    2    0    0 -0.62072167652E+03 -0.59893491005E+03  0.88487355084E+03  0.12383731781E+04  0.80922808745E+02 0.  0.
        254    2    1    2    0    0  0.62072167652E+03  0.59893491005E+03  0.90167601853E+03  0.15387353334E+04  0.90037123330E+03 0.  0.
         23    2    4    4    0    0  0.44024264225E+03  0.66519989559E+03  0.10176766395E+04  0.12962508372E+04  0.91082409216E+02 0.  0.
         23    2    4    4    0    0  0.18047903428E+03 -0.66264985541E+02 -0.11600062096E+03  0.24248449621E+03  0.91536095163E+02 0.  0.
          2    1    3    3  502    0 -0.37059350096E+03 -0.40848785756E+03  0.58222581813E+03  0.80199050869E+03  0.00000000000E+00 0. -1.
         -1    1    3    3    0  502 -0.25012817556E+03 -0.19044705249E+03  0.30264773271E+03  0.43638266937E+03  0.00000000000E+00 0.  1.
         11    1    5    5    0    0  0.30924421534E+03  0.42759924267E+03  0.61051738932E+03  0.80697247767E+03  0.00000000000E+00 0.  1.
        -11    1    5    5    0    0  0.13099842691E+03  0.23760065292E+03  0.40715925017E+03  0.48927835954E+03  0.00000000000E+00 0. -1.
          1    1    6    6  503    0  0.16808330932E+03 -0.42145309702E+02 -0.12527147805E+03  0.21382509023E+03  0.00000000000E+00 0. -1.
         -1    1    6    6    0  503  0.12395724960E+02 -0.24119675839E+02  0.92708570892E+01  0.28659405979E+02  0.00000000000E+00 0.  1.
<mgrwt>
<rscale>  0 0.21261638E+04</rscale>
<asrwt>0</asrwt>
<pdfrwt beam="1">  1        2 0.35105061E+00 0.21261638E+04</pdfrwt>
<pdfrwt beam="2">  1       -1 0.76196843E-01 0.21261638E+04</pdfrwt>
<totfact> 0.84035072E+00</totfact>
</mgrwt>
</event>
<event>
12    6  0.1402540E-007  0.3183037E+04  0.7818608E-02  0.8193311E-01
         -1   -1    0    0    0  501 -0.00000000000E+00  0.00000000000E+00  0.15875476212E+04  0.15875476212E+04  0.00000000000E+00 0.  1.
          2   -1    0    0  501    0  0.00000000000E+00 -0.00000000000E+00 -0.15954993470E+04  0.15954993470E+04  0.00000000000E+00 0. -1.
         24    2    1    2    0    0 -0.10282600948E+04 -0.89325175669E+03  0.52902281347E+03  0.14638931982E+04  0.88885518240E+02 0.  0.
        254    2    1    2    0    0  0.10282600948E+04  0.89325175669E+03 -0.53697453925E+03  0.17191537699E+04  0.90107186473E+03 0.  0.
         23    2    4    4    0    0  0.10667274725E+03  0.27934773361E+03 -0.52125549742E+03  0.60786833608E+03  0.91555388319E+02 0.  0.
         23    2    4    4    0    0  0.92158734752E+03  0.61390402307E+03 -0.15719041825E+02  0.11112854338E+04  0.92232523930E+02 0.  0.
          4    1    3    3  502    0 -0.80287226890E+03 -0.64867427574E+03  0.38944463747E+03  0.11031995839E+04  0.00000000000E+00 0. -1.
         -3    1    3    3    0  502 -0.22538782587E+03 -0.24457748094E+03  0.13957817601E+03  0.36069361437E+03  0.00000000000E+00 0.  1.
         11    1    5    5    0    0  0.65889793388E+02  0.25755532414E+03 -0.45705623408E+03  0.52875004584E+03  0.00000000000E+00 0. -1.
        -11    1    5    5    0    0  0.40782953857E+02  0.21792409476E+02 -0.64199263342E+02  0.79118290235E+02  0.00000000000E+00 0.  1.
          2    1    6    6  503    0  0.77924529152E+03  0.51673195555E+03 -0.46720069885E+02  0.93617194103E+03  0.00000000000E+00 0. -1.
         -2    1    6    6    0  503  0.14234205600E+03  0.97172067526E+02  0.31001028061E+02  0.17511349278E+03  0.00000000000E+00 0.  1.
<mgrwt>
<rscale>  0 0.31830370E+04</rscale>
<asrwt>0</asrwt>
<pdfrwt beam="1">  1        2 0.24546144E+00 0.31830370E+04</pdfrwt>
<pdfrwt beam="2">  1       -1 0.24423809E+00 0.31830370E+04</pdfrwt>
<totfact> 0.81876735E-01</totfact>
</mgrwt>
</event>
<event>
12    6  0.1402540E-007  0.2614063E+04  0.7818608E-02  0.8363440E-01
          2   -1    0    0  501    0  0.00000000000E+00  0.00000000000E+00  0.26389030068E+04  0.26389030068E+04  0.00000000000E+00 0. -1.
         -1   -1    0    0    0  501 -0.00000000000E+00 -0.00000000000E+00 -0.64736439098E+03  0.64736439098E+03  0.00000000000E+00 0.  1.
         24    2    1    2    0    0  0.10964240673E+04 -0.32018080543E+03  0.70128207990E+03  0.13423326516E+04  0.73477265163E+02 0.  0.
        254    2    1    2    0    0 -0.10964240673E+04  0.32018080543E+03  0.12902565359E+04  0.19439347462E+04  0.89969933056E+03 0.  0.
         23    2    4    4    0    0 -0.12302267316E+04  0.22498596661E+03  0.12053146454E+04  0.17394565582E+04  0.94070331388E+02 0.  0.
         23    2    4    4    0    0  0.13380266431E+03  0.95194838815E+02  0.84941890522E+02  0.20447818795E+03  0.87355562314E+02 0.  0.
          2    1    3    3  502    0  0.29742073249E+02 -0.19778273025E+02  0.30405822891E+02  0.46907196364E+02  0.00000000000E+00 0. -1.
         -1    1    3    3    0  502  0.10666819940E+04 -0.30040253240E+03  0.67087625701E+03  0.12954254552E+04  0.00000000000E+00 0.  1.
         11    1    5    5    0    0 -0.63993405932E+03  0.10852579981E+03  0.68951927277E+03  0.94695843468E+03  0.00000000000E+00 0.  1.
        -11    1    5    5    0    0 -0.59029267227E+03  0.11646016680E+03  0.51579537263E+03  0.79249812354E+03  0.00000000000E+00 0. -1.
          4    1    6    6  503    0  0.65449207386E+02  0.34972080267E+02  0.85717623722E+02  0.11337617105E+03  0.00000000000E+00 0. -1.
         -4    1    6    6    0  503  0.68353456924E+02  0.60222758548E+02 -0.77573319923E+00  0.91102016896E+02  0.00000000000E+00 0.  1.
<mgrwt>
<rscale>  0 0.26140634E+04</rscale>
<asrwt>0</asrwt>
<pdfrwt beam="1">  1        2 0.40598507E+00 0.26140634E+04</pdfrwt>
<pdfrwt beam="2">  1       -1 0.99594523E-01 0.26140634E+04</pdfrwt>
<totfact> 0.27893675E+00</totfact>
</mgrwt>
</event>
<event>
12    6  0.1402540E-007  0.3536470E+04  0.7818608E-02  0.8105201E-01
          2   -1    0    0  501    0  0.00000000000E+00  0.00000000000E+00  0.41680198757E+04  0.41680198757E+04  0.00000000000E+00 0. -1.
         -1   -1    0    0    0  501 -0.00000000000E+00 -0.00000000000E+00 -0.75015369926E+03  0.75015369926E+03  0.00000000000E+00 0.  1.
         24    2    1    2    0    0  0.14633039641E+04  0.60317967216E+03  0.22694852722E+04  0.27680271060E+04  0.79538987349E+02 0.  0.
        254    2    1    2    0    0 -0.14633039641E+04 -0.60317967216E+03  0.11483809043E+04  0.21501464690E+04  0.89401729779E+03 0.  0.
         23    2    4    4    0    0 -0.62711598932E+03 -0.37278432859E+03  0.10367007412E+04  0.12709461865E+04  0.91176544985E+02 0.  0.
         23    2    4    4    0    0 -0.83618797477E+03 -0.23039534356E+03  0.11168016310E+03  0.87920028259E+03  0.90710168059E+02 0.  0.
          4    1    3    3  502    0  0.11282728589E+04  0.46122861543E+03  0.16880725651E+04  0.20821432383E+04  0.00000000000E+00 0. -1.
         -3    1    3    3    0  502  0.33503110516E+03  0.14195105673E+03  0.58141270706E+03  0.68588386762E+03  0.00000000000E+00 0.  1.
         11    1    5    5    0    0 -0.49991263138E+03 -0.25282158586E+03  0.80163265800E+03  0.97798073174E+03  0.00000000000E+00 0.  1.
        -11    1    5    5    0    0 -0.12720335794E+03 -0.11996274273E+03  0.23506808320E+03  0.29296545471E+03  0.00000000000E+00 0. -1.
          2    1    6    6  503    0 -0.21841952165E+03 -0.22732998429E+02  0.43938130387E+02  0.22395186080E+03  0.00000000000E+00 0. -1.
         -2    1    6    6    0  503 -0.61776845312E+03 -0.20766234513E+03  0.67742032717E+02  0.65524842179E+03  0.00000000000E+00 0.  1.
<mgrwt>
<rscale>  0 0.35364703E+04</rscale>
<asrwt>0</asrwt>
<pdfrwt beam="1">  1        2 0.64123381E+00 0.35364703E+04</pdfrwt>
<pdfrwt beam="2">  1       -1 0.11540826E+00 0.35364703E+04</pdfrwt>
<totfact> 0.15626822E-01</totfact>
</mgrwt>
</event>
<event>
12    6  0.1402540E-007  0.1630291E+04  0.7818608E-02  0.8802152E-01
          2   -1    0    0  501    0  0.00000000000E+00  0.00000000000E+00  0.14918038869E+04  0.14918038869E+04  0.00000000000E+00 0. -1.
         -1   -1    0    0    0  501 -0.00000000000E+00 -0.00000000000E+00 -0.44540849101E+03  0.44540849101E+03  0.00000000000E+00 0.  1.
         24    2    1    2    0    0 -0.46065017978E+03 -0.31415231432E+03  0.45311350610E+03  0.72323894966E+03  0.82900326686E+02 0.  0.
        254    2    1    2    0    0  0.46065017978E+03  0.31415231432E+03  0.59328188977E+03  0.12139734282E+04  0.90047644000E+03 0.  0.
         23    2    4    4    0    0  0.53854028591E+03  0.56708190222E+01  0.14418349344E+02  0.54662871957E+03  0.92397351275E+02 0.  0.
         23    2    4    4    0    0 -0.77890106133E+02  0.30848149530E+03  0.57886354043E+03  0.66734470866E+03  0.95069764732E+02 0.  0.
          4    1    3    3  502    0 -0.28073912653E+03 -0.20844551450E+03  0.33091785778E+03  0.48142561033E+03  0.00000000000E+00 0. -1.
         -3    1    3    3    0  502 -0.17991105325E+03 -0.10570679982E+03  0.12219564832E+03  0.24181333933E+03  0.00000000000E+00 0.  1.
         11    1    5    5    0    0  0.29008136792E+03  0.36921992642E+02  0.38989606038E+02  0.29500953024E+03  0.00000000000E+00 0.  1.
        -11    1    5    5    0    0  0.24845891800E+03 -0.31251173620E+02 -0.24571256694E+02  0.25161918933E+03  0.00000000000E+00 0. -1.
          4    1    6    6  503    0 -0.79490012164E+01  0.18262594190E+03  0.26386326502E+03  0.32099726463E+03  0.00000000000E+00 0. -1.
         -4    1    6    6    0  503 -0.69941104916E+02  0.12585555340E+03  0.31500027540E+03  0.34634744403E+03  0.00000000000E+00 0.  1.
<mgrwt>
<rscale>  0 0.16302909E+04</rscale>
<asrwt>0</asrwt>
<pdfrwt beam="1">  1        2 0.22950829E+00 0.16302909E+04</pdfrwt>
<pdfrwt beam="2">  1       -1 0.68524384E-01 0.16302909E+04</pdfrwt>
<totfact> 0.30147942E+01</totfact>
</mgrwt>
</event>
<event>
12    6  0.1402540E-007  0.2901825E+04  0.7818608E-02  0.8272335E-01
          2   -1    0    0  501    0  0.00000000000E+00  0.00000000000E+00  0.24105812261E+04  0.24105812261E+04  0.00000000000E+00 0. -1.
         -1   -1    0    0    0  501 -0.00000000000E+00 -0.00000000000E+00 -0.87329438422E+03  0.87329438422E+03  0.00000000000E+00 0.  1.
         24    2    1    2    0    0 -0.77646171846E+03  0.86918959750E+03  0.13726685654E+04  0.18026555345E+04  0.83454353347E+02 0.  0.
        254    2    1    2    0    0  0.77646171846E+03 -0.86918959750E+03  0.16461827653E+03  0.14812200758E+04  0.89918317349E+03 0.  0.
         23    2    4    4    0    0  0.97016277580E+02 -0.72718018828E+03 -0.70187397462E+02  0.74270643123E+03  0.92105308692E+02 0.  0.
         23    2    4    4    0    0  0.67944544088E+03 -0.14200940922E+03  0.23480567399E+03  0.73851364461E+03  0.91956072687E+02 0.  0.
          2    1    3    3  502    0 -0.42707105230E+03  0.53510258615E+03  0.82867027046E+03  0.10749041253E+04  0.00000000000E+00 0. -1.
         -1    1    3    3    0  502 -0.34939066616E+03  0.33408701135E+03  0.54399829490E+03  0.72775140921E+03  0.00000000000E+00 0.  1.
         11    1    5    5    0    0  0.10215333277E+03 -0.63786582264E+03 -0.36204893769E+02  0.64700765484E+03  0.00000000000E+00 0. -1.
        -11    1    5    5    0    0 -0.51370551922E+01 -0.89314365634E+02 -0.33982503693E+02  0.95698776387E+02  0.00000000000E+00 0.  1.
          3    1    6    6  503    0  0.11644400632E+03  0.39613289649E+01  0.18470608313E+02  0.11796636006E+03  0.00000000000E+00 0. -1.
         -3    1    6    6    0  503  0.56300143456E+03 -0.14597073818E+03  0.21633506568E+03  0.62054728455E+03  0.00000000000E+00 0.  1.
<mgrwt>
<rscale>  0 0.29018250E+04</rscale>
<asrwt>0</asrwt>
<pdfrwt beam="1">  1        2 0.37085865E+00 0.29018250E+04</pdfrwt>
<pdfrwt beam="2">  1       -1 0.13435298E+00 0.29018250E+04</pdfrwt>
<totfact> 0.17932111E+00</totfact>
</mgrwt>
</event>
<event>
12    6  0.1402540E-007  0.1591057E+04  0.7818608E-02  0.8826061E-01
         -1   -1    0    0    0  501 -0.00000000000E+00  0.00000000000E+00  0.25265300801E+03  0.25265300801E+03  0.00000000000E+00 0.  1.
          2   -1    0    0  501    0  0.00000000000E+00 -0.00000000000E+00 -0.25048799315E+04  0.25048799315E+04  0.00000000000E+00 0. -1.
         24    2    1    2    0    0 -0.44884874341E+03  0.22523311215E+03 -0.11022191014E+04  0.12138369365E+04  0.79485921071E+02 0.  0.
        254    2    1    2    0    0  0.44884874341E+03 -0.22523311215E+03 -0.11500078220E+04  0.15436960030E+04  0.89904627777E+03 0.  0.
         23    2    4    4    0    0  0.70154872827E+03 -0.26868272096E+03 -0.84474614678E+03  0.11346884421E+04  0.97779269499E+02 0.  0.
         23    2    4    4    0    0 -0.25269998486E+03  0.43449608816E+02 -0.30526167526E+03  0.40900756084E+03  0.91418507874E+02 0.  0.
          2    1    3    3  502    0 -0.16605673978E+03  0.12702317331E+03 -0.45751685986E+03  0.50302227032E+03  0.00000000000E+00 0. -1.
         -1    1    3    3    0  502 -0.28279200364E+03  0.98209938835E+02 -0.64470224159E+03  0.71081466622E+03  0.00000000000E+00 0.  1.
         11    1    5    5    0    0  0.44770304292E+03 -0.13967023501E+03 -0.57993390455E+03  0.74583451438E+03  0.00000000000E+00 0.  1.
        -11    1    5    5    0    0  0.25384568535E+03 -0.12901248595E+03 -0.26481224223E+03  0.38885392777E+03  0.00000000000E+00 0. -1.
          1    1    6    6  503    0 -0.21580465321E+03  0.69527631597E+02 -0.26155859010E+03  0.34614828609E+03  0.00000000000E+00 0. -1.
         -1    1    6    6    0  503 -0.36895331646E+02 -0.26078022781E+02 -0.43703085162E+02  0.62859274750E+02  0.00000000000E+00 0.  1.
<mgrwt>
<rscale>  0 0.15910568E+04</rscale>
<asrwt>0</asrwt>
<pdfrwt beam="1">  1        2 0.38536613E+00 0.15910568E+04</pdfrwt>
<pdfrwt beam="2">  1       -1 0.38869695E-01 0.15910568E+04</pdfrwt>
<totfact> 0.24312802E+01</totfact>
</mgrwt>
</event>
<event>
12    6  0.1402540E-007  0.2053507E+04  0.7818608E-02  0.8582005E-01
         -1   -1    0    0    0  501 -0.00000000000E+00  0.00000000000E+00  0.56532219063E+03  0.56532219063E+03  0.00000000000E+00 0.  1.
          2   -1    0    0  501    0  0.00000000000E+00 -0.00000000000E+00 -0.18648166865E+04  0.18648166865E+04  0.00000000000E+00 0. -1.
         24    2    1    2    0    0 -0.29403451170E+03  0.22116921333E+03  0.35080765965E+03  0.51456306777E+03  0.79605412145E+02 0.  0.
        254    2    1    2    0    0  0.29403451170E+03 -0.22116921333E+03 -0.16503021556E+04  0.19155758094E+04  0.90031181373E+03 0.  0.
         23    2    4    4    0    0 -0.59336386552E+02 -0.35039256253E+03 -0.14163354818E+04  0.14631456948E+04  0.92159495911E+02 0.  0.
         23    2    4    4    0    0  0.35337089825E+03  0.12922334919E+03 -0.23396667382E+03  0.45243011462E+03  0.91558388230E+02 0.  0.
          4    1    3    3  502    0 -0.10016822767E+03  0.64118557932E+02  0.66337780541E+02  0.13618210027E+03  0.00000000000E+00 0. -1.
         -3    1    3    3    0  502 -0.19386628402E+03  0.15705065540E+03  0.28446987911E+03  0.37838096750E+03  0.00000000000E+00 0.  1.
         11    1    5    5    0    0 -0.23954705796E+02 -0.67917602602E+02 -0.16844789591E+03  0.18319749537E+03  0.00000000000E+00 0.  1.
        -11    1    5    5    0    0 -0.35381680756E+02 -0.28247495992E+03 -0.12478875858E+04  0.12799481994E+04  0.00000000000E+00 0. -1.
          1    1    6    6  503    0  0.23463918097E+03  0.38569405462E+02 -0.14774739415E+03  0.27995077560E+03  0.00000000000E+00 0. -1.
         -1    1    6    6    0  503  0.11873171728E+03  0.90653943729E+02 -0.86219279669E+02  0.17247933902E+03  0.00000000000E+00 0.  1.
<mgrwt>
<rscale>  0 0.20535065E+04</rscale>
<asrwt>0</asrwt>
<pdfrwt beam="1">  1        2 0.28689488E+00 0.20535065E+04</pdfrwt>
<pdfrwt beam="2">  1       -1 0.86972644E-01 0.20535065E+04</pdfrwt>
<totfact> 0.10894548E+01</totfact>
</mgrwt>
</event>
<event>
12    6  0.1402540E-007  0.1531330E+04  0.7818608E-02  0.8863882E-01
          2   -1    0    0  501    0  0.00000000000E+00  0.00000000000E+00  0.29847302217E+04  0.29847302217E+04  0.00000000000E+00 0. -1.
         -1   -1    0    0    0  501 -0.00000000000E+00 -0.00000000000E+00 -0.19641410260E+03  0.19641410260E+03  0.00000000000E+00 0.  1.
         24    2    1    2    0    0 -0.47582515503E+03 -0.12376160717E+03  0.10646503515E+04  0.11753841576E+04  0.79504928066E+02 0.  0.
        254    2    1    2    0    0  0.47582515503E+03  0.12376160717E+03  0.17236657677E+04  0.20057601667E+04  0.90017978986E+03 0.  0.
         23    2    4    4    0    0 -0.52139269455E+02 -0.30937420104E+03  0.68813716970E+03  0.76196478840E+03  0.92879894246E+02 0.  0.
         23    2    4    4    0    0  0.52796442449E+03  0.43313580821E+03  0.10355285980E+04  0.12437953783E+04  0.91402428601E+02 0.  0.
          2    1    3    3  502    0 -0.25033889032E+03 -0.26471126832E+02  0.50710448074E+03  0.56614948110E+03  0.00000000000E+00 0. -1.
         -3    1    3    3    0  502 -0.22548626472E+03 -0.97290480335E+02  0.55754587072E+03  0.60923467654E+03  0.00000000000E+00 0.  1.
         11    1    5    5    0    0 -0.74814272845E+01 -0.25929724713E+03  0.56593267801E+03  0.62255186945E+03  0.00000000000E+00 0. -1.
        -11    1    5    5    0    0 -0.44657842171E+02 -0.50076953913E+02  0.12220449169E+03  0.13941291895E+03  0.00000000000E+00 0.  1.
          2    1    6    6  503    0  0.45067825464E+03  0.40665923219E+03  0.92358948592E+03  0.11052149831E+04  0.00000000000E+00 0. -1.
         -2    1    6    6    0  503  0.77286169854E+02  0.26476576017E+02  0.11193911204E+03  0.13858039519E+03  0.00000000000E+00 0.  1.
<mgrwt>
<rscale>  0 0.15313303E+04</rscale>
<asrwt>0</asrwt>
<pdfrwt beam="1">  1        2 0.45918923E+00 0.15313303E+04</pdfrwt>
<pdfrwt beam="2">  1       -1 0.30217556E-01 0.15313303E+04</pdfrwt>
<totfact> 0.19816123E+01</totfact>
</mgrwt>
</event>
<event>
12    6  0.1402540E-007  0.7347048E+04  0.7818608E-02  0.7542666E-01
          2   -1    0    0  501    0  0.00000000000E+00  0.00000000000E+00  0.42972170790E+04  0.42972170790E+04  0.00000000000E+00 0. -1.
         -1   -1    0    0    0  501 -0.00000000000E+00 -0.00000000000E+00 -0.31403532134E+04  0.31403532134E+04  0.00000000000E+00 0.  1.
         24    2    1    2    0    0 -0.24192083544E+04  0.26590676040E+04  0.98287080400E+03  0.37276089207E+04  0.76312936379E+02 0.  0.
        254    2    1    2    0    0  0.24192083544E+04 -0.26590676040E+04  0.17399306161E+03  0.37099613716E+04  0.90018343088E+03 0.  0.
         23    2    4    4    0    0  0.82929610661E+03 -0.14485665960E+04 -0.16881627886E+03  0.16802271435E+04  0.92666620486E+02 0.  0.
         23    2    4    4    0    0  0.15899122477E+04 -0.12105010080E+04  0.34280934046E+03  0.20297342281E+04  0.95755661931E+02 0.  0.
          2    1    3    3  502    0 -0.17937823760E+04  0.19311824766E+04  0.74118565461E+03  0.27379695296E+04  0.00000000000E+00 0. -1.
         -1    1    3    3    0  502 -0.62542597833E+03  0.72788512736E+03  0.24168514939E+03  0.98963939111E+03  0.00000000000E+00 0.  1.
         11    1    5    5    0    0  0.34272399878E+03 -0.64776249919E+03 -0.34932496663E+02  0.73367313840E+03  0.00000000000E+00 0. -1.
        -11    1    5    5    0    0  0.48657210783E+03 -0.80080409677E+03 -0.13388378219E+03  0.94655400515E+03  0.00000000000E+00 0.  1.
          1    1    6    6  503    0  0.38170936068E+03 -0.30329247159E+03  0.43355210584E+02  0.48945687618E+03  0.00000000000E+00 0. -1.
         -1    1    6    6    0  503  0.12082028871E+04 -0.90720853641E+03  0.29945412988E+03  0.15402773519E+04  0.00000000000E+00 0.  1.
<mgrwt>
<rscale>  0 0.73470482E+04</rscale>
<asrwt>0</asrwt>
<pdfrwt beam="1">  1        2 0.66111032E+00 0.73470482E+04</pdfrwt>
<pdfrwt beam="2">  1       -1 0.48313126E+00 0.73470482E+04</pdfrwt>
<totfact> 0.25420109E-04</totfact>
</mgrwt>
</event>
<event>
12    6  0.1402540E-007  0.2484700E+04  0.7818608E-02  0.8408456E-01
         -1   -1    0    0    0  501 -0.00000000000E+00  0.00000000000E+00  0.72281694884E+03  0.72281694884E+03  0.00000000000E+00 0.  1.
          2   -1    0    0  501    0  0.00000000000E+00 -0.00000000000E+00 -0.21353042157E+04  0.21353042157E+04  0.00000000000E+00 0. -1.
         24    2    1    2    0    0  0.38593709755E+03 -0.96893648239E+03 -0.92763345900E+03  0.13981377534E+04  0.80622535239E+02 0.  0.
        254    2    1    2    0    0 -0.38593709755E+03  0.96893648239E+03 -0.48485380783E+03  0.14599834111E+04  0.89926803313E+03 0.  0.
         23    2    4    4    0    0 -0.55830139236E+03  0.35982669236E+03 -0.22563975019E+02  0.67088040462E+03  0.91628003828E+02 0.  0.
         23    2    4    4    0    0  0.17236429482E+03  0.60910979003E+03 -0.46228983281E+03  0.78910300643E+03  0.90815630815E+02 0.  0.
          2    1    3    3  502    0  0.11446634209E+03 -0.38882038252E+03 -0.34413301115E+03  0.53170608676E+03  0.00000000000E+00 0. -1.
         -1    1    3    3    0  502  0.27147075545E+03 -0.58011609987E+03 -0.58350044785E+03  0.86643166669E+03  0.00000000000E+00 0.  1.
         11    1    5    5    0    0 -0.45019240678E+03  0.24414984347E+03 -0.20138659558E+02  0.51253089155E+03  0.00000000000E+00 0. -1.
        -11    1    5    5    0    0 -0.10810898559E+03  0.11567684889E+03 -0.24253154615E+01  0.15834951307E+03  0.00000000000E+00 0.  1.
          3    1    6    6  503    0  0.15364902454E+03  0.59674100184E+03 -0.43781939836E+03  0.75590586160E+03  0.00000000000E+00 0. -1.
         -3    1    6    6    0  503  0.18715270282E+02  0.12368788194E+02 -0.24470434449E+02  0.33197144836E+02  0.00000000000E+00 0.  1.
<mgrwt>
<rscale>  0 0.24847004E+04</rscale>
<asrwt>0</asrwt>
<pdfrwt beam="1">  1        2 0.32850834E+00 0.24847004E+04</pdfrwt>
<pdfrwt beam="2">  1       -1 0.11120261E+00 0.24847004E+04</pdfrwt>
<totfact> 0.42419390E+00</totfact>
</mgrwt>
</event>
<event>
12    6  0.1402540E-007  0.1891057E+04  0.7818608E-02  0.8659321E-01
         -1   -1    0    0    0  501 -0.00000000000E+00  0.00000000000E+00  0.27305309557E+03  0.27305309557E+03  0.00000000000E+00 0.  1.
          2   -1    0    0  501    0  0.00000000000E+00 -0.00000000000E+00 -0.32741782576E+04  0.32741782576E+04  0.00000000000E+00 0. -1.
         24    2    1    2    0    0  0.59101544598E+03  0.38147793171E+03 -0.81400748276E+03  0.10787061410E+04  0.78575357778E+02 0.  0.
        254    2    1    2    0    0 -0.59101544598E+03 -0.38147793171E+03 -0.21871176792E+04  0.24685252121E+04  0.90294424544E+03 0.  0.
         23    2    4    4    0    0 -0.52703620321E+03 -0.11042582472E+03 -0.20893034749E+04  0.21595256616E+04  0.91657245466E+02 0.  0.
         23    2    4    4    0    0 -0.63979242773E+02 -0.27105210700E+03 -0.97814204370E+02  0.30899955057E+03  0.91381154852E+02 0.  0.
          2    1    3    3  502    0  0.15660731242E+03  0.64477768749E+02 -0.21552656790E+03  0.27410752350E+03  0.00000000000E+00 0. -1.
         -1    1    3    3    0  502  0.43440813356E+03  0.31700016296E+03 -0.59848091486E+03  0.80459861749E+03  0.00000000000E+00 0.  1.
         11    1    5    5    0    0 -0.23117932265E+03 -0.80390931785E+02 -0.10760386415E+04  0.11035242358E+04  0.00000000000E+00 0. -1.
        -11    1    5    5    0    0 -0.29585688056E+03 -0.30034892931E+02 -0.10132648334E+04  0.10560014258E+04  0.00000000000E+00 0.  1.
          4    1    6    6  503    0 -0.48927509007E+02 -0.20714024671E+03 -0.30586161672E+02  0.21502673375E+03  0.00000000000E+00 0. -1.
         -4    1    6    6    0  503 -0.15051733767E+02 -0.63911860291E+02 -0.67228042698E+02  0.93972816815E+02  0.00000000000E+00 0.  1.
<mgrwt>
<rscale>  0 0.18910574E+04</rscale>
<asrwt>0</asrwt>
<pdfrwt beam="1">  1        2 0.50371973E+00 0.18910574E+04</pdfrwt>
<pdfrwt beam="2">  1       -1 0.42008169E-01 0.18910574E+04</pdfrwt>
<totfact> 0.69157718E+00</totfact>
</mgrwt>
</event>
<event>
12    6  0.1402540E-007  0.2643280E+04  0.7818608E-02  0.8353647E-01
         -1   -1    0    0    0  501 -0.00000000000E+00  0.00000000000E+00  0.20937505509E+04  0.20937505509E+04  0.00000000000E+00 0.  1.
          2   -1    0    0  501    0  0.00000000000E+00 -0.00000000000E+00 -0.83426009053E+03  0.83426009053E+03  0.00000000000E+00 0. -1.
         24    2    1    2    0    0 -0.10241657143E+04 -0.37917659868E+03  0.99990498475E+03  0.14829030240E+04  0.80629379011E+02 0.  0.
        254    2    1    2    0    0  0.10241657143E+04  0.37917659868E+03  0.25958547561E+03  0.14451076174E+04  0.91008851405E+03 0.  0.
         23    2    4    4    0    0  0.23815675797E+03 -0.23703349867E+03 -0.12648352375E+03  0.37049508428E+03  0.91460400385E+02 0.  0.
         23    2    4    4    0    0  0.78600895633E+03  0.61621009736E+03  0.38606899935E+03  0.10746125331E+04  0.90652416238E+02 0.  0.
          2    1    3    3  502    0 -0.45703973903E+03 -0.19604634942E+03  0.41262636978E+03  0.64620431383E+03  0.00000000000E+00 0. -1.
         -3    1    3    3    0  502 -0.56712597527E+03 -0.18313024927E+03  0.58727861498E+03  0.83669871019E+03  0.00000000000E+00 0.  1.
         11    1    5    5    0    0  0.18576981014E+03 -0.14146844678E+03 -0.54170908432E+02  0.23970446620E+03  0.00000000000E+00 0.  1.
        -11    1    5    5    0    0  0.52386947833E+02 -0.95565051890E+02 -0.72312615315E+02  0.13079061809E+03  0.00000000000E+00 0. -1.
          4    1    6    6  503    0  0.15195970872E+02  0.16563389647E+02  0.24471013785E+02  0.33227908796E+02  0.00000000000E+00 0. -1.
         -4    1    6    6    0  503  0.77081298546E+03  0.59964670771E+03  0.36159798557E+03  0.10413846243E+04  0.00000000000E+00 0.  1.
<mgrwt>
<rscale>  0 0.26432802E+04</rscale>
<asrwt>0</asrwt>
<pdfrwt beam="1">  1        2 0.12834771E+00 0.26432802E+04</pdfrwt>
<pdfrwt beam="2">  1       -1 0.32211547E+00 0.26432802E+04</pdfrwt>
<totfact> 0.77583470E-01</totfact>
</mgrwt>
</event>
<event>
12    6  0.1402540E-007  0.2604436E+04  0.7818608E-02  0.8366696E-01
         -1   -1    0    0    0  501 -0.00000000000E+00  0.00000000000E+00  0.86511387640E+03  0.86511387640E+03  0.00000000000E+00 0.  1.
          2   -1    0    0  501    0  0.00000000000E+00 -0.00000000000E+00 -0.19601714966E+04  0.19601714966E+04  0.00000000000E+00 0. -1.
         24    2    1    2    0    0  0.47162841338E+03  0.10287060262E+04 -0.28593245764E+03  0.11687222925E+04  0.59033702428E+02 0.  0.
        254    2    1    2    0    0 -0.47162841338E+03 -0.10287060262E+04 -0.80912516256E+03  0.16565630805E+04  0.89935991813E+03 0.  0.
         23    2    4    4    0    0 -0.61806595605E+03 -0.57540347640E+03 -0.19034503326E+03  0.87044283937E+03  0.91349976742E+02 0.  0.
         23    2    4    4    0    0  0.14643754267E+03 -0.45330254980E+03 -0.61878012931E+03  0.78612024113E+03  0.90382683812E+02 0.  0.
          2    1    3    3  502    0  0.24645981463E+03  0.52070095647E+03 -0.17509867661E+03  0.60210586515E+03  0.00000000000E+00 0. -1.
         -1    1    3    3    0  502  0.22516859875E+03  0.50800506972E+03 -0.11083378103E+03  0.56661642735E+03  0.00000000000E+00 0.  1.
         11    1    5    5    0    0 -0.56234835624E+03 -0.51793432389E+03 -0.14404519189E+03  0.77797214277E+03  0.00000000000E+00 0.  1.
        -11    1    5    5    0    0 -0.55717599810E+02 -0.57469152510E+02 -0.46299841365E+02  0.92470696597E+02  0.00000000000E+00 0. -1.
          2    1    6    6  503    0  0.49266167842E+02 -0.82645469725E+02 -0.17579545878E+03  0.20040327414E+03  0.00000000000E+00 0. -1.
         -2    1    6    6    0  503  0.97171374825E+02 -0.37065708007E+03 -0.44298467053E+03  0.58571696699E+03  0.00000000000E+00 0.  1.
<mgrwt>
<rscale>  0 0.26044359E+04</rscale>
<asrwt>0</asrwt>
<pdfrwt beam="1">  1        2 0.30156485E+00 0.26044359E+04</pdfrwt>
<pdfrwt beam="2">  1       -1 0.13309444E+00 0.26044359E+04</pdfrwt>
<totfact> 0.33792796E+00</totfact>
</mgrwt>
</event>
<event>
12    6  0.1402540E-007  0.3079220E+04  0.7818608E-02  0.8221464E-01
          2   -1    0    0  501    0  0.00000000000E+00  0.00000000000E+00  0.19838321643E+04  0.19838321643E+04  0.00000000000E+00 0. -1.
         -1   -1    0    0    0  501 -0.00000000000E+00 -0.00000000000E+00 -0.11948589886E+04  0.11948589886E+04  0.00000000000E+00 0.  1.
         24    2    1    2    0    0  0.35839181407E+03 -0.13377626957E+04  0.61737966217E+03  0.15183625963E+04  0.78826417630E+02 0.  0.
        254    2    1    2    0    0 -0.35839181407E+03  0.13377626957E+04  0.17159351349E+03  0.16603285566E+04  0.89955147692E+03 0.  0.
         23    2    4    4    0    0  0.17070045936E+03  0.12161056323E+02 -0.78399504173E+02  0.20851967506E+03  0.89707494199E+02 0.  0.
         23    2    4    4    0    0 -0.52909227343E+03  0.13256016394E+04  0.24999301766E+03  0.14518088816E+04  0.89967658436E+02 0.  0.
          4    1    3    3  502    0  0.28598000892E+03 -0.11057831988E+04  0.53949175898E+03  0.12631676081E+04  0.00000000000E+00 0. -1.
         -3    1    3    3    0  502  0.72411805151E+02 -0.23197949690E+03  0.77887903196E+02  0.25519498814E+03  0.00000000000E+00 0.  1.
         11    1    5    5    0    0  0.65448271866E+02 -0.15043936212E+02  0.10647499936E+02  0.67993864149E+02  0.00000000000E+00 0. -1.
        -11    1    5    5    0    0  0.10525218749E+03  0.27204992535E+02 -0.89047004109E+02  0.14052581091E+03  0.00000000000E+00 0.  1.
          2    1    6    6  503    0 -0.35710665007E+03  0.80606987710E+03  0.12489472087E+03  0.89043388165E+03  0.00000000000E+00 0. -1.
         -2    1    6    6    0  503 -0.17198562336E+03  0.51953176228E+03  0.12509829680E+03  0.56137499991E+03  0.00000000000E+00 0.  1.
<mgrwt>
<rscale>  0 0.30792205E+04</rscale>
<asrwt>0</asrwt>
<pdfrwt beam="1">  1        2 0.30520495E+00 0.30792205E+04</pdfrwt>
<pdfrwt beam="2">  1       -1 0.18382446E+00 0.30792205E+04</pdfrwt>
<totfact> 0.12894425E+00</totfact>
</mgrwt>
</event>
<event>
12    6  0.1402540E-007  0.5417848E+04  0.7818608E-02  0.7767096E-01
         -1   -1    0    0    0  501 -0.00000000000E+00  0.00000000000E+00  0.14152699587E+04  0.14152699587E+04  0.00000000000E+00 0.  1.
          2   -1    0    0  501    0  0.00000000000E+00 -0.00000000000E+00 -0.51850662187E+04  0.51850662187E+04  0.00000000000E+00 0. -1.
         24    2    1    2    0    0 -0.17481799312E+04  0.11960958451E+04  0.73041536061E+02  0.21210108715E+04  0.81078410809E+02 0.  0.
        254    2    1    2    0    0  0.17481799312E+04 -0.11960958451E+04 -0.38428377960E+04  0.44793253060E+04  0.90009695469E+03 0.  0.
         23    2    4    4    0    0  0.11380726086E+04 -0.44111484937E+03 -0.14638713815E+04  0.19083381262E+04  0.95096843810E+02 0.  0.
         23    2    4    4    0    0  0.61010732251E+03 -0.75498099571E+03 -0.23789664145E+04  0.25709871797E+04  0.90920997995E+02 0.  0.
          4    1    3    3  502    0 -0.97751072172E+03  0.62012656112E+03  0.35986782374E+02  0.11581792657E+04  0.00000000000E+00 0. -1.
         -1    1    3    3    0  502 -0.77066920943E+03  0.57596928396E+03  0.37054753687E+02  0.96283160584E+03  0.00000000000E+00 0.  1.
         11    1    5    5    0    0  0.54402349919E+03 -0.16250295341E+03 -0.70202117355E+03  0.90288565480E+03  0.00000000000E+00 0.  1.
        -11    1    5    5    0    0  0.59404910946E+03 -0.27861189596E+03 -0.76185020792E+03  0.10054524714E+04  0.00000000000E+00 0. -1.
          3    1    6    6  503    0  0.40962122505E+02 -0.29953043717E+02 -0.17045294299E+03  0.17784624281E+03  0.00000000000E+00 0. -1.
         -3    1    6    6    0  503  0.56914520000E+03 -0.72502795199E+03 -0.22085134716E+04  0.23931409369E+04  0.00000000000E+00 0.  1.
<mgrwt>
<rscale>  0 0.54178477E+04</rscale>
<asrwt>0</asrwt>
<pdfrwt beam="1">  1        2 0.79770251E+00 0.54178477E+04</pdfrwt>
<pdfrwt beam="2">  1       -1 0.21773384E+00 0.54178477E+04</pdfrwt>
<totfact> 0.17219543E-03</totfact>
</mgrwt>
</event>
<event>
12    6  0.1402540E-007  0.1212374E+04  0.7818608E-02  0.9102094E-01
          2   -1    0    0  501    0  0.00000000000E+00  0.00000000000E+00  0.12901255824E+04  0.12901255824E+04  0.00000000000E+00 0. -1.
         -1   -1    0    0    0  501 -0.00000000000E+00 -0.00000000000E+00 -0.28482717344E+03  0.28482717344E+03  0.00000000000E+00 0.  1.
         24    2    1    2    0    0 -0.22812362766E+03  0.87982089353E+02  0.35160220707E+03  0.43577162918E+03  0.80570237892E+02 0.  0.
        254    2    1    2    0    0  0.22812362766E+03 -0.87982089353E+02  0.65369620193E+03  0.11391811267E+04  0.90035197423E+03 0.  0.
         23    2    4    4    0    0  0.11763143188E+03 -0.13075164294E+03  0.86070975329E+03  0.88323096509E+03  0.91337354789E+02 0.  0.
         23    2    4    4    0    0  0.11049219578E+03  0.42769553584E+02 -0.20701355136E+03  0.25595016162E+03  0.92833801733E+02 0.  0.
          4    1    3    3  502    0 -0.21296071013E+03  0.10258091103E+03  0.32194128792E+03  0.39940117706E+03  0.00000000000E+00 0. -1.
         -3    1    3    3    0  502 -0.15162917530E+02 -0.14598821679E+02  0.29660919154E+02  0.36370452121E+02  0.00000000000E+00 0.  1.
         11    1    5    5    0    0  0.32302586605E+02  0.97611884745E+01  0.13977485902E+03  0.14379064335E+03  0.00000000000E+00 0.  1.
        -11    1    5    5    0    0  0.85328845274E+02 -0.14051283141E+03  0.72093489427E+03  0.73944032174E+03  0.00000000000E+00 0. -1.
          2    1    6    6  503    0  0.48100695092E+02  0.46080834542E+02 -0.40157749232E+02  0.77780235303E+02  0.00000000000E+00 0. -1.
         -2    1    6    6    0  503  0.62391500689E+02 -0.33112809579E+01 -0.16685580213E+03  0.17816992632E+03  0.00000000000E+00 0.  1.
<mgrwt>
<rscale>  0 0.12123742E+04</rscale>
<asrwt>0</asrwt>
<pdfrwt beam="1">  1        2 0.19848086E+00 0.12123742E+04</pdfrwt>
<pdfrwt beam="2">  1       -1 0.43819566E-01 0.12123742E+04</pdfrwt>
<totfact> 0.96842841E+01</totfact>
</mgrwt>
</event>
<event>
12    6  0.1402540E-007  0.2719175E+04  0.7818608E-02  0.8328810E-01
          2   -1    0    0  501    0  0.00000000000E+00  0.00000000000E+00  0.16464675153E+04  0.16464675153E+04  0.00000000000E+00 0. -1.
         -1   -1    0    0    0  501 -0.00000000000E+00 -0.00000000000E+00 -0.11226930833E+04  0.11226930833E+04  0.00000000000E+00 0.  1.
         24    2    1    2    0    0  0.10547524232E+04 -0.45389313852E+03  0.62055034518E+03  0.13076650706E+04  0.79897124964E+02 0.  0.
        254    2    1    2    0    0 -0.10547524232E+04  0.45389313852E+03 -0.96775913182E+02  0.14614955280E+04  0.89893378264E+03 0.  0.
         23    2    4    4    0    0 -0.34406629339E+03  0.59118387160E+03 -0.21413002495E+03  0.72265227729E+03  0.92166490619E+02 0.  0.
         23    2    4    4    0    0 -0.71068612984E+03 -0.13729073308E+03  0.11735411177E+03  0.73884325074E+03  0.90519838073E+02 0.  0.
          2    1    3    3  502    0  0.54302395846E+03 -0.24285291891E+03  0.36572041978E+03  0.69828646351E+03  0.00000000000E+00 0. -1.
         -1    1    3    3    0  502  0.51172846476E+03 -0.21104021962E+03  0.25482992540E+03  0.60937860713E+03  0.00000000000E+00 0.  1.
         11    1    5    5    0    0 -0.67451474528E+02  0.19431673440E+03 -0.48536388818E+02  0.21133971639E+03  0.00000000000E+00 0. -1.
        -11    1    5    5    0    0 -0.27661481886E+03  0.39686713720E+03 -0.16559363613E+03  0.51131256090E+03  0.00000000000E+00 0.  1.
          1    1    6    6  503    0 -0.19501769527E+03 -0.46586317620E+02 -0.72492491188E+01  0.20063583446E+03  0.00000000000E+00 0. -1.
         -1    1    6    6    0  503 -0.51566843457E+03 -0.90704415458E+02  0.12460336089E+03  0.53820741628E+03  0.00000000000E+00 0.  1.
<mgrwt>
<rscale>  0 0.27191746E+04</rscale>
<asrwt>0</asrwt>
<pdfrwt beam="1">  1        2 0.25330270E+00 0.27191746E+04</pdfrwt>
<pdfrwt beam="2">  1       -1 0.17272201E+00 0.27191746E+04</pdfrwt>
<totfact> 0.24619221E+00</totfact>
</mgrwt>
</event>
<event>
12    6  0.1402540E-007  0.1195266E+04  0.7818608E-02  0.9117010E-01
         -1   -1    0    0    0  501 -0.00000000000E+00  0.00000000000E+00  0.75204009198E+03  0.75204009198E+03  0.00000000000E+00 0.  1.
          2   -1    0    0  501    0  0.00000000000E+00 -0.00000000000E+00 -0.47492860559E+03  0.47492860559E+03  0.00000000000E+00 0. -1.
         24    2    1    2    0    0  0.17530706783E+03  0.15712581112E+03 -0.20047569422E+02  0.25074902027E+03  0.83976648990E+02 0.  0.
        254    2    1    2    0    0 -0.17530706783E+03 -0.15712581112E+03  0.29715905582E+03  0.97621967730E+03  0.89960005855E+03 0.  0.
         23    2    4    4    0    0 -0.22400615246E+02  0.26630362737E+03 -0.16275750855E+03  0.32617841948E+03  0.92102905648E+02 0.  0.
         23    2    4    4    0    0 -0.15290645259E+03 -0.42342943848E+03  0.45991656438E+03  0.65004125782E+03  0.91419462201E+02 0.  0.
          2    1    3    3  502    0  0.13798587342E+03  0.78881286234E+02 -0.35077877106E+02  0.16276613912E+03  0.00000000000E+00 0. -1.
         -1    1    3    3    0  502  0.37321194411E+02  0.78244524882E+02  0.15030307684E+02  0.87982881149E+02  0.00000000000E+00 0.  1.
         11    1    5    5    0    0  0.25416245376E+02  0.10846879530E+03 -0.10005638610E+03  0.14974226351E+03  0.00000000000E+00 0. -1.
        -11    1    5    5    0    0 -0.47816860622E+02  0.15783483207E+03 -0.62701122453E+02  0.17643615596E+03  0.00000000000E+00 0.  1.
          1    1    6    6  503    0 -0.10939441137E+03 -0.20485718009E+03  0.27887793789E+03  0.36291390951E+03  0.00000000000E+00 0. -1.
         -1    1    6    6    0  503 -0.43512041215E+02 -0.21857225840E+03  0.18103862649E+03  0.28712734832E+03  0.00000000000E+00 0.  1.
<mgrwt>
<rscale>  0 0.11952663E+04</rscale>
<asrwt>0</asrwt>
<pdfrwt beam="1">  1        2 0.73065939E-01 0.11952663E+04</pdfrwt>
<pdfrwt beam="2">  1       -1 0.11569848E+00 0.11952663E+04</pdfrwt>
<totfact> 0.49945044E+01</totfact>
</mgrwt>
</event>
<event>
12    6  0.1402540E-007  0.3936215E+04  0.7818608E-02  0.8017539E-01
          2   -1    0    0  501    0  0.00000000000E+00  0.00000000000E+00  0.14080981119E+04  0.14080981119E+04  0.00000000000E+00 0. -1.
         -1   -1    0    0    0  501 -0.00000000000E+00 -0.00000000000E+00 -0.27508356771E+04  0.27508356771E+04  0.00000000000E+00 0.  1.
         24    2    1    2    0    0 -0.17357978928E+04  0.30800134566E+03  0.62421964212E+01  0.17647286799E+04  0.79807236998E+02 0.  0.
        254    2    1    2    0    0  0.17357978928E+04 -0.30800134566E+03 -0.13489797616E+04  0.23942051091E+04  0.89700198087E+03 0.  0.
         23    2    4    4    0    0  0.16142357687E+04 -0.21369609494E+03 -0.80035285712E+03  0.18167547776E+04  0.92790560169E+02 0.  0.
         23    2    4    4    0    0  0.12156212415E+03 -0.94305250716E+02 -0.54862690447E+03  0.57745033155E+03  0.93736731084E+02 0.  0.
          4    1    3    3  502    0 -0.42666611463E+03  0.88921424008E+02  0.33429275793E+02  0.43711384044E+03  0.00000000000E+00 0. -1.
         -3    1    3    3    0  502 -0.13091317782E+04  0.21907992165E+03 -0.27187079372E+02  0.13276148395E+04  0.00000000000E+00 0.  1.
         11    1    5    5    0    0  0.27236783615E+03 -0.58027562663E+02 -0.10688200998E+03  0.29828711044E+03  0.00000000000E+00 0. -1.
        -11    1    5    5    0    0  0.13418679325E+04 -0.15566853228E+03 -0.69347084715E+03  0.15184676671E+04  0.00000000000E+00 0.  1.
          3    1    6    6  503    0  0.11856037864E+03 -0.55912466273E+02 -0.32342004446E+03  0.34897463006E+03  0.00000000000E+00 0. -1.
         -3    1    6    6    0  503  0.30017455084E+01 -0.38392784443E+02 -0.22520686001E+03  0.22847570149E+03  0.00000000000E+00 0.  1.
<mgrwt>
<rscale>  0 0.39362147E+04</rscale>
<asrwt>0</asrwt>
<pdfrwt beam="1">  1        2 0.21663048E+00 0.39362147E+04</pdfrwt>
<pdfrwt beam="2">  1       -1 0.42320548E+00 0.39362147E+04</pdfrwt>
<totfact> 0.64036173E-02</totfact>
</mgrwt>
</event>
<event>
12    6  0.1402540E-007  0.2132478E+04  0.7818608E-02  0.8547070E-01
          2   -1    0    0  501    0  0.00000000000E+00  0.00000000000E+00  0.27667987230E+04  0.27667987230E+04  0.00000000000E+00 0. -1.
         -1   -1    0    0    0  501 -0.00000000000E+00 -0.00000000000E+00 -0.41089575421E+03  0.41089575421E+03  0.00000000000E+00 0.  1.
         24    2    1    2    0    0  0.80552126262E+03  0.15571630592E+03  0.14186045157E+04  0.16406420777E+04  0.78457521247E+02 0.  0.
        254    2    1    2    0    0 -0.80552126262E+03 -0.15571630592E+03  0.93729845303E+03  0.15370523995E+04  0.90049409558E+03 0.  0.
         23    2    4    4    0    0 -0.86970294695E+03  0.14423433339E+03  0.78468714514E+03  0.11830428078E+04  0.81667682696E+02 0.  0.
         23    2    4    4    0    0  0.64181684327E+02 -0.29995063931E+03  0.15261130788E+03  0.35400959170E+03  0.89122977361E+02 0.  0.
          2    1    3    3  502    0  0.54356108363E+03  0.76172353688E+02  0.99277541076E+03  0.11344002359E+04  0.00000000000E+00 0. -1.
         -1    1    3    3    0  502  0.26196017899E+03  0.79543952231E+02  0.42582910496E+03  0.50624184176E+03  0.00000000000E+00 0.  1.
         11    1    5    5    0    0 -0.76284040149E+03  0.12972702750E+03  0.72191836464E+03  0.10582630604E+04  0.00000000000E+00 0.  1.
        -11    1    5    5    0    0 -0.10686254546E+03  0.14507305889E+02  0.62768780496E+02  0.12477974736E+03  0.00000000000E+00 0. -1.
          3    1    6    6  503    0 -0.14696877981E+02 -0.79049116541E+02  0.14179036706E+02  0.81644388235E+02  0.00000000000E+00 0. -1.
         -3    1    6    6    0  503  0.78878562308E+02 -0.22090152277E+03  0.13843227118E+03  0.27236520346E+03  0.00000000000E+00 0.  1.
<mgrwt>
<rscale>  0 0.21324782E+04</rscale>
<asrwt>0</asrwt>
<pdfrwt beam="1">  1        2 0.42566133E+00 0.21324782E+04</pdfrwt>
<pdfrwt beam="2">  1       -1 0.63214733E-01 0.21324782E+04</pdfrwt>
<totfact> 0.64343187E+00</totfact>
</mgrwt>
</event>
<event>
12    6  0.1402540E-007  0.1818268E+04  0.7818608E-02  0.8696645E-01
          2   -1    0    0  501    0  0.00000000000E+00  0.00000000000E+00  0.10258460481E+04  0.10258460481E+04  0.00000000000E+00 0. -1.
         -1   -1    0    0    0  501 -0.00000000000E+00 -0.00000000000E+00 -0.80570027614E+03  0.80570027614E+03  0.00000000000E+00 0.  1.
         24    2    1    2    0    0  0.56108718300E+03 -0.30958294157E+03  0.32143152827E+03  0.72150220432E+03  0.81158972652E+02 0.  0.
        254    2    1    2    0    0 -0.56108718300E+03  0.30958294157E+03 -0.10128575636E+03  0.11100441199E+04  0.90071011929E+03 0.  0.
         23    2    4    4    0    0  0.14854484751E+03  0.34410212537E+03 -0.81963162344E+02  0.39341882686E+03  0.87112392580E+02 0.  0.
         23    2    4    4    0    0 -0.70963203051E+03 -0.34519183803E+02 -0.19322594015E+02  0.71662529301E+03  0.91701991108E+02 0.  0.
          4    1    3    3  502    0  0.20825867124E+03 -0.13743651844E+03  0.16364462746E+03  0.29839576881E+03  0.00000000000E+00 0. -1.
         -3    1    3    3    0  502  0.35282851175E+03 -0.17214642313E+03  0.15778690081E+03  0.42310643551E+03  0.00000000000E+00 0.  1.
         11    1    5    5    0    0 -0.75640728071E+01  0.49402081880E+02 -0.21872981408E+02  0.54554635066E+02  0.00000000000E+00 0. -1.
        -11    1    5    5    0    0  0.15610892032E+03  0.29470004349E+03 -0.60090180936E+02  0.33886419180E+03  0.00000000000E+00 0.  1.
          2    1    6    6  503    0 -0.35949583605E+03  0.26863768546E+02  0.21007335449E+01  0.36050427359E+03  0.00000000000E+00 0.  1.
         -2    1    6    6    0  503 -0.35013619446E+03 -0.61382952349E+02 -0.21423327560E+02  0.35612101942E+03  0.00000000000E+00 0. -1.
<mgrwt>
<rscale>  0 0.18182678E+04</rscale>
<asrwt>0</asrwt>
<pdfrwt beam="1">  1        2 0.15782247E+00 0.18182678E+04</pdfrwt>
<pdfrwt beam="2">  1       -1 0.12395389E+00 0.18182678E+04</pdfrwt>
<totfact> 0.14902812E+01</totfact>
</mgrwt>
</event>
<event>
12    6  0.1402540E-007  0.1540486E+04  0.7818608E-02  0.8857968E-01
          2   -1    0    0  501    0  0.00000000000E+00  0.00000000000E+00  0.11048780179E+04  0.11048780179E+04  0.00000000000E+00 0. -1.
         -1   -1    0    0    0  501 -0.00000000000E+00 -0.00000000000E+00 -0.53695903999E+03  0.53695903999E+03  0.00000000000E+00 0.  1.
         24    2    1    2    0    0 -0.50062484647E+03  0.38272420491E+02  0.25149110985E+03  0.56708893038E+03  0.79069978866E+02 0.  0.
        254    2    1    2    0    0  0.50062484647E+03 -0.38272420491E+02  0.31642786810E+03  0.10747481275E+04  0.89602841857E+03 0.  0.
         23    2    4    4    0    0 -0.13980437317E+03 -0.20162619614E+03 -0.10901451163E+03  0.28364351003E+03  0.91493668109E+02 0.  0.
         23    2    4    4    0    0  0.64042921964E+03  0.16335377565E+03  0.42544237973E+03  0.79110461752E+03  0.89505619967E+02 0.  0.
          2    1    3    3  502    0 -0.12333668206E+03  0.16097278159E+02  0.10124737831E+03  0.16038108093E+03  0.00000000000E+00 0. -1.
         -1    1    3    3    0  502 -0.37728816440E+03  0.22175142332E+02  0.15024373154E+03  0.40670784945E+03  0.00000000000E+00 0.  1.
         11    1    5    5    0    0 -0.99946160348E+02 -0.16297694142E+03 -0.12178148996E+03  0.22667476635E+03  0.00000000000E+00 0.  1.
        -11    1    5    5    0    0 -0.39858212824E+02 -0.38649254719E+02  0.12766978330E+02  0.56968743672E+02  0.00000000000E+00 0. -1.
          4    1    6    6  503    0  0.14582073905E+03 -0.81620076344E+00  0.92240898184E+02  0.17254778300E+03  0.00000000000E+00 0. -1.
         -4    1    6    6    0  503  0.49460848058E+03  0.16416997642E+03  0.33320148155E+03  0.61855683452E+03  0.00000000000E+00 0.  1.
<mgrwt>
<rscale>  0 0.15404859E+04</rscale>
<asrwt>0</asrwt>
<pdfrwt beam="1">  1        2 0.16998123E+00 0.15404859E+04</pdfrwt>
<pdfrwt beam="2">  1       -1 0.82609083E-01 0.15404859E+04</pdfrwt>
<totfact> 0.34620638E+01</totfact>
</mgrwt>
</event>
<event>
12    6  0.1402540E-007  0.1310797E+04  0.7818608E-02  0.9021046E-01
         -1   -1    0    0    0  501 -0.00000000000E+00  0.00000000000E+00  0.21551623128E+03  0.21551623128E+03  0.00000000000E+00 0.  1.
          2   -1    0    0  501    0  0.00000000000E+00 -0.00000000000E+00 -0.19931091308E+04  0.19931091308E+04  0.00000000000E+00 0. -1.
         24    2    1    2    0    0  0.22776882139E+03  0.24783285257E+03 -0.38036758236E+03  0.51432124131E+03  0.80914045406E+02 0.  0.
        254    2    1    2    0    0 -0.22776882139E+03 -0.24783285257E+03 -0.13972253172E+04  0.16943041208E+04  0.89728931115E+03 0.  0.
         23    2    4    4    0    0  0.28052102399E+02  0.17460224102E+03 -0.10853918470E+04  0.11035110717E+04  0.91587994649E+02 0.  0.
         23    2    4    4    0    0 -0.25582092379E+03 -0.42243509360E+03 -0.31183347013E+03  0.59079304905E+03  0.88885096406E+02 0.  0.
          4    1    3    3  502    0  0.99427086488E+02  0.65702281582E+02 -0.17208071953E+03  0.20931867897E+03  0.00000000000E+00 0. -1.
         -3    1    3    3    0  502  0.12834173490E+03  0.18213057099E+03 -0.20828686283E+03  0.30500256234E+03  0.00000000000E+00 0.  1.
         11    1    5    5    0    0  0.53114426121E+02  0.78836864719E+02 -0.40820697295E+03  0.41912924769E+03  0.00000000000E+00 0. -1.
        -11    1    5    5    0    0 -0.25062323722E+02  0.95765376303E+02 -0.67718487409E+03  0.68438182403E+03  0.00000000000E+00 0.  1.
          1    1    6    6  503    0 -0.10676760750E+03 -0.22504797245E+03 -0.19951356592E+03  0.31914193536E+03  0.00000000000E+00 0. -1.
         -1    1    6    6    0  503 -0.14905331628E+03 -0.19738712114E+03 -0.11231990421E+03  0.27165111369E+03  0.00000000000E+00 0.  1.
<mgrwt>
<rscale>  0 0.13107973E+04</rscale>
<asrwt>0</asrwt>
<pdfrwt beam="1">  1        2 0.30663215E+00 0.13107973E+04</pdfrwt>
<pdfrwt beam="2">  1       -1 0.33156346E-01 0.13107973E+04</pdfrwt>
<totfact> 0.64340837E+01</totfact>
</mgrwt>
</event>
<event>
12    6  0.1402540E-007  0.2061868E+04  0.7818608E-02  0.8578229E-01
         -1   -1    0    0    0  501 -0.00000000000E+00  0.00000000000E+00  0.15283723691E+04  0.15283723691E+04  0.00000000000E+00 0.  1.
          2   -1    0    0  501    0  0.00000000000E+00 -0.00000000000E+00 -0.69539675097E+03  0.69539675097E+03  0.00000000000E+00 0. -1.
         24    2    1    2    0    0  0.72012313797E+02  0.69565716343E+03  0.82419405802E+03  0.10852562227E+04  0.96749994034E+02 0.  0.
        254    2    1    2    0    0 -0.72012313797E+02 -0.69565716343E+03  0.87815600694E+01  0.11385128973E+04  0.89833726359E+03 0.  0.
         23    2    4    4    0    0 -0.33566853534E+02 -0.89619045484E+03  0.76129724580E+02  0.90450354626E+03  0.89704321137E+02 0.  0.
         23    2    4    4    0    0 -0.38445460264E+02  0.20053329141E+03 -0.67348164511E+02  0.23400935104E+03  0.92373950497E+02 0.  0.
          2    1    3    3  502    0  0.72977780752E+01  0.26448205201E+03  0.24754974884E+03  0.36233257037E+03  0.00000000000E+00 0. -1.
         -1    1    3    3    0  502  0.64714535722E+02  0.43117511141E+03  0.57664430918E+03  0.72292365236E+03  0.00000000000E+00 0.  1.
         11    1    5    5    0    0 -0.48406705122E+02 -0.25880818370E+03  0.35161683206E+02  0.26563363683E+03  0.00000000000E+00 0.  1.
        -11    1    5    5    0    0  0.14839851588E+02 -0.63738227114E+03  0.40968041374E+02  0.63886990943E+03  0.00000000000E+00 0. -1.
          1    1    6    6  503    0 -0.55463948548E+02  0.11947037803E+03 -0.77093073295E+01  0.13194261721E+03  0.00000000000E+00 0. -1.
         -1    1    6    6    0  503  0.17018488284E+02  0.81062913381E+02 -0.59638857182E+02  0.10206673383E+03  0.00000000000E+00 0.  1.
<mgrwt>
<rscale>  0 0.20618683E+04</rscale>
<asrwt>0</asrwt>
<pdfrwt beam="1">  1        2 0.10698412E+00 0.20618683E+04</pdfrwt>
<pdfrwt beam="2">  1       -1 0.23513421E+00 0.20618683E+04</pdfrwt>
<totfact> 0.38051915E+00</totfact>
</mgrwt>
</event>
<event>
12    6  0.1402540E-007  0.1281116E+04  0.7818608E-02  0.9044676E-01
         -1   -1    0    0    0  501 -0.00000000000E+00  0.00000000000E+00  0.14367456218E+04  0.14367456218E+04  0.00000000000E+00 0.  1.
          2   -1    0    0  501    0  0.00000000000E+00 -0.00000000000E+00 -0.28558624155E+03  0.28558624155E+03  0.00000000000E+00 0. -1.
         24    2    1    2    0    0  0.26252480194E+03 -0.11577069628E+03  0.47459531682E+03  0.56002508942E+03  0.77879780965E+02 0.  0.
        254    2    1    2    0    0 -0.26252480194E+03  0.11577069628E+03  0.67656406342E+03  0.11623067739E+04  0.90049762856E+03 0.  0.
         23    2    4    4    0    0 -0.55095538044E+03 -0.83389420606E+02  0.51769599344E+03  0.76642465876E+03  0.94297344772E+02 0.  0.
         23    2    4    4    0    0  0.28843057850E+03  0.19916011689E+03  0.15886806999E+03  0.39588211516E+03  0.92879678474E+02 0.  0.
          2    1    3    3  502    0  0.46231912281E+02  0.85763563773E+01  0.91063601553E+02  0.10248669733E+03  0.00000000000E+00 0. -1.
         -3    1    3    3    0  502  0.21629288966E+03 -0.12434705266E+03  0.38353171527E+03  0.45753839209E+03  0.00000000000E+00 0.  1.
         11    1    5    5    0    0 -0.54144908664E+03 -0.84431913858E+02  0.48311269775E+03  0.73054345540E+03  0.00000000000E+00 0.  1.
        -11    1    5    5    0    0 -0.95062938007E+01  0.10424932514E+01  0.34583295690E+02  0.35881203363E+02  0.00000000000E+00 0. -1.
          1    1    6    6  503    0  0.51447909795E+02  0.18781885202E+02 -0.66271340599E+01  0.55168519464E+02  0.00000000000E+00 0. -1.
         -1    1    6    6    0  503  0.23698266870E+03  0.18037823169E+03  0.16549520405E+03  0.34071359570E+03  0.00000000000E+00 0.  1.
<mgrwt>
<rscale>  0 0.12811164E+04</rscale>
<asrwt>0</asrwt>
<pdfrwt beam="1">  1        2 0.43936346E-01 0.12811164E+04</pdfrwt>
<pdfrwt beam="2">  1       -1 0.22103778E+00 0.12811164E+04</pdfrwt>
<totfact> 0.14134709E+01</totfact>
</mgrwt>
</event>
<event>
12    6  0.1402540E-007  0.2640798E+04  0.7818608E-02  0.8354474E-01
          2   -1    0    0  501    0  0.00000000000E+00  0.00000000000E+00  0.30767311016E+04  0.30767311016E+04  0.00000000000E+00 0. -1.
         -1   -1    0    0    0  501 -0.00000000000E+00 -0.00000000000E+00 -0.56665769890E+03  0.56665769890E+03  0.00000000000E+00 0.  1.
         24    2    1    2    0    0 -0.31305367721E+03  0.49232822963E+02 -0.43731704135E+03  0.54600870454E+03  0.80329540674E+02 0.  0.
        254    2    1    2    0    0  0.31305367721E+03 -0.49232822963E+02  0.29473904441E+04  0.30973800960E+04  0.89790119365E+03 0.  0.
         23    2    4    4    0    0 -0.17450559097E+03  0.16957595059E+03  0.30980293704E+03  0.40455523614E+03  0.92080806839E+02 0.  0.
         23    2    4    4    0    0  0.48755926818E+03 -0.21880877355E+03  0.26375875070E+04  0.26928248598E+04  0.94056096201E+02 0.  0.
          2    1    3    3  502    0 -0.32472501056E+02 -0.19441885483E+02 -0.57192112773E+02  0.68581251078E+02  0.00000000000E+00 0. -1.
         -1    1    3    3    0  502 -0.28058117615E+03  0.68674708446E+02 -0.38012492858E+03  0.47742745346E+03  0.00000000000E+00 0.  1.
         11    1    5    5    0    0 -0.15633362543E+03  0.13465082307E+03  0.19776240583E+03  0.28579890790E+03  0.00000000000E+00 0. -1.
        -11    1    5    5    0    0 -0.18171965543E+02  0.34925127516E+02  0.11204053121E+03  0.11875632824E+03  0.00000000000E+00 0.  1.
          4    1    6    6  503    0  0.32078855749E+03 -0.14420632647E+03  0.19451211881E+04  0.19766631477E+04  0.00000000000E+00 0. -1.
         -4    1    6    6    0  503  0.16677071069E+03 -0.74602447083E+02  0.69246631894E+03  0.71616171213E+03  0.00000000000E+00 0.  1.
<mgrwt>
<rscale>  0 0.26407979E+04</rscale>
<asrwt>0</asrwt>
<pdfrwt beam="1">  1        2 0.47334324E+00 0.26407979E+04</pdfrwt>
<pdfrwt beam="2">  1       -1 0.87178109E-01 0.26407979E+04</pdfrwt>
<totfact> 0.20218735E+00</totfact>
</mgrwt>
</event>
<event>
12    6  0.1402540E-007  0.1355778E+04  0.7818608E-02  0.8986466E-01
         -1   -1    0    0    0  501 -0.00000000000E+00  0.00000000000E+00  0.17095455690E+03  0.17095455690E+03  0.00000000000E+00 0.  1.
          2   -1    0    0  501    0  0.00000000000E+00 -0.00000000000E+00 -0.26880432499E+04  0.26880432499E+04  0.00000000000E+00 0. -1.
         24    2    1    2    0    0  0.10747895435E+03  0.33466207793E+03 -0.10389958583E+04  0.10996796108E+04  0.78945682128E+02 0.  0.
        254    2    1    2    0    0 -0.10747895435E+03 -0.33466207793E+03 -0.14780928346E+04  0.17593181959E+04  0.88706913758E+03 0.  0.
         23    2    4    4    0    0 -0.24722198150E+03 -0.15576799471E+03 -0.14827320073E+04  0.15139346162E+04  0.90119034047E+02 0.  0.
         23    2    4    4    0    0  0.13974302716E+03 -0.17889408322E+03  0.46391726854E+01  0.24538357977E+03  0.93061123188E+02 0.  0.
          4    1    3    3  502    0  0.35308087554E+02  0.47019408452E+02 -0.24916705187E+03  0.25601114342E+03  0.00000000000E+00 0. -1.
         -3    1    3    3    0  502  0.72170866792E+02  0.28764266948E+03 -0.78982880647E+03  0.84366846738E+03  0.00000000000E+00 0.  1.
         11    1    5    5    0    0 -0.27350356072E+02  0.93177406402E+01 -0.19915943429E+03  0.20124448449E+03  0.00000000000E+00 0.  1.
        -11    1    5    5    0    0 -0.21987162543E+03 -0.16508573535E+03 -0.12835725730E+04  0.13126901317E+04  0.00000000000E+00 0. -1.
          1    1    6    6  503    0  0.83519852182E+02 -0.14333534151E+03  0.39135768668E+02  0.17044704229E+03  0.00000000000E+00 0. -1.
         -1    1    6    6    0  503  0.56223174974E+02 -0.35558741707E+02 -0.34496595983E+02  0.74936537486E+02  0.00000000000E+00 0.  1.
<mgrwt>
<rscale>  0 0.13557776E+04</rscale>
<asrwt>0</asrwt>
<pdfrwt beam="1">  1        2 0.41354510E+00 0.13557776E+04</pdfrwt>
<pdfrwt beam="2">  1       -1 0.26300702E-01 0.13557776E+04</pdfrwt>
<totfact> 0.38761697E+01</totfact>
</mgrwt>
</event>
<event>
12    6  0.1402540E-007  0.3331128E+04  0.7818608E-02  0.8155020E-01
         -1   -1    0    0    0  501 -0.00000000000E+00  0.00000000000E+00  0.16517084348E+04  0.16517084348E+04  0.00000000000E+00 0.  1.
          2   -1    0    0  501    0  0.00000000000E+00 -0.00000000000E+00 -0.16795358491E+04  0.16795358491E+04  0.00000000000E+00 0. -1.
         24    2    1    2    0    0 -0.37950283558E+03 -0.11035560998E+04  0.99701642819E+03  0.15369660262E+04  0.79776812735E+02 0.  0.
        254    2    1    2    0    0  0.37950283558E+03  0.11035560998E+04 -0.10248438425E+04  0.17942782578E+04  0.89848266380E+03 0.  0.
         23    2    4    4    0    0  0.13724405182E+03  0.16478266459E+03  0.14336774032E+03  0.27345563822E+03  0.90743709442E+02 0.  0.
         23    2    4    4    0    0  0.24225878376E+03  0.93877343523E+03 -0.11682115829E+04  0.15208226196E+04  0.90544226031E+02 0.  0.
          2    1    3    3  502    0 -0.90506228965E+02 -0.35607291730E+03  0.34183185912E+03  0.50182498924E+03  0.00000000000E+00 0. -1.
         -1    1    3    3    0  502 -0.28899660661E+03 -0.74748318251E+03  0.65518456907E+03  0.10351410369E+04  0.00000000000E+00 0.  1.
         11    1    5    5    0    0  0.11154822315E+03  0.73608532967E+02  0.10977288652E+03  0.17294886188E+03  0.00000000000E+00 0. -1.
        -11    1    5    5    0    0  0.25695828669E+02  0.91174131620E+02  0.33594853805E+02  0.10050677634E+03  0.00000000000E+00 0.  1.
          2    1    6    6  503    0  0.10678863489E+03  0.58533223594E+03 -0.69749992303E+03  0.91680084075E+03  0.00000000000E+00 0. -1.
         -2    1    6    6    0  503  0.13547014887E+03  0.35344119928E+03 -0.47071165983E+03  0.60402177881E+03  0.00000000000E+00 0.  1.
<mgrwt>
<rscale>  0 0.33311281E+04</rscale>
<asrwt>0</asrwt>
<pdfrwt beam="1">  1        2 0.25839013E+00 0.33311281E+04</pdfrwt>
<pdfrwt beam="2">  1       -1 0.25410899E+00 0.33311281E+04</pdfrwt>
<totfact> 0.62566759E-01</totfact>
</mgrwt>
</event>
<event>
12    6  0.1402540E-007  0.1944912E+04  0.7818608E-02  0.8632818E-01
         -1   -1    0    0    0  501 -0.00000000000E+00  0.00000000000E+00  0.24775667023E+03  0.24775667023E+03  0.00000000000E+00 0.  1.
          2   -1    0    0  501    0  0.00000000000E+00 -0.00000000000E+00 -0.38169323813E+04  0.38169323813E+04  0.00000000000E+00 0. -1.
         24    2    1    2    0    0  0.55181819539E+03 -0.20259857844E+03 -0.39137618212E+03  0.71058017321E+03  0.78736026623E+02 0.  0.
        254    2    1    2    0    0 -0.55181819539E+03  0.20259857844E+03 -0.31777995290E+04  0.33541088783E+04  0.89782348860E+03 0.  0.
         23    2    4    4    0    0 -0.51338674156E+03 -0.27204753916E+03 -0.17637876893E+04  0.18593244967E+04  0.92545994929E+02 0.  0.
         23    2    4    4    0    0 -0.38431453830E+02  0.47464611760E+03 -0.14140118396E+04  0.14947843816E+04  0.90470720328E+02 0.  0.
          4    1    3    3  502    0  0.91834090707E+02 -0.13839255844E+02 -0.89087720398E+02  0.12869206325E+03  0.00000000000E+00 0. -1.
         -3    1    3    3    0  502  0.45998410468E+03 -0.18875932260E+03 -0.30228846172E+03  0.58188810996E+03  0.00000000000E+00 0.  1.
         11    1    5    5    0    0 -0.42516836581E+03 -0.18352597620E+03 -0.13651923997E+04  0.14415964108E+04  0.00000000000E+00 0. -1.
        -11    1    5    5    0    0 -0.88218375743E+02 -0.88521562959E+02 -0.39859528957E+03  0.41772808595E+03  0.00000000000E+00 0.  1.
          1    1    6    6  503    0 -0.49264159160E+02  0.42391094488E+03 -0.11721865600E+04  0.12474569243E+04  0.00000000000E+00 0. -1.
         -1    1    6    6    0  503  0.10832705329E+02  0.50735172718E+02 -0.24182527965E+03  0.24732745730E+03  0.00000000000E+00 0.  1.
<mgrwt>
<rscale>  0 0.19449118E+04</rscale>
<asrwt>0</asrwt>
<pdfrwt beam="1">  1        2 0.58722032E+00 0.19449118E+04</pdfrwt>
<pdfrwt beam="2">  1       -1 0.38116414E-01 0.19449118E+04</pdfrwt>
<totfact> 0.34002020E+00</totfact>
</mgrwt>
</event>
<event>
12    6  0.1402540E-007  0.1416112E+04  0.7818608E-02  0.8942238E-01
          2   -1    0    0  501    0  0.00000000000E+00  0.00000000000E+00  0.69974968419E+03  0.69974968419E+03  0.00000000000E+00 0. -1.
         -1   -1    0    0    0  501 -0.00000000000E+00 -0.00000000000E+00 -0.71646110530E+03  0.71646110530E+03  0.00000000000E+00 0.  1.
         24    2    1    2    0    0  0.20973402824E+03  0.34046649930E+03 -0.12015153775E+03  0.42534332196E+03  0.81084830702E+02 0.  0.
        254    2    1    2    0    0 -0.20973402824E+03 -0.34046649930E+03  0.10344011664E+03  0.99086746753E+03  0.90067345955E+03 0.  0.
         23    2    4    4    0    0  0.20049616532E+03 -0.31114407919E+03 -0.23498558440E+03  0.45050900126E+03  0.10358950247E+03 0.  0.
         23    2    4    4    0    0 -0.41023019357E+03 -0.29322420109E+02  0.33842570104E+03  0.54035846627E+03  0.91141104400E+02 0.  0.
          2    1    3    3  502    0  0.76812872934E+02  0.98882133467E+02 -0.16543933867E+01  0.12522232543E+03  0.00000000000E+00 0. -1.
         -1    1    3    3    0  502  0.13292115531E+03  0.24158436583E+03 -0.11849714436E+03  0.30012099654E+03  0.00000000000E+00 0.  1.
         11    1    5    5    0    0  0.65182448280E+02 -0.19352743695E+03 -0.14024410428E+03  0.24772975034E+03  0.00000000000E+00 0.  1.
        -11    1    5    5    0    0  0.13531371704E+03 -0.11761664224E+03 -0.94741480116E+02  0.20277925092E+03  0.00000000000E+00 0. -1.
          4    1    6    6  503    0 -0.39115147896E+03 -0.30275427678E+02  0.28872198711E+03  0.48711032309E+03  0.00000000000E+00 0. -1.
         -4    1    6    6    0  503 -0.19078714603E+02  0.95300756893E+00  0.49703713925E+02  0.53248143181E+02  0.00000000000E+00 0.  1.
<mgrwt>
<rscale>  0 0.14161122E+04</rscale>
<asrwt>0</asrwt>
<pdfrwt beam="1">  1        2 0.10765380E+00 0.14161122E+04</pdfrwt>
<pdfrwt beam="2">  1       -1 0.11022479E+00 0.14161122E+04</pdfrwt>
<totfact> 0.34585151E+01</totfact>
</mgrwt>
</event>
<event>
12    6  0.1402540E-007  0.2487964E+04  0.7818608E-02  0.8407286E-01
         -1   -1    0    0    0  501 -0.00000000000E+00  0.00000000000E+00  0.63484710543E+03  0.63484710543E+03  0.00000000000E+00 0.  1.
          2   -1    0    0  501    0  0.00000000000E+00 -0.00000000000E+00 -0.24375817382E+04  0.24375817382E+04  0.00000000000E+00 0. -1.
         24    2    1    2    0    0  0.86138423458E+03 -0.84866546705E+00 -0.15895626203E+04  0.18097234493E+04  0.80038237077E+02 0.  0.
        254    2    1    2    0    0 -0.86138423458E+03  0.84866546705E+00 -0.21317201251E+03  0.12627053943E+04  0.89833127860E+03 0.  0.
         23    2    4    4    0    0 -0.94739046133E+03  0.22039104985E+03 -0.10096360349E+03  0.98222681691E+03  0.91950908414E+02 0.  0.
         23    2    4    4    0    0  0.86006226747E+02 -0.21954238438E+03 -0.11220840902E+03  0.28047857741E+03  0.10237956707E+03 0.  0.
          4    1    3    3  502    0  0.67915141161E+03 -0.27777511980E+02 -0.12878693111E+04  0.14562367914E+04  0.00000000000E+00 0. -1.
         -3    1    3    3    0  502  0.18223282298E+03  0.26928846513E+02 -0.30169330920E+03  0.35348665796E+03  0.00000000000E+00 0.  1.
         11    1    5    5    0    0 -0.29115855288E+03  0.74552542334E+02 -0.73579324555E+02  0.30942737676E+03  0.00000000000E+00 0.  1.
        -11    1    5    5    0    0 -0.65623190845E+03  0.14583850751E+03 -0.27384278934E+02  0.67279944016E+03  0.00000000000E+00 0. -1.
          2    1    6    6  503    0  0.10385030427E+03 -0.15912353767E+03 -0.10492918544E+03  0.21706063645E+03  0.00000000000E+00 0. -1.
         -2    1    6    6    0  503 -0.17844077519E+02 -0.60418846709E+02 -0.72792235767E+01  0.63417940963E+02  0.00000000000E+00 0.  1.
<mgrwt>
<rscale>  0 0.24879644E+04</rscale>
<asrwt>0</asrwt>
<pdfrwt beam="1">  1        2 0.37501257E+00 0.24879644E+04</pdfrwt>
<pdfrwt beam="2">  1       -1 0.97668786E-01 0.24879644E+04</pdfrwt>
<totfact> 0.38626127E+00</totfact>
</mgrwt>
</event>
<event>
12    6  0.1402540E-007  0.1809850E+04  0.7818608E-02  0.8701079E-01
         -3   -1    0    0    0  501 -0.00000000000E+00  0.00000000000E+00  0.16153463285E+04  0.16153463285E+04  0.00000000000E+00 0.  1.
          4   -1    0    0  501    0  0.00000000000E+00 -0.00000000000E+00 -0.50694370080E+03  0.50694370080E+03  0.00000000000E+00 0. -1.
         24    2    1    2    0    0  0.26102102942E+02  0.67413932706E+03  0.49934104596E+03  0.84322699222E+03  0.80901966367E+02 0.  0.
        254    2    1    2    0    0 -0.26102102942E+02 -0.67413932706E+03  0.60906158176E+03  0.12790630371E+04  0.89994504856E+03 0.  0.
         23    2    4    4    0    0  0.45240451391E+02 -0.69377296221E+03  0.79251044521E+03  0.10582028727E+04  0.91394159574E+02 0.  0.
         23    2    4    4    0    0 -0.71342554332E+02  0.19633635148E+02 -0.18344886345E+03  0.22086016444E+03  0.98236892505E+02 0.  0.
          2    1    3    3  502    0  0.26524172472E+02  0.34777746134E+03  0.21037124607E+03  0.40731898497E+03  0.00000000000E+00 0. -1.
         -1    1    3    3    0  502 -0.42206952990E+00  0.32636186572E+03  0.28896979989E+03  0.43590800725E+03  0.00000000000E+00 0.  1.
         11    1    5    5    0    0  0.77457719339E+01 -0.57873397636E+03  0.62867951596E+03  0.85453551487E+03  0.00000000000E+00 0. -1.
        -11    1    5    5    0    0  0.37494679457E+02 -0.11503898585E+03  0.16383092925E+03  0.20366735779E+03  0.00000000000E+00 0.  1.
          3    1    6    6  503    0 -0.13342646487E+02  0.42727129675E+02 -0.13382208169E+03  0.14110982734E+03  0.00000000000E+00 0. -1.
         -3    1    6    6    0  503 -0.57999907845E+02 -0.23093494527E+02 -0.49626781761E+02  0.79750337099E+02  0.00000000000E+00 0.  1.
<mgrwt>
<rscale>  0 0.18098504E+04</rscale>
<asrwt>0</asrwt>
<pdfrwt beam="1">  1        4 0.77991339E-01 0.18098504E+04</pdfrwt>
<pdfrwt beam="2">  1       -3 0.24851482E+00 0.18098504E+04</pdfrwt>
<totfact> 0.23704061E-01</totfact>
</mgrwt>
</event>
<event>
12    6  0.1402540E-007  0.2521847E+04  0.7818608E-02  0.8395244E-01
          2   -1    0    0  501    0  0.00000000000E+00  0.00000000000E+00  0.13704970454E+04  0.13704970454E+04  0.00000000000E+00 0. -1.
         -1   -1    0    0    0  501 -0.00000000000E+00 -0.00000000000E+00 -0.11601103247E+04  0.11601103247E+04  0.00000000000E+00 0.  1.
         24    2    1    2    0    0  0.54881191476E+03 -0.88586128484E+03 -0.25893819121E+03  0.10767241272E+04  0.79631183779E+02 0.  0.
        254    2    1    2    0    0 -0.54881191476E+03  0.88586128484E+03  0.46932491195E+03  0.14538832429E+04  0.89864669216E+03 0.  0.
         23    2    4    4    0    0 -0.46636744205E+03  0.11202418608E+03 -0.82944926775E+02  0.49528397877E+03  0.91533324393E+02 0.  0.
         23    2    4    4    0    0 -0.82444472710E+02  0.77383709877E+03  0.55226983872E+03  0.95859926416E+03  0.91047394119E+02 0.  0.
          2    1    3    3  502    0  0.97178753492E+02 -0.13187867766E+03 -0.14439463591E+02  0.16445118990E+03  0.00000000000E+00 0. -1.
         -1    1    3    3    0  502  0.45163316127E+03 -0.75398260718E+03 -0.24449872762E+03  0.91227293728E+03  0.00000000000E+00 0.  1.
         11    1    5    5    0    0 -0.43753237446E+03  0.81440030464E+02 -0.85446621674E+02  0.45317566397E+03  0.00000000000E+00 0. -1.
        -11    1    5    5    0    0 -0.28835067597E+02  0.30584155613E+02  0.25016948989E+01  0.42108314799E+02  0.00000000000E+00 0.  1.
          4    1    6    6  503    0 -0.66081706825E+02  0.75684012255E+03  0.53931211992E+03  0.93168198747E+03  0.00000000000E+00 0. -1.
         -4    1    6    6    0  503 -0.16362765885E+02  0.16996976213E+02  0.12957718805E+02  0.26917276691E+02  0.00000000000E+00 0.  1.
<mgrwt>
<rscale>  0 0.25218468E+04</rscale>
<asrwt>0</asrwt>
<pdfrwt beam="1">  1        2 0.21084570E+00 0.25218468E+04</pdfrwt>
<pdfrwt beam="2">  1       -1 0.17847851E+00 0.25218468E+04</pdfrwt>
<totfact> 0.32573569E+00</totfact>
</mgrwt>
</event>
<event>
12    6  0.1402540E-007  0.2261629E+04  0.7818608E-02  0.8493206E-01
          2   -1    0    0  501    0  0.00000000000E+00  0.00000000000E+00  0.17727319629E+04  0.17727319629E+04  0.00000000000E+00 0. -1.
         -1   -1    0    0    0  501 -0.00000000000E+00 -0.00000000000E+00 -0.72133935458E+03  0.72133935458E+03  0.00000000000E+00 0.  1.
         24    2    1    2    0    0 -0.71844920511E+03 -0.10467237580E+03 -0.22855968819E+03  0.76562026754E+03  0.82518461077E+02 0.  0.
        254    2    1    2    0    0  0.71844920511E+03  0.10467237580E+03  0.12799522965E+04  0.17284510499E+04  0.90671913185E+03 0.  0.
         23    2    4    4    0    0  0.28826495926E+03 -0.28088051320E+03  0.12001897150E+03  0.42952265489E+03  0.89970040060E+02 0.  0.
         23    2    4    4    0    0  0.43018424585E+03  0.38555288899E+03  0.11599333250E+04  0.12989283950E+04  0.89778290216E+02 0.  0.
          4    1    3    3  502    0 -0.32355579350E+02  0.12450711448E+02 -0.96131246228E+01  0.35976602058E+02  0.00000000000E+00 0. -1.
         -3    1    3    3    0  502 -0.68609362576E+03 -0.11712308724E+03 -0.21894656357E+03  0.72964366548E+03  0.00000000000E+00 0.  1.
         11    1    5    5    0    0  0.33567634541E+02 -0.34043149713E+01 -0.14533315025E+01  0.33771106312E+02  0.00000000000E+00 0. -1.
        -11    1    5    5    0    0  0.25469732472E+03 -0.27747619823E+03  0.12147230300E+03  0.39575154857E+03  0.00000000000E+00 0.  1.
          2    1    6    6  503    0  0.27607567999E+03  0.20346514606E+03  0.74882110112E+03  0.82361938311E+03  0.00000000000E+00 0. -1.
         -2    1    6    6    0  503  0.15410856586E+03  0.18208774293E+03  0.41111222385E+03  0.47530901191E+03  0.00000000000E+00 0.  1.
<mgrwt>
<rscale>  0 0.22616289E+04</rscale>
<asrwt>0</asrwt>
<pdfrwt beam="1">  1        2 0.27272799E+00 0.22616289E+04</pdfrwt>
<pdfrwt beam="2">  1       -1 0.11097529E+00 0.22616289E+04</pdfrwt>
<totfact> 0.69143192E+00</totfact>
</mgrwt>
</event>
<event>
12    6  0.1402540E-007  0.2163066E+04  0.7818608E-02  0.8533960E-01
          2   -1    0    0  501    0  0.00000000000E+00  0.00000000000E+00  0.19311340364E+04  0.19311340364E+04  0.00000000000E+00 0. -1.
         -1   -1    0    0    0  501 -0.00000000000E+00 -0.00000000000E+00 -0.60571355209E+03  0.60571355209E+03  0.00000000000E+00 0.  1.
         24    2    1    2    0    0 -0.46153353810E+03  0.70785588999E+03  0.88548036655E+03  0.12262425423E+04  0.74311003697E+02 0.  0.
        254    2    1    2    0    0  0.46153353810E+03 -0.70785588999E+03  0.43994011782E+03  0.13106050462E+04  0.90003617268E+03 0.  0.
         23    2    4    4    0    0  0.69654293426E+03 -0.68383503628E+03  0.36571191292E+03  0.10467621794E+04  0.95725863060E+02 0.  0.
         23    2    4    4    0    0 -0.23500939616E+03 -0.24020853707E+02  0.74228204895E+02  0.26384286682E+03  0.91086850147E+02 0.  0.
          4    1    3    3  502    0 -0.12940595262E+03  0.16315908969E+03  0.25595627326E+03  0.32997030616E+03  0.00000000000E+00 0. -1.
         -3    1    3    3    0  502 -0.33212758547E+03  0.54469680030E+03  0.62952409328E+03  0.89627223616E+03  0.00000000000E+00 0.  1.
         11    1    5    5    0    0  0.42374975377E+03 -0.47981926109E+03  0.24036935754E+03  0.68378929882E+03  0.00000000000E+00 0.  1.
        -11    1    5    5    0    0  0.27279318050E+03 -0.20401577519E+03  0.12534255538E+03  0.36297288059E+03  0.00000000000E+00 0. -1.
          1    1    6    6  503    0 -0.98099416620E+02 -0.54148969455E+02  0.44343740197E+02  0.12050715219E+03  0.00000000000E+00 0. -1.
         -1    1    6    6    0  503 -0.13690997954E+03  0.30128115748E+02  0.29884464697E+02  0.14333571463E+03  0.00000000000E+00 0.  1.
<mgrwt>
<rscale>  0 0.21630664E+04</rscale>
<asrwt>0</asrwt>
<pdfrwt beam="1">  1        2 0.29709754E+00 0.21630664E+04</pdfrwt>
<pdfrwt beam="2">  1       -1 0.93186701E-01 0.21630664E+04</pdfrwt>
<totfact> 0.85143663E+00</totfact>
</mgrwt>
</event>
<event>
12    6  0.1402540E-007  0.2331183E+04  0.7818608E-02  0.8465727E-01
          2   -1    0    0  501    0  0.00000000000E+00  0.00000000000E+00  0.16967133654E+04  0.16967133654E+04  0.00000000000E+00 0. -1.
         -1   -1    0    0    0  501 -0.00000000000E+00 -0.00000000000E+00 -0.80072643419E+03  0.80072643419E+03  0.00000000000E+00 0.  1.
         24    2    1    2    0    0  0.95059609442E+03 -0.25408359761E+03  0.49743427964E+03  0.11054025028E+04  0.79261726346E+02 0.  0.
        254    2    1    2    0    0 -0.95059609442E+03  0.25408359761E+03  0.39855265152E+03  0.13920372968E+04  0.90040669158E+03 0.  0.
         23    2    4    4    0    0 -0.19650301685E+03  0.32237201867E+03 -0.18635319228E+03  0.43064296658E+03  0.90491426881E+02 0.  0.
         23    2    4    4    0    0 -0.75409307757E+03 -0.68288421062E+02  0.58490584380E+03  0.96139433018E+03  0.94045382106E+02 0.  0.
          4    1    3    3  502    0  0.66557682514E+03 -0.20799853746E+03  0.37543331159E+03  0.79196342920E+03  0.00000000000E+00 0. -1.
         -3    1    3    3    0  502  0.28501926929E+03 -0.46085060151E+02  0.12200096806E+03  0.31343907357E+03  0.00000000000E+00 0.  1.
         11    1    5    5    0    0 -0.92670916584E+02  0.19165831129E+03 -0.59697560046E+02  0.22109863351E+03  0.00000000000E+00 0. -1.
        -11    1    5    5    0    0 -0.10383210026E+03  0.13071370738E+03 -0.12665563224E+03  0.20954433307E+03  0.00000000000E+00 0.  1.
          3    1    6    6  503    0 -0.60154564158E+03 -0.59989832279E+02  0.41707723007E+03  0.73444492967E+03  0.00000000000E+00 0. -1.
         -3    1    6    6    0  503 -0.15254743600E+03 -0.82985887827E+01  0.16782861373E+03  0.22694940051E+03  0.00000000000E+00 0.  1.
<mgrwt>
<rscale>  0 0.23311827E+04</rscale>
<asrwt>0</asrwt>
<pdfrwt beam="1">  1        2 0.26103283E+00 0.23311827E+04</pdfrwt>
<pdfrwt beam="2">  1       -1 0.12318868E+00 0.23311827E+04</pdfrwt>
<totfact> 0.58847533E+00</totfact>
</mgrwt>
</event>
<event>
12    6  0.1402540E-007  0.2614309E+04  0.7818608E-02  0.8363357E-01
         -1   -1    0    0    0  501 -0.00000000000E+00  0.00000000000E+00  0.86293858978E+03  0.86293858978E+03  0.00000000000E+00 0.  1.
          2   -1    0    0  501    0  0.00000000000E+00 -0.00000000000E+00 -0.19800393604E+04  0.19800393604E+04  0.00000000000E+00 0. -1.
         24    2    1    2    0    0  0.13184842200E+02  0.10946794038E+04 -0.10399391818E+03  0.11028020067E+04  0.82829305179E+02 0.  0.
        254    2    1    2    0    0 -0.13184842200E+02 -0.10946794038E+04 -0.10131068525E+04  0.17401759435E+04  0.89628677477E+03 0.  0.
         23    2    4    4    0    0 -0.15508612475E+03 -0.31438405591E+03  0.96615292115E+02  0.37314814322E+03  0.83761455432E+02 0.  0.
         23    2    4    4    0    0  0.14190128255E+03 -0.78029534790E+03 -0.11097221446E+04  0.13670278003E+04  0.91021781067E+02 0.  0.
          4    1    3    3  502    0  0.11578717300E+02  0.46365746306E+03 -0.84770656536E+02  0.47148528499E+03  0.00000000000E+00 0. -1.
         -3    1    3    3    0  502  0.16061249007E+01  0.63102194075E+03 -0.19223261645E+02  0.63131672172E+03  0.00000000000E+00 0.  1.
         11    1    5    5    0    0 -0.37419444551E+02 -0.12164415551E+03 -0.65434816433E+00  0.12727114195E+03  0.00000000000E+00 0.  1.
        -11    1    5    5    0    0 -0.11766668020E+03 -0.19273990040E+03  0.97269640279E+02  0.24587700127E+03  0.00000000000E+00 0. -1.
          1    1    6    6  503    0  0.12747298436E+03 -0.62597332786E+03 -0.83171751859E+03  0.10487354288E+04  0.00000000000E+00 0. -1.
         -1    1    6    6    0  503  0.14428298184E+02 -0.15432202003E+03 -0.27800462599E+03  0.31829237146E+03  0.00000000000E+00 0.  1.
<mgrwt>
<rscale>  0 0.26143086E+04</rscale>
<asrwt>0</asrwt>
<pdfrwt beam="1">  1        2 0.30462144E+00 0.26143086E+04</pdfrwt>
<pdfrwt beam="2">  1       -1 0.13275978E+00 0.26143086E+04</pdfrwt>
<totfact> 0.33127705E+00</totfact>
</mgrwt>
</event>
<event>
12    6  0.1402540E-007  0.2422725E+04  0.7818608E-02  0.8431044E-01
         -1   -1    0    0    0  501 -0.00000000000E+00  0.00000000000E+00  0.53432655928E+03  0.53432655928E+03  0.00000000000E+00 0.  1.
          2   -1    0    0  501    0  0.00000000000E+00 -0.00000000000E+00 -0.27462586633E+04  0.27462586633E+04  0.00000000000E+00 0. -1.
         24    2    1    2    0    0 -0.10131432012E+04  0.21146634984E+03 -0.11414358492E+04  0.15429180205E+04  0.80889162906E+02 0.  0.
        254    2    1    2    0    0  0.10131432012E+04 -0.21146634984E+03 -0.10704962548E+04  0.17376672021E+04  0.89573875128E+03 0.  0.
         23    2    4    4    0    0  0.60488200602E+03 -0.49697605405E+03 -0.91507013405E+03  0.12079218726E+04  0.94098142664E+02 0.  0.
         23    2    4    4    0    0  0.40826119520E+03  0.28550970421E+03 -0.15542612075E+03  0.52974532958E+03  0.90993628899E+02 0.  0.
          2    1    3    3  502    0 -0.51800783196E+03  0.67820535099E+02 -0.58774412543E+03  0.78636816818E+03  0.00000000000E+00 0. -1.
         -1    1    3    3    0  502 -0.49513536926E+03  0.14364581474E+03 -0.55369172381E+03  0.75654985229E+03  0.00000000000E+00 0.  1.
         11    1    5    5    0    0  0.37261521143E+02 -0.15680398128E+02 -0.24231081493E+02  0.47132166868E+02  0.00000000000E+00 0.  1.
        -11    1    5    5    0    0  0.56762048488E+03 -0.48129565592E+03 -0.89083905256E+03  0.11607897057E+04  0.00000000000E+00 0. -1.
          4    1    6    6  503    0  0.24689852062E+03  0.13951241969E+03 -0.50071096938E+02  0.28797518900E+03  0.00000000000E+00 0. -1.
         -4    1    6    6    0  503  0.16136267458E+03  0.14599728452E+03 -0.10535502381E+03  0.24177014058E+03  0.00000000000E+00 0.  1.
<mgrwt>
<rscale>  0 0.24227249E+04</rscale>
<asrwt>0</asrwt>
<pdfrwt beam="1">  1        2 0.42250133E+00 0.24227249E+04</pdfrwt>
<pdfrwt beam="2">  1       -1 0.82204087E-01 0.24227249E+04</pdfrwt>
<totfact> 0.37436895E+00</totfact>
</mgrwt>
</event>
<event>
12    6  0.1402540E-007  0.2055748E+04  0.7818608E-02  0.8580991E-01
          2   -1    0    0  501    0  0.00000000000E+00  0.00000000000E+00  0.14942427679E+04  0.14942427679E+04  0.00000000000E+00 0. -1.
         -1   -1    0    0    0  501 -0.00000000000E+00 -0.00000000000E+00 -0.70706412079E+03  0.70706412079E+03  0.00000000000E+00 0.  1.
         24    2    1    2    0    0  0.45516402642E+03  0.44882990123E+03 -0.24597313366E+03  0.68965042803E+03  0.80575177358E+02 0.  0.
        254    2    1    2    0    0 -0.45516402642E+03 -0.44882990123E+03  0.10331517808E+04  0.15116564607E+04  0.89948878916E+03 0.  0.
         23    2    4    4    0    0 -0.10359021332E+03  0.61258491750E+02  0.84434849391E+03  0.85764306812E+03  0.90242550988E+02 0.  0.
         23    2    4    4    0    0 -0.35157381310E+03 -0.51008839298E+03  0.18880328690E+03  0.65401339259E+03  0.91063284771E+02 0.  0.
          2    1    3    3  502    0  0.33507184971E+03  0.31730616798E+03 -0.13926733189E+03  0.48202877345E+03  0.00000000000E+00 0. -1.
         -1    1    3    3    0  502  0.12009217671E+03  0.13152373325E+03 -0.10670580177E+03  0.20762165457E+03  0.00000000000E+00 0.  1.
         11    1    5    5    0    0 -0.22363460069E+02 -0.76946472681E+01  0.41585890681E+02  0.47840550233E+02  0.00000000000E+00 0. -1.
        -11    1    5    5    0    0 -0.81226753252E+02  0.68953139018E+02  0.80276260323E+03  0.80980251788E+03  0.00000000000E+00 0.  1.
          1    1    6    6  503    0 -0.77678712560E+02 -0.87872496817E+02  0.23401668892E+01  0.11730743567E+03  0.00000000000E+00 0. -1.
         -1    1    6    6    0  503 -0.27389510054E+03 -0.42221589617E+03  0.18646312001E+03  0.53670595693E+03  0.00000000000E+00 0.  1.
<mgrwt>
<rscale>  0 0.20557485E+04</rscale>
<asrwt>0</asrwt>
<pdfrwt beam="1">  1        2 0.22988350E+00 0.20557485E+04</pdfrwt>
<pdfrwt beam="2">  1       -1 0.10877910E+00 0.20557485E+04</pdfrwt>
<totfact> 0.10560431E+01</totfact>
</mgrwt>
</event>
<event>
12    6  0.1402540E-007  0.2951862E+04  0.7818608E-02  0.8257612E-01
          2   -1    0    0  501    0  0.00000000000E+00  0.00000000000E+00  0.20953060914E+04  0.20953060914E+04  0.00000000000E+00 0. -1.
         -1   -1    0    0    0  501 -0.00000000000E+00 -0.00000000000E+00 -0.10396437193E+04  0.10396437193E+04  0.00000000000E+00 0.  1.
         24    2    1    2    0    0  0.66797977558E+03 -0.56827107781E+03  0.15513785141E+04  0.17839064935E+04  0.80112950744E+02 0.  0.
        254    2    1    2    0    0 -0.66797977558E+03  0.56827107781E+03 -0.49571614205E+03  0.13510433173E+04  0.90025249411E+03 0.  0.
         23    2    4    4    0    0  0.16210784143E+03  0.15905901015E+03 -0.32288042609E+03  0.40518664373E+03  0.91354943720E+02 0.  0.
         23    2    4    4    0    0 -0.83008761701E+03  0.40921206767E+03 -0.17283571596E+03  0.94585667353E+03  0.90954350666E+02 0.  0.
          4    1    3    3  502    0  0.19858391952E+03 -0.12707463414E+03  0.38482640885E+03  0.45130355713E+03  0.00000000000E+00 0. -1.
         -3    1    3    3    0  502  0.46939585606E+03 -0.44119644368E+03  0.11665521053E+04  0.13326029363E+04  0.00000000000E+00 0.  1.
         11    1    5    5    0    0  0.68354694309E+02  0.47707392240E+02 -0.53664277240E+02  0.99137349976E+02  0.00000000000E+00 0. -1.
        -11    1    5    5    0    0  0.93753147123E+02  0.11135161791E+03 -0.26921614885E+03  0.30604929375E+03  0.00000000000E+00 0.  1.
          1    1    6    6  503    0 -0.53073653433E+03  0.30044673167E+03 -0.13942753510E+03  0.62561133701E+03  0.00000000000E+00 0.  1.
         -1    1    6    6    0  503 -0.29935108268E+03  0.10876533600E+03 -0.33408180860E+02  0.32024533652E+03  0.00000000000E+00 0. -1.
<mgrwt>
<rscale>  0 0.29518617E+04</rscale>
<asrwt>0</asrwt>
<pdfrwt beam="1">  1        2 0.32235478E+00 0.29518617E+04</pdfrwt>
<pdfrwt beam="2">  1       -1 0.15994519E+00 0.29518617E+04</pdfrwt>
<totfact> 0.16901633E+00</totfact>
</mgrwt>
</event>
<event>
12    6  0.1402540E-007  0.1665150E+04  0.7818608E-02  0.8781494E-01
          2   -1    0    0  501    0  0.00000000000E+00  0.00000000000E+00  0.59968337599E+03  0.59968337599E+03  0.00000000000E+00 0. -1.
         -1   -1    0    0    0  501 -0.00000000000E+00 -0.00000000000E+00 -0.11559116680E+04  0.11559116680E+04  0.00000000000E+00 0.  1.
         24    2    1    2    0    0  0.22441166984E+03  0.52849122734E+03 -0.70658556682E+02  0.58397759713E+03  0.79835000987E+02 0.  0.
        254    2    1    2    0    0 -0.22441166984E+03 -0.52849122734E+03 -0.48556973537E+03  0.11716174469E+04  0.89846864109E+03 0.  0.
         23    2    4    4    0    0 -0.27355947382E+03 -0.84167863999E+02  0.19036332801E+03  0.35590721815E+03  0.92264490644E+02 0.  0.
         23    2    4    4    0    0  0.49147803983E+02 -0.44432336334E+03 -0.67593306339E+03  0.81571022874E+03  0.93053281741E+02 0.  0.
          2    1    3    3  502    0  0.15375539615E+03  0.40618069254E+03 -0.83070438686E+02  0.44218115589E+03  0.00000000000E+00 0. -1.
         -1    1    3    3    0  502  0.70656273688E+02  0.12231053480E+03  0.12411882004E+02  0.14179644124E+03  0.00000000000E+00 0.  1.
         11    1    5    5    0    0 -0.26840308281E+03 -0.92719086019E+02  0.16447567873E+03  0.32816046786E+03  0.00000000000E+00 0. -1.
        -11    1    5    5    0    0 -0.51563910143E+01  0.85512220198E+01  0.25887649287E+02  0.27746750295E+02  0.00000000000E+00 0.  1.
          3    1    6    6  503    0  0.55992198621E+02 -0.29382648543E+03 -0.51275573069E+03  0.59362241299E+03  0.00000000000E+00 0. -1.
         -3    1    6    6    0  503 -0.68443946379E+01 -0.15049687791E+03 -0.16317733269E+03  0.22208781575E+03  0.00000000000E+00 0.  1.
<mgrwt>
<rscale>  0 0.16651499E+04</rscale>
<asrwt>0</asrwt>
<pdfrwt beam="1">  1        2 0.92258981E-01 0.16651499E+04</pdfrwt>
<pdfrwt beam="2">  1       -1 0.17783256E+00 0.16651499E+04</pdfrwt>
<totfact> 0.11669492E+01</totfact>
</mgrwt>
</event>
<event>
12    6  0.1402540E-007  0.1497499E+04  0.7818608E-02  0.8886118E-01
         -1   -1    0    0    0  501 -0.00000000000E+00  0.00000000000E+00  0.17464787713E+04  0.17464787713E+04  0.00000000000E+00 0.  1.
          2   -1    0    0  501    0  0.00000000000E+00 -0.00000000000E+00 -0.32100348264E+03  0.32100348264E+03  0.00000000000E+00 0. -1.
         24    2    1    2    0    0 -0.25345155925E+03  0.14306761584E+03  0.97207908118E+03  0.10178373895E+04  0.79681715031E+02 0.  0.
        254    2    1    2    0    0  0.25345155925E+03 -0.14306761584E+03  0.45339620750E+03  0.10496448645E+04  0.90082194969E+03 0.  0.
         23    2    4    4    0    0 -0.20898150170E+03  0.20162321987E+02 -0.14356654701E+03  0.27168883894E+03  0.95517979996E+02 0.  0.
         23    2    4    4    0    0  0.46243306095E+03 -0.16322993783E+03  0.59696275452E+03  0.77795602558E+03  0.91447793786E+02 0.  0.
          4    1    3    3  502    0 -0.10636317640E+03  0.57883470350E+02  0.27763443547E+03  0.30289354762E+03  0.00000000000E+00 0. -1.
         -3    1    3    3    0  502 -0.14708838285E+03  0.85184145491E+02  0.69444464571E+03  0.71494384183E+03  0.00000000000E+00 0.  1.
         11    1    5    5    0    0  0.25806136347E+01  0.66114838785E+01  0.82920431202E+01  0.10914635354E+02  0.00000000000E+00 0.  1.
        -11    1    5    5    0    0 -0.21156211534E+03  0.13550838109E+02 -0.15185859013E+03  0.26077420359E+03  0.00000000000E+00 0. -1.
          2    1    6    6  503    0  0.90441623784E+02 -0.43239745223E+02  0.71820068132E+02  0.12331863227E+03  0.00000000000E+00 0.  1.
         -2    1    6    6    0  503  0.37199143717E+03 -0.11999019261E+03  0.52514268638E+03  0.65463739330E+03  0.00000000000E+00 0. -1.
<mgrwt>
<rscale>  0 0.14974989E+04</rscale>
<asrwt>0</asrwt>
<pdfrwt beam="1">  1        2 0.49385152E-01 0.14974989E+04</pdfrwt>
<pdfrwt beam="2">  1       -1 0.26868904E+00 0.14974989E+04</pdfrwt>
<totfact> 0.59417774E+00</totfact>
</mgrwt>
</event>
<event>
12    6  0.1402540E-007  0.1959067E+04  0.7818608E-02  0.8626001E-01
          2   -1    0    0  501    0  0.00000000000E+00  0.00000000000E+00  0.17678317192E+04  0.17678317192E+04  0.00000000000E+00 0. -1.
         -1   -1    0    0    0  501 -0.00000000000E+00 -0.00000000000E+00 -0.54274744384E+03  0.54274744384E+03  0.00000000000E+00 0.  1.
         24    2    1    2    0    0 -0.46471555826E+03  0.61188212748E+03  0.39993513363E+03  0.86982388486E+03  0.79279199908E+02 0.  0.
        254    2    1    2    0    0  0.46471555826E+03 -0.61188212748E+03  0.82514914173E+03  0.14407552782E+04  0.89696397783E+03 0.  0.
         23    2    4    4    0    0  0.35908140459E+03 -0.30001572475E+01 -0.41706948240E+02  0.37120825774E+03  0.84306850380E+02 0.  0.
         23    2    4    4    0    0  0.10563415367E+03 -0.60888197024E+03  0.86685608997E+03  0.10695470205E+04  0.10293454295E+03 0.  0.
          2    1    3    3  502    0 -0.11658903239E+03  0.21274838959E+03  0.13500072141E+03  0.27763298531E+03  0.00000000000E+00 0. -1.
         -1    1    3    3    0  502 -0.34812652587E+03  0.39913373789E+03  0.26493441222E+03  0.59219089955E+03  0.00000000000E+00 0.  1.
         11    1    5    5    0    0  0.26988635777E+03 -0.38444129485E+02 -0.24624311501E+02  0.27372057635E+03  0.00000000000E+00 0.  1.
        -11    1    5    5    0    0  0.89195046815E+02  0.35443972238E+02 -0.17082636740E+02  0.97487681387E+02  0.00000000000E+00 0. -1.
          1    1    6    6  503    0  0.11136134647E+03 -0.34913508642E+03  0.49334718906E+03  0.61456334662E+03  0.00000000000E+00 0. -1.
         -1    1    6    6    0  503 -0.57271928031E+01 -0.25974688382E+03  0.37350890092E+03  0.45498367383E+03  0.00000000000E+00 0.  1.
<mgrwt>
<rscale>  0 0.19590673E+04</rscale>
<asrwt>0</asrwt>
<pdfrwt beam="1">  1        2 0.27197411E+00 0.19590673E+04</pdfrwt>
<pdfrwt beam="2">  1       -1 0.83499608E-01 0.19590673E+04</pdfrwt>
<totfact> 0.13581064E+01</totfact>
</mgrwt>
</event>
<event>
12    6  0.1402540E-007  0.1716602E+04  0.7818608E-02  0.8751952E-01
          2   -1    0    0  501    0  0.00000000000E+00  0.00000000000E+00  0.21181728841E+04  0.21181728841E+04  0.00000000000E+00 0. -1.
         -1   -1    0    0    0  501 -0.00000000000E+00 -0.00000000000E+00 -0.34779057816E+03  0.34779057816E+03  0.00000000000E+00 0.  1.
         24    2    1    2    0    0 -0.37090565676E+02  0.20173787193E+03  0.14832771784E+04  0.14995134039E+04  0.79720646602E+02 0.  0.
        254    2    1    2    0    0  0.37090565676E+02 -0.20173787193E+03  0.28710512753E+03  0.96645005834E+03  0.89973467310E+03 0.  0.
         23    2    4    4    0    0  0.35149781868E+03 -0.39396680086E+03  0.10668124479E+03  0.54643978552E+03  0.91951043945E+02 0.  0.
         23    2    4    4    0    0 -0.31440725301E+03  0.19222892893E+03  0.18042388274E+03  0.42001027283E+03  0.89732769696E+02 0.  0.
          4    1    3    3  502    0  0.65376647084E+01  0.93687300798E+02  0.88692165977E+03  0.89188008273E+03  0.00000000000E+00 0. -1.
         -3    1    3    3    0  502 -0.43628230385E+02  0.10805057113E+03  0.59635551862E+03  0.60763332117E+03  0.00000000000E+00 0.  1.
         11    1    5    5    0    0  0.30659656760E+03 -0.31292339373E+03  0.58403698655E+02  0.44196549371E+03  0.00000000000E+00 0.  1.
        -11    1    5    5    0    0  0.44901251079E+02 -0.81043407132E+02  0.48277546135E+02  0.10447429181E+03  0.00000000000E+00 0. -1.
          3    1    6    6  503    0 -0.63475573466E+02  0.84257516909E+02  0.61132060380E+02  0.12192459304E+03  0.00000000000E+00 0. -1.
         -3    1    6    6    0  503 -0.25093167954E+03  0.10797141202E+03  0.11929182236E+03  0.29808567978E+03  0.00000000000E+00 0.  1.
<mgrwt>
<rscale>  0 0.17166020E+04</rscale>
<asrwt>0</asrwt>
<pdfrwt beam="1">  1        2 0.32587274E+00 0.17166020E+04</pdfrwt>
<pdfrwt beam="2">  1       -1 0.53506244E-01 0.17166020E+04</pdfrwt>
<totfact> 0.21899335E+01</totfact>
</mgrwt>
</event>
<event>
12    6  0.1402540E-007  0.1827528E+04  0.7818608E-02  0.8691796E-01
         -1   -1    0    0    0  501 -0.00000000000E+00  0.00000000000E+00  0.25493765539E+03  0.25493765539E+03  0.00000000000E+00 0.  1.
          2   -1    0    0  501    0  0.00000000000E+00 -0.00000000000E+00 -0.32751721017E+04  0.32751721017E+04  0.00000000000E+00 0. -1.
         24    2    1    2    0    0  0.62733935281E+03  0.25467991036E+03 -0.14884022739E+04  0.16370789465E+04  0.79180980799E+02 0.  0.
        254    2    1    2    0    0 -0.62733935281E+03 -0.25467991036E+03 -0.15318321725E+04  0.18930308107E+04  0.88240542000E+03 0.  0.
         23    2    4    4    0    0 -0.10343329020E+03 -0.30345838997E+03 -0.12417916246E+04  0.12858624632E+04  0.92792217042E+02 0.  0.
         23    2    4    4    0    0 -0.52390606261E+03  0.48778479612E+02 -0.29004054790E+03  0.60716834744E+03  0.87595548981E+02 0.  0.
          4    1    3    3  502    0  0.49410455538E+03  0.17504243332E+03 -0.12017233318E+04  0.13110751814E+04  0.00000000000E+00 0. -1.
         -3    1    3    3    0  502  0.13323479743E+03  0.79637477041E+02 -0.28667894209E+03  0.32600376506E+03  0.00000000000E+00 0.  1.
         11    1    5    5    0    0  0.77180700443E+01  0.21050699316E+01 -0.44060206723E+02  0.44780595586E+02  0.00000000000E+00 0. -1.
        -11    1    5    5    0    0 -0.11115136025E+03 -0.30556345991E+03 -0.11977314178E+04  0.12410818676E+04  0.00000000000E+00 0.  1.
          4    1    6    6  503    0 -0.22043459546E+02 -0.55086136775E+01  0.38691865370E+01  0.23048417252E+02  0.00000000000E+00 0. -1.
         -4    1    6    6    0  503 -0.50186260306E+03  0.54287093289E+02 -0.29390973444E+03  0.58411993019E+03  0.00000000000E+00 0.  1.
<mgrwt>
<rscale>  0 0.18275281E+04</rscale>
<asrwt>0</asrwt>
<pdfrwt beam="1">  1        2 0.50387264E+00 0.18275281E+04</pdfrwt>
<pdfrwt beam="2">  1       -1 0.39221177E-01 0.18275281E+04</pdfrwt>
<totfact> 0.78795584E+00</totfact>
</mgrwt>
</event>
<event>
12    6  0.1402540E-007  0.1523776E+04  0.7818608E-02  0.8868795E-01
         -1   -1    0    0    0  501 -0.00000000000E+00  0.00000000000E+00  0.25041105671E+03  0.25041105671E+03  0.00000000000E+00 0.  1.
          2   -1    0    0  501    0  0.00000000000E+00 -0.00000000000E+00 -0.23180805717E+04  0.23180805717E+04  0.00000000000E+00 0. -1.
         24    2    1    2    0    0  0.45039669091E+03 -0.66233399401E+02 -0.36293559847E+03  0.58725737719E+03  0.76843581678E+02 0.  0.
        254    2    1    2    0    0 -0.45039669091E+03  0.66233399401E+02 -0.17047339165E+04  0.19812342512E+04  0.90107013585E+03 0.  0.
         23    2    4    4    0    0 -0.37202233879E+03  0.35063896450E+03 -0.15506707280E+04  0.16359321836E+04  0.10171577360E+03 0.  0.
         23    2    4    4    0    0 -0.78374352118E+02 -0.28440556510E+03 -0.15406318842E+03  0.34530206756E+03  0.92027100945E+02 0.  0.
          4    1    3    3  502    0  0.41619868579E+03 -0.79588693841E+02 -0.32152341305E+03  0.53191447750E+03  0.00000000000E+00 0. -1.
         -3    1    3    3    0  502  0.34198005120E+02  0.13355294441E+02 -0.41412185428E+02  0.55342899687E+02  0.00000000000E+00 0.  1.
         11    1    5    5    0    0 -0.36458295635E+03  0.35786036295E+03 -0.15211113269E+04  0.16046072542E+04  0.00000000000E+00 0. -1.
        -11    1    5    5    0    0 -0.74393824345E+01 -0.72213984463E+01 -0.29559401131E+02  0.31324929398E+02  0.00000000000E+00 0.  1.
          3    1    6    6  503    0 -0.50112905915E+02 -0.24436646106E+03 -0.15935715947E+03  0.29600840343E+03  0.00000000000E+00 0. -1.
         -3    1    6    6    0  503 -0.28261446203E+02 -0.40039104043E+02  0.52939710491E+01  0.49293664131E+02  0.00000000000E+00 0.  1.
<mgrwt>
<rscale>  0 0.15237756E+04</rscale>
<asrwt>0</asrwt>
<pdfrwt beam="1">  1        2 0.35662777E+00 0.15237756E+04</pdfrwt>
<pdfrwt beam="2">  1       -1 0.38524779E-01 0.15237756E+04</pdfrwt>
<totfact> 0.31777419E+01</totfact>
</mgrwt>
</event>
<event>
12    6  0.1402540E-007  0.2119770E+04  0.7818608E-02  0.8552584E-01
          2   -1    0    0  501    0  0.00000000000E+00  0.00000000000E+00  0.19174902771E+04  0.19174902771E+04  0.00000000000E+00 0. -1.
         -1   -1    0    0    0  501 -0.00000000000E+00 -0.00000000000E+00 -0.58584701589E+03  0.58584701589E+03  0.00000000000E+00 0.  1.
         24    2    1    2    0    0  0.64316245653E+03  0.52498207111E+03  0.84162848994E+03  0.11848379211E+04  0.78982679265E+02 0.  0.
        254    2    1    2    0    0 -0.64316245653E+03 -0.52498207111E+03  0.49001477129E+03  0.13184993720E+04  0.89947873642E+03 0.  0.
         23    2    4    4    0    0 -0.46535605155E+03  0.16717999346E+03  0.22251228004E+03  0.54998796081E+03  0.92030632593E+02 0.  0.
         23    2    4    4    0    0 -0.17780640498E+03 -0.69216206457E+03  0.26750249124E+03  0.76851141114E+03  0.91371576312E+02 0.  0.
          2    1    3    3  502    0  0.53429247972E+03  0.45510410846E+03  0.74371909938E+03  0.10225978204E+04  0.00000000000E+00 0. -1.
         -1    1    3    3    0  502  0.10886997681E+03  0.69877962653E+02  0.97909390559E+02  0.16224010070E+03  0.00000000000E+00 0.  1.
         11    1    5    5    0    0 -0.11889518314E+03  0.19163424413E+02  0.19436010278E+02  0.12198794983E+03  0.00000000000E+00 0. -1.
        -11    1    5    5    0    0 -0.34646086841E+03  0.14801656904E+03  0.20307626977E+03  0.42800001098E+03  0.00000000000E+00 0.  1.
          4    1    6    6  503    0 -0.63460539174E+02 -0.28297077541E+03  0.15581895249E+03  0.32921003284E+03  0.00000000000E+00 0. -1.
         -4    1    6    6    0  503 -0.11434586580E+03 -0.40919128916E+03  0.11168353875E+03  0.43930137830E+03  0.00000000000E+00 0.  1.
<mgrwt>
<rscale>  0 0.21197698E+04</rscale>
<asrwt>0</asrwt>
<pdfrwt beam="1">  1        2 0.29499850E+00 0.21197698E+04</pdfrwt>
<pdfrwt beam="2">  1       -1 0.90130311E-01 0.21197698E+04</pdfrwt>
<totfact> 0.93648019E+00</totfact>
</mgrwt>
</event>
<event>
12    6  0.1402540E-007  0.1993262E+04  0.7818608E-02  0.8609777E-01
          2   -1    0    0  501    0  0.00000000000E+00  0.00000000000E+00  0.92334219395E+03  0.92334219395E+03  0.00000000000E+00 0. -1.
         -1   -1    0    0    0  501 -0.00000000000E+00 -0.00000000000E+00 -0.10757368691E+04  0.10757368691E+04  0.00000000000E+00 0.  1.
         24    2    1    2    0    0  0.99878270389E+02 -0.72341761942E+03  0.24439675949E+03  0.77450914261E+03  0.82619095563E+02 0.  0.
        254    2    1    2    0    0 -0.99878270389E+02  0.72341761942E+03 -0.39679143460E+03  0.12245699204E+04  0.89934383100E+03 0.  0.
         23    2    4    4    0    0  0.15992245449E+03  0.11565989730E+01 -0.41238108566E+03  0.45249464877E+03  0.95481507023E+02 0.  0.
         23    2    4    4    0    0 -0.25980072488E+03  0.72226102045E+03  0.15589651055E+02  0.77207527162E+03  0.81852241993E+02 0.  0.
          2    1    3    3  502    0  0.45551441117E+02 -0.26902968376E+03  0.13287403296E+03  0.30349203147E+03  0.00000000000E+00 0. -1.
         -1    1    3    3    0  502  0.54326829272E+02 -0.45438793566E+03  0.11152272654E+03  0.47101711114E+03  0.00000000000E+00 0.  1.
         11    1    5    5    0    0  0.90817611103E+02 -0.36721768199E+02 -0.29725216715E+03  0.31297791875E+03  0.00000000000E+00 0. -1.
        -11    1    5    5    0    0  0.69104843391E+02  0.37878367172E+02 -0.11512891850E+03  0.13951673002E+03  0.00000000000E+00 0.  1.
          2    1    6    6  503    0 -0.10746609355E+03  0.37505461078E+03 -0.23846513698E+02  0.39087540028E+03  0.00000000000E+00 0. -1.
         -2    1    6    6    0  503 -0.15233463133E+03  0.34720640967E+03  0.39436164753E+02  0.38119987134E+03  0.00000000000E+00 0.  1.
<mgrwt>
<rscale>  0 0.19932619E+04</rscale>
<asrwt>0</asrwt>
<pdfrwt beam="1">  1        2 0.14205265E+00 0.19932619E+04</pdfrwt>
<pdfrwt beam="2">  1       -1 0.16549798E+00 0.19932619E+04</pdfrwt>
<totfact> 0.79690602E+00</totfact>
</mgrwt>
</event>
<event>
12    6  0.1402540E-007  0.1369616E+04  0.7818608E-02  0.8976111E-01
         -1   -1    0    0    0  501 -0.00000000000E+00  0.00000000000E+00  0.99713285331E+03  0.99713285331E+03  0.00000000000E+00 0.  1.
          2   -1    0    0  501    0  0.00000000000E+00 -0.00000000000E+00 -0.47031031742E+03  0.47031031742E+03  0.00000000000E+00 0. -1.
         24    2    1    2    0    0  0.17307657673E+03  0.33961171631E+03  0.20000174754E+03  0.43774596105E+03  0.79556320444E+02 0.  0.
        254    2    1    2    0    0 -0.17307657673E+03 -0.33961171631E+03  0.32682078836E+03  0.10296972097E+04  0.89898436953E+03 0.  0.
         23    2    4    4    0    0 -0.33568852054E+03 -0.38463015740E+03  0.53638382259E+03  0.74676939363E+03  0.96590793196E+02 0.  0.
         23    2    4    4    0    0  0.16261194381E+03  0.45018441089E+02 -0.20956303423E+03  0.28292781605E+03  0.87533876144E+02 0.  0.
          4    1    3    3  502    0  0.29115238035E+02  0.77994922573E+02  0.10091063348E+02  0.83861401088E+02  0.00000000000E+00 0. -1.
         -3    1    3    3    0  502  0.14396133870E+03  0.26161679374E+03  0.18991068419E+03  0.35388455996E+03  0.00000000000E+00 0.  1.
         11    1    5    5    0    0 -0.25588190388E+03 -0.22655522812E+03  0.37185861444E+03  0.50505608525E+03  0.00000000000E+00 0. -1.
        -11    1    5    5    0    0 -0.79806616656E+02 -0.15807492929E+03  0.16452520815E+03  0.24171330838E+03  0.00000000000E+00 0.  1.
          3    1    6    6  503    0  0.14237763743E+03  0.31466808664E+02 -0.21321091602E+03  0.25830301275E+03  0.00000000000E+00 0. -1.
         -3    1    6    6    0  503  0.20234306375E+02  0.13551632425E+02  0.36478817887E+01  0.24624803297E+02  0.00000000000E+00 0.  1.
<mgrwt>
<rscale>  0 0.13696158E+04</rscale>
<asrwt>0</asrwt>
<pdfrwt beam="1">  1        2 0.72355433E-01 0.13696158E+04</pdfrwt>
<pdfrwt beam="2">  1       -1 0.15340505E+00 0.13696158E+04</pdfrwt>
<totfact> 0.24211203E+01</totfact>
</mgrwt>
</event>
<event>
12    6  0.1402540E-007  0.1870853E+04  0.7818608E-02  0.8669502E-01
          2   -1    0    0  501    0  0.00000000000E+00  0.00000000000E+00  0.16920899467E+04  0.16920899467E+04  0.00000000000E+00 0. -1.
         -1   -1    0    0    0  501 -0.00000000000E+00 -0.00000000000E+00 -0.51712532200E+03  0.51712532200E+03  0.00000000000E+00 0.  1.
         24    2    1    2    0    0 -0.43688151036E+03 -0.11563307095E+03 -0.20293760682E+03  0.50222382017E+03  0.82514435642E+02 0.  0.
        254    2    1    2    0    0  0.43688151036E+03  0.11563307095E+03  0.13779022315E+04  0.17069914485E+04  0.90053805278E+03 0.  0.
         23    2    4    4    0    0  0.29396646417E+03  0.44534204716E+03  0.43683514382E+03  0.69559874293E+03  0.91032122206E+02 0.  0.
         23    2    4    4    0    0  0.14291504620E+03 -0.32970897621E+03  0.94106708766E+03  0.10113927056E+04  0.90416933975E+02 0.  0.
          2    1    3    3  502    0 -0.17593151415E+03 -0.59814776250E+02 -0.41705190086E+02  0.19044429109E+03  0.00000000000E+00 0. -1.
         -1    1    3    3    0  502 -0.26094999621E+03 -0.55818294703E+02 -0.16123241673E+03  0.31177952908E+03  0.00000000000E+00 0.  1.
         11    1    5    5    0    0  0.26501583331E+03  0.37468238805E+03  0.33443492405E+03  0.56786178093E+03  0.00000000000E+00 0.  1.
        -11    1    5    5    0    0  0.28950630853E+02  0.70659659112E+02  0.10240021977E+03  0.12773696200E+03  0.00000000000E+00 0. -1.
          2    1    6    6  503    0  0.14081868298E+03 -0.22348339634E+03  0.65770432450E+03  0.70876632848E+03  0.00000000000E+00 0. -1.
         -2    1    6    6    0  503  0.20963632119E+01 -0.10622557986E+03  0.28336276316E+03  0.30262637708E+03  0.00000000000E+00 0.  1.
<mgrwt>
<rscale>  0 0.18708528E+04</rscale>
<asrwt>0</asrwt>
<pdfrwt beam="1">  1        2 0.26032153E+00 0.18708528E+04</pdfrwt>
<pdfrwt beam="2">  1       -1 0.79557743E-01 0.18708528E+04</pdfrwt>
<totfact> 0.16720168E+01</totfact>
</mgrwt>
</event>
<event>
12    6  0.1402540E-007  0.1804595E+04  0.7818608E-02  0.8703860E-01
         -1   -1    0    0    0  501 -0.00000000000E+00  0.00000000000E+00  0.70508688309E+03  0.70508688309E+03  0.00000000000E+00 0.  1.
          2   -1    0    0  501    0  0.00000000000E+00 -0.00000000000E+00 -0.11546667477E+04  0.11546667477E+04  0.00000000000E+00 0. -1.
         24    2    1    2    0    0 -0.41252152279E+03  0.48447808121E+03  0.65049107950E+02  0.64455112228E+03  0.79509400994E+02 0.  0.
        254    2    1    2    0    0  0.41252152279E+03 -0.48447808121E+03 -0.51462897258E+03  0.12152025085E+04  0.89832128961E+03 0.  0.
         23    2    4    4    0    0  0.47109579640E+03 -0.21845912112E+02 -0.55997185921E+03  0.73753052716E+03  0.89298948105E+02 0.  0.
         23    2    4    4    0    0 -0.58574273602E+02 -0.46263216910E+03  0.45342886630E+02  0.47767198136E+03  0.93032655546E+02 0.  0.
          4    1    3    3  502    0 -0.32631152279E+03  0.39625258259E+03  0.21607940341E+02  0.51377253936E+03  0.00000000000E+00 0. -1.
         -3    1    3    3    0  502 -0.86210000006E+02  0.88225498624E+02  0.43441167609E+02  0.13077858292E+03  0.00000000000E+00 0.  1.
         11    1    5    5    0    0  0.33405331460E+03  0.24497311925E+02 -0.40410735420E+03  0.52487568910E+03  0.00000000000E+00 0.  1.
        -11    1    5    5    0    0  0.13704248179E+03 -0.46343224037E+02 -0.15586450501E+03  0.21265483807E+03  0.00000000000E+00 0. -1.
          4    1    6    6  503    0 -0.17775666225E+02 -0.37201757519E+02  0.28189054227E+02  0.49945648965E+02  0.00000000000E+00 0. -1.
         -4    1    6    6    0  503 -0.40798607377E+02 -0.42543041158E+03  0.17153832403E+02  0.42772633240E+03  0.00000000000E+00 0.  1.
<mgrwt>
<rscale>  0 0.18045946E+04</rscale>
<asrwt>0</asrwt>
<pdfrwt beam="1">  1        2 0.17764104E+00 0.18045946E+04</pdfrwt>
<pdfrwt beam="2">  1       -1 0.10847491E+00 0.18045946E+04</pdfrwt>
<totfact> 0.17124447E+01</totfact>
</mgrwt>
</event>
<event>
12    6  0.1402540E-007  0.2643013E+04  0.7818608E-02  0.8353736E-01
         -1   -1    0    0    0  501 -0.00000000000E+00  0.00000000000E+00  0.19018938671E+04  0.19018938671E+04  0.00000000000E+00 0.  1.
          2   -1    0    0  501    0  0.00000000000E+00 -0.00000000000E+00 -0.91823206022E+03  0.91823206022E+03  0.00000000000E+00 0. -1.
         24    2    1    2    0    0 -0.10738149456E+04  0.36020057817E+02  0.92328744488E+03  0.14187048647E+04  0.76732034366E+02 0.  0.
        254    2    1    2    0    0  0.10738149456E+04 -0.36020057817E+02  0.60374362020E+02  0.14014210627E+04  0.89775272168E+03 0.  0.
         23    2    4    4    0    0  0.18634653045E+03 -0.33013546033E+03  0.22246540313E+03  0.44822273246E+03  0.87740017845E+02 0.  0.
         23    2    4    4    0    0  0.88746841519E+03  0.29411540251E+03 -0.16209104111E+03  0.95319833022E+03  0.90606253458E+02 0.  0.
          2    1    3    3  502    0 -0.59026929439E+03 -0.18407417889E+02  0.50629219707E+03  0.77787432259E+03  0.00000000000E+00 0. -1.
         -1    1    3    3    0  502 -0.48354565125E+03  0.54427475706E+02  0.41699524781E+03  0.64083054207E+03  0.00000000000E+00 0.  1.
         11    1    5    5    0    0 -0.63637677854E+01 -0.41747512129E+02  0.22207777407E+02  0.47713076685E+02  0.00000000000E+00 0. -1.
        -11    1    5    5    0    0  0.19271029824E+03 -0.28838794820E+03  0.20025762572E+03  0.40050965578E+03  0.00000000000E+00 0.  1.
          1    1    6    6  503    0  0.22576749539E+03  0.64285213317E+02 -0.79644291601E+02  0.24788457759E+03  0.00000000000E+00 0. -1.
         -1    1    6    6    0  503  0.66170091980E+03  0.22983018920E+03 -0.82446749504E+02  0.70531375262E+03  0.00000000000E+00 0.  1.
<mgrwt>
<rscale>  0 0.26430134E+04</rscale>
<asrwt>0</asrwt>
<pdfrwt beam="1">  1        2 0.14126647E+00 0.26430134E+04</pdfrwt>
<pdfrwt beam="2">  1       -1 0.29259906E+00 0.26430134E+04</pdfrwt>
<totfact> 0.10564317E+00</totfact>
</mgrwt>
</event>
<event>
12    6  0.1402540E-007  0.3516528E+04  0.7818608E-02  0.8109884E-01
          2   -1    0    0  501    0  0.00000000000E+00  0.00000000000E+00  0.10077848316E+04  0.10077848316E+04  0.00000000000E+00 0. -1.
         -1   -1    0    0    0  501 -0.00000000000E+00 -0.00000000000E+00 -0.30676119388E+04  0.30676119388E+04  0.00000000000E+00 0.  1.
         24    2    1    2    0    0  0.89319379075E+03  0.13240038375E+04 -0.52060529866E+03  0.16816304415E+04  0.77908633486E+02 0.  0.
        254    2    1    2    0    0 -0.89319379075E+03 -0.13240038375E+04 -0.15392218085E+04  0.23937663289E+04  0.90007341469E+03 0.  0.
         23    2    4    4    0    0 -0.83308585450E+03 -0.56474597457E+03 -0.57941106680E+03  0.11649960054E+04  0.92349615926E+02 0.  0.
         23    2    4    4    0    0 -0.60107936241E+02 -0.75925786289E+03 -0.95981074175E+03  0.12287703234E+04  0.92489898977E+02 0.  0.
          4    1    3    3  502    0  0.45154656121E+03  0.67061641112E+03 -0.30448203347E+03  0.86390391625E+03  0.00000000000E+00 0. -1.
         -3    1    3    3    0  502  0.44164722954E+03  0.65338742635E+03 -0.21612326519E+03  0.81772652521E+03  0.00000000000E+00 0.  1.
         11    1    5    5    0    0 -0.43052921666E+03 -0.28944197961E+03 -0.35172844681E+03  0.62677345688E+03  0.00000000000E+00 0. -1.
        -11    1    5    5    0    0 -0.40255663785E+03 -0.27530399497E+03 -0.22768261998E+03  0.53822254854E+03  0.00000000000E+00 0.  1.
          3    1    6    6  503    0  0.20895619789E+02 -0.28014543023E+03 -0.37070280057E+03  0.46512219400E+03  0.00000000000E+00 0. -1.
         -3    1    6    6    0  503 -0.81003556029E+02 -0.47911243267E+03 -0.58910794118E+03  0.76364812943E+03  0.00000000000E+00 0.  1.
<mgrwt>
<rscale>  0 0.35165283E+04</rscale>
<asrwt>0</asrwt>
<pdfrwt beam="1">  1        2 0.15504382E+00 0.35165283E+04</pdfrwt>
<pdfrwt beam="2">  1       -1 0.47194030E+00 0.35165283E+04</pdfrwt>
<totfact> 0.53261148E-02</totfact>
</mgrwt>
</event>
<event>
12    6  0.1402540E-007  0.3789269E+04  0.7818608E-02  0.8048462E-01
          2   -1    0    0  501    0  0.00000000000E+00  0.00000000000E+00  0.16374715115E+04  0.16374715115E+04  0.00000000000E+00 0. -1.
         -1   -1    0    0    0  501 -0.00000000000E+00 -0.00000000000E+00 -0.21921849788E+04  0.21921849788E+04  0.00000000000E+00 0.  1.
         24    2    1    2    0    0 -0.70883461035E+02  0.89711155595E+03 -0.18219325761E+04  0.20336213923E+04  0.79649523854E+02 0.  0.
        254    2    1    2    0    0  0.70883461035E+02 -0.89711155595E+03  0.12672191088E+04  0.17960350980E+04  0.90003566307E+03 0.  0.
         23    2    4    4    0    0 -0.69179965855E+02 -0.28834570594E+03 -0.69946586427E+02  0.31788391390E+03  0.90711322083E+02 0.  0.
         23    2    4    4    0    0  0.14006342689E+03 -0.60876585001E+03  0.13371656952E+04  0.14781511841E+04  0.81885303866E+02 0.  0.
          2    1    3    3  502    0 -0.29418614883E+02  0.69572346601E+03 -0.13563446822E+04  0.15246532370E+04  0.00000000000E+00 0. -1.
         -1    1    3    3    0  502 -0.41464846152E+02  0.20138808995E+03 -0.46558789390E+03  0.50896815538E+03  0.00000000000E+00 0.  1.
         11    1    5    5    0    0 -0.58657129000E+02 -0.21446216855E+03 -0.91155161383E+02  0.24029969615E+03  0.00000000000E+00 0. -1.
        -11    1    5    5    0    0 -0.10522836855E+02 -0.73883537390E+02  0.21208574955E+02  0.77584217753E+02  0.00000000000E+00 0.  1.
          3    1    6    6  503    0  0.14049019767E+03 -0.46507449775E+03  0.10068635541E+04  0.11179472262E+04  0.00000000000E+00 0. -1.
         -3    1    6    6    0  503 -0.42677078281E+00 -0.14369135226E+03  0.33030214113E+03  0.36020395789E+03  0.00000000000E+00 0.  1.
<mgrwt>
<rscale>  0 0.37892693E+04</rscale>
<asrwt>0</asrwt>
<pdfrwt beam="1">  1        2 0.25191869E+00 0.37892693E+04</pdfrwt>
<pdfrwt beam="2">  1       -1 0.33725923E+00 0.37892693E+04</pdfrwt>
<totfact> 0.18306505E-01</totfact>
</mgrwt>
</event>
<event>
12    6  0.1402540E-007  0.1631624E+04  0.7818608E-02  0.8801352E-01
         -1   -1    0    0    0  501 -0.00000000000E+00  0.00000000000E+00  0.57229876008E+03  0.57229876008E+03  0.00000000000E+00 0.  1.
          2   -1    0    0  501    0  0.00000000000E+00 -0.00000000000E+00 -0.11629407566E+04  0.11629407566E+04  0.00000000000E+00 0. -1.
         24    2    1    2    0    0 -0.75784744366E+02 -0.55685117533E+03 -0.14700919698E+03  0.58623469643E+03  0.78948441136E+02 0.  0.
        254    2    1    2    0    0  0.75784744366E+02  0.55685117533E+03 -0.44363279956E+03  0.11490048203E+04  0.89865202233E+03 0.  0.
         23    2    4    4    0    0  0.38043242642E+03  0.61674228036E+03 -0.36023386961E+03  0.81434837628E+03  0.91076702209E+02 0.  0.
         23    2    4    4    0    0 -0.30464768206E+03 -0.59891105030E+02 -0.83398929955E+02  0.33465644400E+03  0.92964505847E+02 0.  0.
          4    1    3    3  502    0 -0.80629679934E+02 -0.33635008120E+03 -0.10724631861E+03  0.36212469574E+03  0.00000000000E+00 0. -1.
         -3    1    3    3    0  502  0.48449355675E+01 -0.22050109413E+03 -0.39762878368E+02  0.22411000069E+03  0.00000000000E+00 0.  1.
         11    1    5    5    0    0  0.21175001783E+03  0.27197261801E+03 -0.19926905548E+03  0.39813983909E+03  0.00000000000E+00 0.  1.
        -11    1    5    5    0    0  0.16868240859E+03  0.34476966235E+03 -0.16096481413E+03  0.41620853719E+03  0.00000000000E+00 0. -1.
          3    1    6    6  503    0 -0.22924615632E+03 -0.57451969560E+02 -0.21943356717E+02  0.23735214323E+03  0.00000000000E+00 0. -1.
         -3    1    6    6    0  503 -0.75401525740E+02 -0.24391354698E+01 -0.61455573238E+02  0.97304300767E+02  0.00000000000E+00 0.  1.
<mgrwt>
<rscale>  0 0.16316244E+04</rscale>
<asrwt>0</asrwt>
<pdfrwt beam="1">  1        2 0.17891396E+00 0.16316244E+04</pdfrwt>
<pdfrwt beam="2">  1       -1 0.88045963E-01 0.16316244E+04</pdfrwt>
<totfact> 0.27580125E+01</totfact>
</mgrwt>
</event>
<event>
12    6  0.1402540E-007  0.2162107E+04  0.7818608E-02  0.8534367E-01
          4   -1    0    0  501    0  0.00000000000E+00  0.00000000000E+00  0.95546418881E+03  0.95546418881E+03  0.00000000000E+00 0. -1.
         -3   -1    0    0    0  501 -0.00000000000E+00 -0.00000000000E+00 -0.12231509717E+04  0.12231509717E+04  0.00000000000E+00 0.  1.
         24    2    1    2    0    0  0.85476125936E+03  0.17716878394E+03 -0.28863734179E+03  0.92271376952E+03  0.77997415935E+02 0.  0.
        254    2    1    2    0    0 -0.85476125936E+03 -0.17716878394E+03  0.20950558899E+02  0.12559013910E+04  0.90268698311E+03 0.  0.
         23    2    4    4    0    0 -0.63936093080E+03  0.22859445314E+03  0.25635795680E+03  0.73152818712E+03  0.91521924709E+02 0.  0.
         23    2    4    4    0    0 -0.21540032856E+03 -0.40576323708E+03 -0.23540739791E+03  0.52437320386E+03  0.92246993641E+02 0.  0.
          4    1    3    3  502    0  0.59352114867E+03  0.98154327963E+02 -0.17020111127E+03  0.62519600470E+03  0.00000000000E+00 0. -1.
         -1    1    3    3    0  502  0.26124011069E+03  0.79014455974E+02 -0.11843623053E+03  0.29751776483E+03  0.00000000000E+00 0.  1.
         11    1    5    5    0    0 -0.80830817680E+01  0.23408387838E+01 -0.71230417804E+01  0.11025128629E+02  0.00000000000E+00 0. -1.
        -11    1    5    5    0    0 -0.63127784903E+03  0.22625361436E+03  0.26348099858E+03  0.72050305850E+03  0.00000000000E+00 0.  1.
          2    1    6    6  503    0 -0.22016412076E+02 -0.35893660741E+02  0.54962422026E+01  0.42465114628E+02  0.00000000000E+00 0. -1.
         -2    1    6    6    0  503 -0.19338391648E+03 -0.36986957634E+03 -0.24090364011E+03  0.48190808923E+03  0.00000000000E+00 0.  1.
<mgrwt>
<rscale>  0 0.21621073E+04</rscale>
<asrwt>0</asrwt>
<pdfrwt beam="1">  1        4 0.14699449E+00 0.21621073E+04</pdfrwt>
<pdfrwt beam="2">  1       -3 0.18817707E+00 0.21621073E+04</pdfrwt>
<totfact> 0.11488193E-01</totfact>
</mgrwt>
</event>
<event>
12    6  0.1402540E-007  0.2311783E+04  0.7818608E-02  0.8473290E-01
          2   -1    0    0  501    0  0.00000000000E+00  0.00000000000E+00  0.16130922022E+04  0.16130922022E+04  0.00000000000E+00 0. -1.
         -1   -1    0    0    0  501 -0.00000000000E+00 -0.00000000000E+00 -0.82827593670E+03  0.82827593670E+03  0.00000000000E+00 0.  1.
         24    2    1    2    0    0 -0.23574176395E+03 -0.88654758870E+03  0.69736361971E+03  0.11550955522E+04  0.79930659005E+02 0.  0.
        254    2    1    2    0    0  0.23574176395E+03  0.88654758870E+03  0.87452645784E+02  0.12862725867E+04  0.89738976806E+03 0.  0.
         23    2    4    4    0    0  0.41138050314E+03  0.95334043536E+03 -0.36614184948E+02  0.10428864982E+04  0.90441945482E+02 0.  0.
         23    2    4    4    0    0 -0.17563873919E+03 -0.66792846664E+02  0.12406683073E+03  0.24338608854E+03  0.92379427034E+02 0.  0.
          4    1    3    3  502    0  0.63699040364E+01 -0.32195731769E+02  0.23598481198E+02  0.40423126257E+02  0.00000000000E+00 0. -1.
         -3    1    3    3    0  502 -0.24211166799E+03 -0.85435185693E+03  0.67376513852E+03  0.11146724259E+04  0.00000000000E+00 0.  1.
         11    1    5    5    0    0  0.35637742137E+03  0.77652990098E+03 -0.14220739253E+01  0.85440363755E+03  0.00000000000E+00 0.  1.
        -11    1    5    5    0    0  0.55003081768E+02  0.17681053439E+03 -0.35192111023E+02  0.18848286063E+03  0.00000000000E+00 0. -1.
          3    1    6    6  503    0  0.93030586077E+01  0.26269476232E+01  0.14690724073E+02  0.17585935490E+02  0.00000000000E+00 0. -1.
         -3    1    6    6    0  503 -0.18494179779E+03 -0.69419794287E+02  0.10937610666E+03  0.22580015305E+03  0.00000000000E+00 0.  1.
<mgrwt>
<rscale>  0 0.23117833E+04</rscale>
<asrwt>0</asrwt>
<pdfrwt beam="1">  1        2 0.24816803E+00 0.23117833E+04</pdfrwt>
<pdfrwt beam="2">  1       -1 0.12742707E+00 0.23117833E+04</pdfrwt>
<totfact> 0.60327418E+00</totfact>
</mgrwt>
</event>
<event>
12    6  0.1402540E-007  0.3767331E+04  0.7818608E-02  0.8053202E-01
         -1   -1    0    0    0  501 -0.00000000000E+00  0.00000000000E+00  0.17283203074E+04  0.17283203074E+04  0.00000000000E+00 0.  1.
          2   -1    0    0  501    0  0.00000000000E+00 -0.00000000000E+00 -0.20529731305E+04  0.20529731305E+04  0.00000000000E+00 0. -1.
         24    2    1    2    0    0  0.12429647773E+04 -0.55970729489E+03 -0.12940153235E+04  0.18812487535E+04  0.79921971456E+02 0.  0.
        254    2    1    2    0    0 -0.12429647773E+04  0.55970729489E+03  0.96936250040E+03  0.19000446843E+04  0.90126158899E+03 0.  0.
         23    2    4    4    0    0  0.12411023959E+02  0.34214155403E+03  0.16843474726E+03  0.39235727637E+03  0.91428068624E+02 0.  0.
         23    2    4    4    0    0 -0.12553758012E+04  0.21756574086E+03  0.80092775314E+03  0.15076874080E+04  0.91284174153E+02 0.  0.
          2    1    3    3  502    0  0.50137510556E+03 -0.18505741367E+03 -0.52307789277E+03  0.74781931289E+03  0.00000000000E+00 0. -1.
         -1    1    3    3    0  502  0.74158967173E+03 -0.37464988122E+03 -0.77093743071E+03  0.11334294406E+04  0.00000000000E+00 0.  1.
         11    1    5    5    0    0 -0.97646409782E+01  0.15852042236E+03  0.12565923047E+03  0.20251991191E+03  0.00000000000E+00 0. -1.
        -11    1    5    5    0    0  0.22175664938E+02  0.18362113167E+03  0.42775516793E+02  0.18983736446E+03  0.00000000000E+00 0.  1.
          4    1    6    6  503    0 -0.37630237579E+03  0.31130745567E+02  0.26635129844E+03  0.46207749948E+03  0.00000000000E+00 0. -1.
         -4    1    6    6    0  503 -0.87907342545E+03  0.18643499530E+03  0.53457645470E+03  0.10456099085E+04  0.00000000000E+00 0.  1.
<mgrwt>
<rscale>  0 0.37673307E+04</rscale>
<asrwt>0</asrwt>
<pdfrwt beam="1">  1        2 0.31584202E+00 0.37673307E+04</pdfrwt>
<pdfrwt beam="2">  1       -1 0.26589543E+00 0.37673307E+04</pdfrwt>
<totfact> 0.31361092E-01</totfact>
</mgrwt>
</event>
<event>
12    6  0.1402540E-007  0.1176323E+04  0.7818608E-02  0.9133837E-01
         -3   -1    0    0    0  501 -0.00000000000E+00  0.00000000000E+00  0.53735690574E+03  0.53735690574E+03  0.00000000000E+00 0.  1.
          4   -1    0    0  501    0  0.00000000000E+00 -0.00000000000E+00 -0.64376940891E+03  0.64376940891E+03  0.00000000000E+00 0. -1.
         24    2    1    2    0    0 -0.99676674791E+02 -0.20704266658E+03 -0.49729864568E+02  0.24893748939E+03  0.81821200860E+02 0.  0.
        254    2    1    2    0    0  0.99676674791E+02  0.20704266658E+03 -0.56682638602E+02  0.93218882525E+03  0.90164348782E+03 0.  0.
         23    2    4    4    0    0 -0.37297804748E+03 -0.45559899282E+02 -0.32335828947E+02  0.38791380531E+03  0.90791994087E+02 0.  0.
         23    2    4    4    0    0  0.47265472227E+03  0.25260256587E+03 -0.24346809655E+02  0.54427501994E+03  0.91825853778E+02 0.  0.
          4    1    3    3  502    0 -0.28409568884E+02 -0.57919020828E+02 -0.53207620310E+02  0.83622768651E+02  0.00000000000E+00 0. -1.
         -3    1    3    3    0  502 -0.71267105907E+02 -0.14912364576E+03  0.34777557422E+01  0.16531472074E+03  0.00000000000E+00 0.  1.
         11    1    5    5    0    0 -0.30090323798E+03 -0.63151587739E+00 -0.35054740752E+02  0.30293892501E+03  0.00000000000E+00 0. -1.
        -11    1    5    5    0    0 -0.72074809506E+02 -0.44928383404E+02  0.27189118049E+01  0.84974880301E+02  0.00000000000E+00 0.  1.
          1    1    6    6  503    0  0.25174967113E+03  0.16894269732E+03  0.20361365645E+02  0.30386529434E+03  0.00000000000E+00 0. -1.
         -1    1    6    6    0  503  0.22090505114E+03  0.83659868542E+02 -0.44708175301E+02  0.24040972560E+03  0.00000000000E+00 0.  1.
<mgrwt>
<rscale>  0 0.11763230E+04</rscale>
<asrwt>0</asrwt>
<pdfrwt beam="1">  1        4 0.99041447E-01 0.11763230E+04</pdfrwt>
<pdfrwt beam="2">  1       -3 0.82670293E-01 0.11763230E+04</pdfrwt>
<totfact> 0.25775009E+00</totfact>
</mgrwt>
</event>
<event>
12    6  0.1402540E-007  0.2962393E+04  0.7818608E-02  0.8254552E-01
          2   -1    0    0  501    0  0.00000000000E+00  0.00000000000E+00  0.17346312959E+04  0.17346312959E+04  0.00000000000E+00 0. -1.
         -1   -1    0    0    0  501 -0.00000000000E+00 -0.00000000000E+00 -0.12647895483E+04  0.12647895483E+04  0.00000000000E+00 0.  1.
         24    2    1    2    0    0  0.31488721599E+03 -0.43603627290E+01 -0.11085325308E+04  0.11556651792E+04  0.86860019197E+02 0.  0.
        254    2    1    2    0    0 -0.31488721599E+03  0.43603627290E+01  0.15783742784E+04  0.18437556650E+04  0.89944239287E+03 0.  0.
         23    2    4    4    0    0 -0.22799570606E+03  0.42709660931E+03  0.64968759111E+03  0.81556328652E+03  0.93037372184E+02 0.  0.
         23    2    4    4    0    0 -0.86891509924E+02 -0.42273624658E+03  0.92868668728E+03  0.10281923785E+04  0.92002909825E+02 0.  0.
          2    1    3    3  502    0  0.30487390719E+02  0.27737530674E+01 -0.42842952287E+02  0.52656369601E+02  0.00000000000E+00 0. -1.
         -1    1    3    3    0  502  0.28439982527E+03 -0.71341157964E+01 -0.10656895786E+04  0.11030088096E+04  0.00000000000E+00 0.  1.
         11    1    5    5    0    0 -0.62644009599E+02  0.19192196805E+03  0.31748296228E+03  0.37623628891E+03  0.00000000000E+00 0. -1.
        -11    1    5    5    0    0 -0.16535169647E+03  0.23517464125E+03  0.33220462883E+03  0.43932699761E+03  0.00000000000E+00 0.  1.
          3    1    6    6  503    0 -0.49470242847E+02 -0.10126607689E+03  0.17756600934E+03  0.21031360139E+03  0.00000000000E+00 0. -1.
         -3    1    6    6    0  503 -0.37421267077E+02 -0.32147016969E+03  0.75112067794E+03  0.81787877711E+03  0.00000000000E+00 0.  1.
<mgrwt>
<rscale>  0 0.29623933E+04</rscale>
<asrwt>0</asrwt>
<pdfrwt beam="1">  1        2 0.26686635E+00 0.29623933E+04</pdfrwt>
<pdfrwt beam="2">  1       -1 0.19458301E+00 0.29623933E+04</pdfrwt>
<totfact> 0.15046822E+00</totfact>
</mgrwt>
</event>
<event>
12    6  0.1402540E-007  0.2261987E+04  0.7818608E-02  0.8493062E-01
          2   -1    0    0  501    0  0.00000000000E+00  0.00000000000E+00  0.12067776144E+04  0.12067776144E+04  0.00000000000E+00 0. -1.
         -1   -1    0    0    0  501 -0.00000000000E+00 -0.00000000000E+00 -0.10599689769E+04  0.10599689769E+04  0.00000000000E+00 0.  1.
         24    2    1    2    0    0 -0.90145367675E+03  0.10146097590E+03  0.34440952363E+03  0.97366655943E+03  0.80595211059E+02 0.  0.
        254    2    1    2    0    0  0.90145367675E+03 -0.10146097590E+03 -0.19760088611E+03  0.12930800318E+04  0.90005377481E+03 0.  0.
         23    2    4    4    0    0  0.10179267403E+04  0.10135284454E+03 -0.16550651213E+03  0.10404234312E+04  0.92958394174E+02 0.  0.
         23    2    4    4    0    0 -0.11647306354E+03 -0.20281382044E+03 -0.32094373979E+02  0.25265660057E+03  0.90032708944E+02 0.  0.
          2    1    3    3  502    0 -0.46466662274E+03  0.75653482612E+02  0.21365870167E+03  0.51699957497E+03  0.00000000000E+00 0. -1.
         -1    1    3    3    0  502 -0.43678705401E+03  0.25807493290E+02  0.13075082196E+03  0.45666698447E+03  0.00000000000E+00 0.  1.
         11    1    5    5    0    0  0.21491810656E+03  0.58232398667E+02 -0.24856385534E+02  0.22405054047E+03  0.00000000000E+00 0. -1.
        -11    1    5    5    0    0  0.80300863372E+03  0.43120445872E+02 -0.14065012660E+03  0.81637289078E+03  0.00000000000E+00 0.  1.
          2    1    6    6  503    0 -0.70286266920E+01 -0.52869670184E+02 -0.40283626471E+02  0.66838418445E+02  0.00000000000E+00 0. -1.
         -2    1    6    6    0  503 -0.10944443685E+03 -0.14994415026E+03  0.81892524915E+01  0.18581818213E+03  0.00000000000E+00 0.  1.
<mgrwt>
<rscale>  0 0.22619875E+04</rscale>
<asrwt>0</asrwt>
<pdfrwt beam="1">  1        2 0.18565809E+00 0.22619875E+04</pdfrwt>
<pdfrwt beam="2">  1       -1 0.16307215E+00 0.22619875E+04</pdfrwt>
<totfact> 0.53895970E+00</totfact>
</mgrwt>
</event>
<event>
12    6  0.1402540E-007  0.1683968E+04  0.7818608E-02  0.8770561E-01
         -1   -1    0    0    0  501 -0.00000000000E+00  0.00000000000E+00  0.77211843716E+03  0.77211843716E+03  0.00000000000E+00 0.  1.
          2   -1    0    0  501    0  0.00000000000E+00 -0.00000000000E+00 -0.91817140458E+03  0.91817140458E+03  0.00000000000E+00 0. -1.
         24    2    1    2    0    0 -0.16350542913E+03  0.90741219672E+02  0.51702428444E+03  0.55661188501E+03  0.86802566376E+02 0.  0.
        254    2    1    2    0    0  0.16350542913E+03 -0.90741219672E+02 -0.66307725186E+03  0.11336779567E+04  0.90032564851E+03 0.  0.
         23    2    4    4    0    0 -0.22392137216E+02 -0.20665082629E+03  0.15796724955E+03  0.27896609092E+03  0.98297793143E+02 0.  0.
         23    2    4    4    0    0  0.18589756635E+03  0.11590960662E+03 -0.82104450140E+03  0.85471186582E+03  0.91789750013E+02 0.  0.
          4    1    3    3  502    0  0.52156859613E-01 -0.63006929181E+01  0.65571020757E+00  0.63349354742E+01  0.00000000000E+00 0. -1.
         -3    1    3    3    0  502 -0.16355758599E+03  0.97041912590E+02  0.51636857423E+03  0.55027694953E+03  0.00000000000E+00 0.  1.
         11    1    5    5    0    0  0.33341553197E+02 -0.46805501065E+02  0.61310134859E+02  0.84031819782E+02  0.00000000000E+00 0.  1.
        -11    1    5    5    0    0 -0.55733690412E+02 -0.15984532522E+03  0.96657114689E+02  0.19493427113E+03  0.00000000000E+00 0. -1.
          1    1    6    6  503    0  0.13403480454E+03  0.30354295904E+02 -0.48370246357E+03  0.50284668178E+03  0.00000000000E+00 0. -1.
         -1    1    6    6    0  503  0.51862761810E+02  0.85555310712E+02 -0.33734203783E+03  0.35186518404E+03  0.00000000000E+00 0.  1.
<mgrwt>
<rscale>  0 0.16839680E+04</rscale>
<asrwt>0</asrwt>
<pdfrwt beam="1">  1        2 0.14125714E+00 0.16839680E+04</pdfrwt>
<pdfrwt beam="2">  1       -1 0.11878745E+00 0.16839680E+04</pdfrwt>
<totfact> 0.19674499E+01</totfact>
</mgrwt>
</event>
<event>
12    6  0.1402540E-007  0.1463561E+04  0.7818608E-02  0.8909053E-01
         -1   -1    0    0    0  501 -0.00000000000E+00  0.00000000000E+00  0.92104698097E+03  0.92104698097E+03  0.00000000000E+00 0.  1.
          2   -1    0    0  501    0  0.00000000000E+00 -0.00000000000E+00 -0.58140648941E+03  0.58140648941E+03  0.00000000000E+00 0. -1.
         24    2    1    2    0    0  0.66566983874E+02 -0.40528297128E+03  0.29119147410E+03  0.50981988382E+03  0.80239573725E+02 0.  0.
        254    2    1    2    0    0 -0.66566983874E+02  0.40528297128E+03  0.48449017464E+02  0.99263358657E+03  0.90237945441E+03 0.  0.
         23    2    4    4    0    0 -0.44023105064E+03  0.21931113352E+03 -0.14473197136E+03  0.52295206753E+03  0.10310562623E+03 0.  0.
         23    2    4    4    0    0  0.37366406677E+03  0.18597183777E+03  0.19318098883E+03  0.46968151904E+03  0.95244294575E+02 0.  0.
          2    1    3    3  502    0  0.78140760549E+01 -0.13186282510E+03  0.52495413738E+02  0.14214300156E+03  0.00000000000E+00 0. -1.
         -1    1    3    3    0  502  0.58752907819E+02 -0.27342014618E+03  0.23869606036E+03  0.36767688226E+03  0.00000000000E+00 0.  1.
         11    1    5    5    0    0 -0.13854825606E+03  0.82212785958E+02 -0.97284254919E+02  0.18819879832E+03  0.00000000000E+00 0. -1.
        -11    1    5    5    0    0 -0.30168279458E+03  0.13709834756E+03 -0.47447716442E+02  0.33475326921E+03  0.00000000000E+00 0.  1.
          3    1    6    6  503    0  0.19796681433E+03  0.45742876673E+02  0.97592862879E+02  0.22540549512E+03  0.00000000000E+00 0. -1.
         -3    1    6    6    0  503  0.17569725244E+03  0.14022896109E+03  0.95588125947E+02  0.24427602393E+03  0.00000000000E+00 0.  1.
<mgrwt>
<rscale>  0 0.14635610E+04</rscale>
<asrwt>0</asrwt>
<pdfrwt beam="1">  1        2 0.89447152E-01 0.14635610E+04</pdfrwt>
<pdfrwt beam="2">  1       -1 0.14169954E+00 0.14635610E+04</pdfrwt>
<totfact> 0.23166234E+01</totfact>
</mgrwt>
</event>
<event>
12    6  0.1402540E-007  0.1409180E+04  0.7818608E-02  0.8947201E-01
         -1   -1    0    0    0  501 -0.00000000000E+00  0.00000000000E+00  0.13632910837E+04  0.13632910837E+04  0.00000000000E+00 0.  1.
          2   -1    0    0  501    0  0.00000000000E+00 -0.00000000000E+00 -0.36415317091E+03  0.36415317091E+03  0.00000000000E+00 0. -1.
         24    2    1    2    0    0 -0.36099272292E+03 -0.11989924967E+03  0.49110353499E+03  0.62639904019E+03  0.80631875806E+02 0.  0.
        254    2    1    2    0    0  0.36099272292E+03  0.11989924967E+03  0.50803437778E+03  0.11010452144E+04  0.89972776942E+03 0.  0.
         23    2    4    4    0    0  0.54300666433E+03 -0.80064991909E+02  0.58290484036E+03  0.80581501666E+03  0.91066721340E+02 0.  0.
         23    2    4    4    0    0 -0.18201394141E+03  0.19996424158E+03 -0.74870462581E+02  0.29523019773E+03  0.91872252115E+02 0.  0.
          2    1    3    3  502    0 -0.26038686806E+03 -0.88351427308E+02  0.29191160965E+03  0.40102329560E+03  0.00000000000E+00 0. -1.
         -1    1    3    3    0  502 -0.10060585486E+03 -0.31547822363E+02  0.19919192534E+03  0.22537574459E+03  0.00000000000E+00 0.  1.
         11    1    5    5    0    0  0.25478729548E+03 -0.46753184056E+02  0.33988840824E+03  0.42734828444E+03  0.00000000000E+00 0. -1.
        -11    1    5    5    0    0  0.28821936885E+03 -0.33311807854E+02  0.24301643212E+03  0.37846673222E+03  0.00000000000E+00 0.  1.
          3    1    6    6  503    0  0.22094286132E+01  0.43631048378E+02 -0.16190564750E+02  0.46590603605E+02  0.00000000000E+00 0. -1.
         -3    1    6    6    0  503 -0.18422337002E+03  0.15633319320E+03 -0.58679897831E+02  0.24863959413E+03  0.00000000000E+00 0.  1.
<mgrwt>
<rscale>  0 0.14091796E+04</rscale>
<asrwt>0</asrwt>
<pdfrwt beam="1">  1        2 0.56023565E-01 0.14091796E+04</pdfrwt>
<pdfrwt beam="2">  1       -1 0.20973709E+00 0.14091796E+04</pdfrwt>
<totfact> 0.12702814E+01</totfact>
</mgrwt>
</event>
<event>
12    6  0.1402540E-007  0.3454264E+04  0.7818608E-02  0.8124715E-01
          2   -1    0    0  501    0  0.00000000000E+00  0.00000000000E+00  0.35202000711E+04  0.35202000711E+04  0.00000000000E+00 0. -1.
         -1   -1    0    0    0  501 -0.00000000000E+00 -0.00000000000E+00 -0.84739065249E+03  0.84739065249E+03  0.00000000000E+00 0.  1.
         24    2    1    2    0    0 -0.20802936809E+03 -0.13245542924E+04  0.12245425248E+03  0.13487370400E+04  0.79851534064E+02 0.  0.
        254    2    1    2    0    0  0.20802936809E+03  0.13245542924E+04  0.25503551661E+04  0.30188536836E+04  0.90080286313E+03 0.  0.
         23    2    4    4    0    0 -0.88919598722E+01  0.56210622988E+03  0.32713698553E+03  0.65679306844E+03  0.91192361686E+02 0.  0.
         23    2    4    4    0    0  0.21692132797E+03  0.76244806253E+03  0.22232181806E+04  0.23620606152E+04  0.90825991343E+02 0.  0.
          4    1    3    3  502    0 -0.22218294816E+02 -0.15329429374E+03  0.39941400814E+02  0.15996283511E+03  0.00000000000E+00 0. -1.
         -3    1    3    3    0  502 -0.18581107328E+03 -0.11712599987E+04  0.82512851669E+02  0.11887742049E+04  0.00000000000E+00 0.  1.
         11    1    5    5    0    0 -0.48202915463E+01  0.55209727773E+03  0.30173612542E+03  0.62918942193E+03  0.00000000000E+00 0.  1.
        -11    1    5    5    0    0 -0.40716683259E+01  0.10008952150E+02  0.25400860116E+02  0.27603646512E+02  0.00000000000E+00 0. -1.
          3    1    6    6  503    0  0.67185863566E+02  0.37208574364E+03  0.97919093366E+03  0.10496554794E+04  0.00000000000E+00 0. -1.
         -3    1    6    6    0  503  0.14973546440E+03  0.39036231889E+03  0.12440272469E+04  0.13124051358E+04  0.00000000000E+00 0.  1.
<mgrwt>
<rscale>  0 0.34542638E+04</rscale>
<asrwt>0</asrwt>
<pdfrwt beam="1">  1        2 0.54156923E+00 0.34542638E+04</pdfrwt>
<pdfrwt beam="2">  1       -1 0.13036779E+00 0.34542638E+04</pdfrwt>
<totfact> 0.37036243E-01</totfact>
</mgrwt>
</event>
<event>
12    6  0.1402540E-007  0.1379217E+04  0.7818608E-02  0.8969002E-01
          2   -1    0    0  501    0  0.00000000000E+00  0.00000000000E+00  0.41881674858E+04  0.41881674858E+04  0.00000000000E+00 0. -1.
         -1   -1    0    0    0  501 -0.00000000000E+00 -0.00000000000E+00 -0.11354837293E+03  0.11354837293E+03  0.00000000000E+00 0.  1.
         24    2    1    2    0    0 -0.16987175908E+03  0.35077520537E+03  0.97659305894E+03  0.10547114867E+04  0.82356895251E+02 0.  0.
        254    2    1    2    0    0  0.16987175908E+03 -0.35077520537E+03  0.30980260540E+04  0.32470043721E+04  0.89071448953E+03 0.  0.
         23    2    4    4    0    0  0.30413965125E+03 -0.49617303650E+03  0.28769581284E+04  0.29367093363E+04  0.93193582949E+02 0.  0.
         23    2    4    4    0    0 -0.13426789217E+03  0.14539783113E+03  0.22106792560E+03  0.31029503576E+03  0.90794192122E+02 0.  0.
          2    1    3    3  502    0 -0.80806788564E+02  0.12320112445E+03  0.46424874583E+03  0.48706791329E+03  0.00000000000E+00 0. -1.
         -1    1    3    3    0  502 -0.89064970518E+02  0.22757408092E+03  0.51234431311E+03  0.56764357343E+03  0.00000000000E+00 0.  1.
         11    1    5    5    0    0  0.21500168097E+03 -0.33494482691E+03  0.17415291761E+04  0.17864315355E+04  0.00000000000E+00 0. -1.
        -11    1    5    5    0    0  0.89137970284E+02 -0.16122820959E+03  0.11354289523E+04  0.11502778008E+04  0.00000000000E+00 0.  1.
          3    1    6    6  503    0 -0.14227980067E+03  0.13866698232E+03  0.22401486068E+03  0.29942399949E+03  0.00000000000E+00 0. -1.
         -3    1    6    6    0  503  0.80119084973E+01  0.67308488078E+01 -0.29469350708E+01  0.10871036278E+02  0.00000000000E+00 0.  1.
<mgrwt>
<rscale>  0 0.13792166E+04</rscale>
<asrwt>0</asrwt>
<pdfrwt beam="1">  1        2 0.64433334E+00 0.13792166E+04</pdfrwt>
<pdfrwt beam="2">  1       -1 0.17468984E-01 0.13792166E+04</pdfrwt>
<totfact> 0.70072931E+00</totfact>
</mgrwt>
</event>
<event>
12    6  0.1402540E-007  0.3923175E+04  0.7818608E-02  0.8020226E-01
          2   -1    0    0  501    0  0.00000000000E+00  0.00000000000E+00  0.19547173215E+04  0.19547173215E+04  0.00000000000E+00 0. -1.
         -1   -1    0    0    0  501 -0.00000000000E+00 -0.00000000000E+00 -0.19684821778E+04  0.19684821778E+04  0.00000000000E+00 0.  1.
         24    2    1    2    0    0 -0.10947744025E+04 -0.11916938450E+04  0.90415118176E+03  0.18550804762E+04  0.71895765293E+02 0.  0.
        254    2    1    2    0    0  0.10947744025E+04  0.11916938450E+04 -0.91791603810E+03  0.20681190231E+04  0.90326143944E+03 0.  0.
         23    2    4    4    0    0  0.66586303053E+03  0.12391549477E+04 -0.75129934350E+03  0.15975963084E+04  0.94787663330E+02 0.  0.
         23    2    4    4    0    0  0.42891137200E+03 -0.47461102713E+02 -0.16661669460E+03  0.47052271470E+03  0.86098669140E+02 0.  0.
          4    1    3    3  502    0 -0.86351463901E+03 -0.89878038480E+03  0.68218515280E+03  0.14208589988E+04  0.00000000000E+00 0. -1.
         -3    1    3    3    0  502 -0.23125976351E+03 -0.29291346022E+03  0.22196602897E+03  0.43422147738E+03  0.00000000000E+00 0.  1.
         11    1    5    5    0    0  0.38642891742E+03  0.61928186453E+03 -0.39244655202E+03  0.82876512484E+03  0.00000000000E+00 0.  1.
        -11    1    5    5    0    0  0.27943411311E+03  0.61987308321E+03 -0.35885279147E+03  0.76883118355E+03  0.00000000000E+00 0. -1.
          3    1    6    6  503    0  0.33683145854E+03 -0.10419089668E+02 -0.15385996670E+03  0.37045496116E+03  0.00000000000E+00 0. -1.
         -3    1    6    6    0  503  0.92079913457E+02 -0.37042013044E+02 -0.12756727908E+02  0.10006775355E+03  0.00000000000E+00 0.  1.
<mgrwt>
<rscale>  0 0.39231754E+04</rscale>
<asrwt>0</asrwt>
<pdfrwt beam="1">  1        2 0.30072574E+00 0.39231754E+04</pdfrwt>
<pdfrwt beam="2">  1       -1 0.30284341E+00 0.39231754E+04</pdfrwt>
<totfact> 0.20238430E-01</totfact>
</mgrwt>
</event>
<event>
12    6  0.1402540E-007  0.2725755E+04  0.7818608E-02  0.8326696E-01
         -1   -1    0    0    0  501 -0.00000000000E+00  0.00000000000E+00  0.11267227942E+04  0.11267227942E+04  0.00000000000E+00 0.  1.
          2   -1    0    0  501    0  0.00000000000E+00 -0.00000000000E+00 -0.16485294474E+04  0.16485294474E+04  0.00000000000E+00 0. -1.
         24    2    1    2    0    0  0.70875356092E+03 -0.97928725723E+03 -0.11862664118E+03  0.12174873337E+04  0.82873309506E+02 0.  0.
        254    2    1    2    0    0 -0.70875356092E+03  0.97928725723E+03 -0.40318001197E+03  0.15577649079E+04  0.89595884062E+03 0.  0.
         23    2    4    4    0    0 -0.54714190679E+03  0.13169139244E+03  0.62037893541E+02  0.57330419861E+03  0.90122776800E+02 0.  0.
         23    2    4    4    0    0 -0.16161165412E+03  0.84759586479E+03 -0.46521790551E+03  0.98446070933E+03  0.90543425210E+02 0.  0.
          4    1    3    3  502    0  0.25656174254E+03 -0.35529516093E+03 -0.83116808295E+02  0.44605715210E+03  0.00000000000E+00 0. -1.
         -3    1    3    3    0  502  0.45219181838E+03 -0.62399209630E+03 -0.35509832887E+02  0.77143018160E+03  0.00000000000E+00 0.  1.
         11    1    5    5    0    0 -0.84017968042E+02  0.43371805862E+02 -0.14513631781E+02  0.95659698960E+02  0.00000000000E+00 0.  1.
        -11    1    5    5    0    0 -0.46312393875E+03  0.88319586575E+02  0.76551525322E+02  0.47764449965E+03  0.00000000000E+00 0. -1.
          3    1    6    6  503    0 -0.14323514995E+03  0.53284943254E+03 -0.27902593894E+03  0.61830437532E+03  0.00000000000E+00 0. -1.
         -3    1    6    6    0  503 -0.18376504177E+02  0.31474643225E+03 -0.18619196658E+03  0.36615633401E+03  0.00000000000E+00 0.  1.
<mgrwt>
<rscale>  0 0.27257555E+04</rscale>
<asrwt>0</asrwt>
<pdfrwt beam="1">  1        2 0.25361991E+00 0.27257555E+04</pdfrwt>
<pdfrwt beam="2">  1       -1 0.17334197E+00 0.27257555E+04</pdfrwt>
<totfact> 0.24286322E+00</totfact>
</mgrwt>
</event>
<event>
12    6  0.1402540E-007  0.3068172E+04  0.7818608E-02  0.8224528E-01
         -1   -1    0    0    0  501 -0.00000000000E+00  0.00000000000E+00  0.15981888010E+04  0.15981888010E+04  0.00000000000E+00 0.  1.
          2   -1    0    0  501    0  0.00000000000E+00 -0.00000000000E+00 -0.14725539473E+04  0.14725539473E+04  0.00000000000E+00 0. -1.
         24    2    1    2    0    0  0.95424380682E+03 -0.89028415899E+03 -0.45227599169E+03  0.13834941773E+04  0.79469738162E+02 0.  0.
        254    2    1    2    0    0 -0.95424380682E+03  0.89028415899E+03  0.57791084533E+03  0.16872485711E+04  0.89979979372E+03 0.  0.
         23    2    4    4    0    0 -0.14244990947E+03  0.67778997803E+03  0.45723650380E+03  0.83467116901E+03  0.88991622849E+02 0.  0.
         23    2    4    4    0    0 -0.81179389735E+03  0.21249418096E+03  0.12067434153E+03  0.85257740205E+03  0.90348331834E+02 0.  0.
          4    1    3    3  502    0  0.19309267763E+03 -0.13836478604E+03 -0.80307898048E+02  0.25075676394E+03  0.00000000000E+00 0. -1.
         -3    1    3    3    0  502  0.76115112919E+03 -0.75191937295E+03 -0.37196809364E+03  0.11327374133E+04  0.00000000000E+00 0.  1.
         11    1    5    5    0    0 -0.51764443535E+02  0.27084148339E+03  0.23450282580E+03  0.36197547161E+03  0.00000000000E+00 0.  1.
        -11    1    5    5    0    0 -0.90685465936E+02  0.40694849464E+03  0.22273367800E+03  0.47269569739E+03  0.00000000000E+00 0. -1.
          2    1    6    6  503    0 -0.66028218039E+03  0.13566575763E+03  0.93013864299E+02  0.68046258860E+03  0.00000000000E+00 0. -1.
         -2    1    6    6    0  503 -0.15151171696E+03  0.76828423331E+02  0.27660477233E+02  0.17211481345E+03  0.00000000000E+00 0.  1.
<mgrwt>
<rscale>  0 0.30681716E+04</rscale>
<asrwt>0</asrwt>
<pdfrwt beam="1">  1        2 0.22654676E+00 0.30681716E+04</pdfrwt>
<pdfrwt beam="2">  1       -1 0.24587520E+00 0.30681716E+04</pdfrwt>
<totfact> 0.94605709E-01</totfact>
</mgrwt>
</event>
<event>
12    6  0.1402540E-007  0.2699525E+04  0.7818608E-02  0.8335159E-01
          2   -1    0    0  501    0  0.00000000000E+00  0.00000000000E+00  0.25507062157E+04  0.25507062157E+04  0.00000000000E+00 0. -1.
         -1   -1    0    0    0  501 -0.00000000000E+00 -0.00000000000E+00 -0.71425664909E+03  0.71425664909E+03  0.00000000000E+00 0.  1.
         24    2    1    2    0    0 -0.39154918871E+03 -0.90308473326E+03  0.16458660213E+04  0.19196685901E+04  0.85905374809E+02 0.  0.
        254    2    1    2    0    0  0.39154918871E+03  0.90308473326E+03  0.19058354532E+03  0.13452942746E+04  0.89700713205E+03 0.  0.
         23    2    4    4    0    0  0.55411239146E+03  0.65331555391E+03 -0.16033214046E+03  0.87648863731E+03  0.93081580974E+02 0.  0.
         23    2    4    4    0    0 -0.16256320275E+03  0.24976917934E+03  0.35091568577E+03  0.46880563730E+03  0.88461682135E+02 0.  0.
          4    1    3    3  502    0 -0.35615120337E+03 -0.74870384555E+03  0.13572684931E+04  0.15904649919E+04  0.00000000000E+00 0. -1.
         -3    1    3    3    0  502 -0.35397985337E+02 -0.15438088770E+03  0.28859752815E+03  0.32920359826E+03  0.00000000000E+00 0.  1.
         11    1    5    5    0    0  0.28063836352E+03  0.33203785778E+03 -0.34025445505E+02  0.43607884725E+03  0.00000000000E+00 0. -1.
        -11    1    5    5    0    0  0.27347402794E+03  0.32127769613E+03 -0.12630669495E+03  0.44040979006E+03  0.00000000000E+00 0.  1.
          2    1    6    6  503    0 -0.12533026249E+03  0.19405417608E+03  0.20754374156E+03  0.31054645806E+03  0.00000000000E+00 0. -1.
         -2    1    6    6    0  503 -0.37232940266E+02  0.55715003266E+02  0.14337194421E+03  0.15825917925E+03  0.00000000000E+00 0.  1.
<mgrwt>
<rscale>  0 0.26995251E+04</rscale>
<asrwt>0</asrwt>
<pdfrwt beam="1">  1        2 0.39241634E+00 0.26995251E+04</pdfrwt>
<pdfrwt beam="2">  1       -1 0.10988564E+00 0.26995251E+04</pdfrwt>
<totfact> 0.24814064E+00</totfact>
</mgrwt>
</event>
<event>
12    6  0.1402540E-007  0.3694616E+04  0.7818608E-02  0.8069156E-01
          2   -1    0    0  501    0  0.00000000000E+00  0.00000000000E+00  0.20325669133E+04  0.20325669133E+04  0.00000000000E+00 0. -1.
         -1   -1    0    0    0  501 -0.00000000000E+00 -0.00000000000E+00 -0.16789348628E+04  0.16789348628E+04  0.00000000000E+00 0.  1.
         24    2    1    2    0    0 -0.14622386110E+03  0.16305636080E+04 -0.41608301657E+03  0.16911003362E+04  0.81093608796E+02 0.  0.
        254    2    1    2    0    0  0.14622386110E+03 -0.16305636080E+04  0.76971506709E+03  0.20204014398E+04  0.89968972220E+03 0.  0.
         23    2    4    4    0    0 -0.31181870179E+01 -0.48708051950E+02 -0.14962878491E+03  0.18185722875E+03  0.91110268134E+02 0.  0.
         23    2    4    4    0    0  0.14934204812E+03 -0.15818555560E+04  0.91934385201E+03  0.18385442110E+04  0.10237993111E+03 0.  0.
          2    1    3    3  502    0 -0.96254020762E+01  0.43642702311E+03 -0.89766500440E+02  0.44566716220E+03  0.00000000000E+00 0. -1.
         -1    1    3    3    0  502 -0.13659845902E+03  0.11941365849E+04 -0.32631651613E+03  0.12454331740E+04  0.00000000000E+00 0.  1.
         11    1    5    5    0    0  0.20067298365E+02 -0.42624679129E+02 -0.15067045708E+03  0.15786432901E+03  0.00000000000E+00 0. -1.
        -11    1    5    5    0    0 -0.23185485383E+02 -0.60833728213E+01  0.10416721701E+01  0.23992899746E+02  0.00000000000E+00 0.  1.
          1    1    6    6  503    0  0.10356433357E+03 -0.12801500802E+04  0.78403248656E+03  0.15047314508E+04  0.00000000000E+00 0. -1.
         -1    1    6    6    0  503  0.45777714547E+02 -0.30170547579E+03  0.13531136545E+03  0.33381276023E+03  0.00000000000E+00 0.  1.
<mgrwt>
<rscale>  0 0.36946163E+04</rscale>
<asrwt>0</asrwt>
<pdfrwt beam="1">  1        2 0.31270260E+00 0.36946163E+04</pdfrwt>
<pdfrwt beam="2">  1       -1 0.25829767E+00 0.36946163E+04</pdfrwt>
<totfact> 0.36284338E-01</totfact>
</mgrwt>
</event>
<event>
12    6  0.1402540E-007  0.3286222E+04  0.7818608E-02  0.8166410E-01
          2   -1    0    0  501    0  0.00000000000E+00  0.00000000000E+00  0.20163421259E+04  0.20163421259E+04  0.00000000000E+00 0. -1.
         -1   -1    0    0    0  501 -0.00000000000E+00 -0.00000000000E+00 -0.13389659935E+04  0.13389659935E+04  0.00000000000E+00 0.  1.
         24    2    1    2    0    0  0.86057454364E+03 -0.33481953084E+03  0.15447281618E+04  0.18013545707E+04  0.77463103201E+02 0.  0.
        254    2    1    2    0    0 -0.86057454364E+03  0.33481953084E+03 -0.86735202940E+03  0.15539535487E+04  0.89987745005E+03 0.  0.
         23    2    4    4    0    0 -0.21695616067E+02  0.42532578131E+03 -0.22101465991E+03  0.48713275255E+03  0.84131555900E+02 0.  0.
         23    2    4    4    0    0 -0.83887892757E+03 -0.90506250473E+02 -0.64633736949E+03  0.10668207961E+04  0.91898744996E+02 0.  0.
          2    1    3    3  502    0  0.61614863013E+03 -0.21841979661E+03  0.11474701927E+04  0.13206188645E+04  0.00000000000E+00 0. -1.
         -1    1    3    3    0  502  0.24442591351E+03 -0.11639973423E+03  0.39725796902E+03  0.48073570626E+03  0.00000000000E+00 0.  1.
         11    1    5    5    0    0  0.21613388188E+02  0.71101864902E+02 -0.60527604129E+02  0.95844690010E+02  0.00000000000E+00 0. -1.
        -11    1    5    5    0    0 -0.43309004255E+02  0.35422391641E+03 -0.16048705579E+03  0.39128806254E+03  0.00000000000E+00 0.  1.
          2    1    6    6  503    0 -0.42026686151E+02 -0.90182949305E+01 -0.10816169108E+02  0.44323374268E+02  0.00000000000E+00 0. -1.
         -2    1    6    6    0  503 -0.79685224142E+03 -0.81487955542E+02 -0.63552120038E+03  0.10224974218E+04  0.00000000000E+00 0.  1.
<mgrwt>
<rscale>  0 0.32862219E+04</rscale>
<asrwt>0</asrwt>
<pdfrwt beam="1">  1        2 0.31020648E+00 0.32862219E+04</pdfrwt>
<pdfrwt beam="2">  1       -1 0.20599477E+00 0.32862219E+04</pdfrwt>
<totfact> 0.85181189E-01</totfact>
</mgrwt>
</event>
<event>
12    6  0.1402540E-007  0.2951979E+04  0.7818608E-02  0.8257578E-01
          2   -1    0    0  501    0  0.00000000000E+00  0.00000000000E+00  0.92854487128E+03  0.92854487128E+03  0.00000000000E+00 0. -1.
         -1   -1    0    0    0  501 -0.00000000000E+00 -0.00000000000E+00 -0.23461918311E+04  0.23461918311E+04  0.00000000000E+00 0.  1.
         24    2    1    2    0    0  0.22270894502E+03 -0.13094822671E+04 -0.47827492483E+03  0.14146397081E+04  0.90086168886E+02 0.  0.
        254    2    1    2    0    0 -0.22270894502E+03  0.13094822671E+04 -0.93937203498E+03  0.18600969943E+04  0.90177487541E+03 0.  0.
         23    2    4    4    0    0 -0.36844213308E+03  0.12204052137E+03 -0.30776886431E+03  0.50413499389E+03  0.93738593700E+02 0.  0.
         23    2    4    4    0    0  0.14573318806E+03  0.11874417458E+04 -0.63160317067E+03  0.13559620004E+04  0.91947374161E+02 0.  0.
          2    1    3    3  502    0  0.85475569093E+02 -0.72507659990E+03 -0.28884668472E+03  0.78515893672E+03  0.00000000000E+00 0. -1.
         -1    1    3    3    0  502  0.13723337592E+03 -0.58440566723E+03 -0.18942824011E+03  0.62948077136E+03  0.00000000000E+00 0.  1.
         11    1    5    5    0    0  0.47172547686E+01  0.37035667125E+01  0.26318111662E+00  0.60031794281E+01  0.00000000000E+00 0. -1.
        -11    1    5    5    0    0 -0.37315938784E+03  0.11833695465E+03 -0.30803204543E+03  0.49813181447E+03  0.00000000000E+00 0.  1.
          1    1    6    6  503    0  0.10136633297E+01  0.17501658737E+03 -0.12175972427E+03  0.21320709140E+03  0.00000000000E+00 0. -1.
         -1    1    6    6    0  503  0.14471952473E+03  0.10124251584E+04 -0.50984344640E+03  0.11427549090E+04  0.00000000000E+00 0.  1.
<mgrwt>
<rscale>  0 0.29519786E+04</rscale>
<asrwt>0</asrwt>
<pdfrwt beam="1">  1        2 0.14285306E+00 0.29519786E+04</pdfrwt>
<pdfrwt beam="2">  1       -1 0.36095259E+00 0.29519786E+04</pdfrwt>
<totfact> 0.36089932E-01</totfact>
</mgrwt>
</event>
<event>
12    6  0.1402540E-007  0.1862302E+04  0.7818608E-02  0.8673852E-01
          2   -1    0    0  501    0  0.00000000000E+00  0.00000000000E+00  0.98089421455E+03  0.98089421455E+03  0.00000000000E+00 0. -1.
         -1   -1    0    0    0  501 -0.00000000000E+00 -0.00000000000E+00 -0.88393004656E+03  0.88393004656E+03  0.00000000000E+00 0.  1.
         24    2    1    2    0    0 -0.41018442497E+02  0.34436578478E+03 -0.59134551385E+03  0.69018496174E+03  0.79971609412E+02 0.  0.
        254    2    1    2    0    0  0.41018442497E+02 -0.34436578478E+03  0.68830968184E+03  0.11746392994E+04  0.88641804988E+03 0.  0.
         23    2    4    4    0    0 -0.32366380311E+03 -0.14875850420E+03  0.65313409540E+03  0.74961119421E+03  0.91899107166E+02 0.  0.
         23    2    4    4    0    0  0.36468224561E+03 -0.19560728057E+03  0.35175586439E+02  0.42502810515E+03  0.90311792209E+02 0.  0.
          4    1    3    3  502    0 -0.14382273833E+02  0.23900795722E+03 -0.33515643463E+03  0.41189985323E+03  0.00000000000E+00 0. -1.
         -3    1    3    3    0  502 -0.26636168664E+02  0.10535782756E+03 -0.25618907922E+03  0.27828510852E+03  0.00000000000E+00 0.  1.
         11    1    5    5    0    0 -0.19327705584E+03 -0.12316841784E+03  0.34664887582E+03  0.41556217654E+03  0.00000000000E+00 0. -1.
        -11    1    5    5    0    0 -0.13038674728E+03 -0.25590086362E+02  0.30648521958E+03  0.33404901767E+03  0.00000000000E+00 0.  1.
          3    1    6    6  503    0  0.32395258744E+03 -0.15110301499E+03  0.54696027869E+02  0.36162004302E+03  0.00000000000E+00 0. -1.
         -3    1    6    6    0  503  0.40729658166E+02 -0.44504265587E+02 -0.19520441430E+02  0.63408062132E+02  0.00000000000E+00 0.  1.
<mgrwt>
<rscale>  0 0.18623017E+04</rscale>
<asrwt>0</asrwt>
<pdfrwt beam="1">  1        2 0.15090680E+00 0.18623017E+04</pdfrwt>
<pdfrwt beam="2">  1       -1 0.13598924E+00 0.18623017E+04</pdfrwt>
<totfact> 0.12557052E+01</totfact>
</mgrwt>
</event>
<event>
12    6  0.1402540E-007  0.1819572E+04  0.7818608E-02  0.8695960E-01
          2   -1    0    0  501    0  0.00000000000E+00  0.00000000000E+00  0.17115681874E+04  0.17115681874E+04  0.00000000000E+00 0. -1.
         -1   -1    0    0    0  501 -0.00000000000E+00 -0.00000000000E+00 -0.48359770983E+03  0.48359770983E+03  0.00000000000E+00 0.  1.
         24    2    1    2    0    0  0.66444239583E+02 -0.25116200509E+03  0.12287015604E+04  0.12584116945E+04  0.79970486570E+02 0.  0.
        254    2    1    2    0    0 -0.66444239583E+02  0.25116200509E+03 -0.73108280021E+00  0.93675420269E+03  0.90000595109E+03 0.  0.
         23    2    4    4    0    0  0.30974956077E+03  0.19715656151E+03 -0.26799950325E+03  0.46297024159E+03  0.87762239652E+02 0.  0.
         23    2    4    4    0    0 -0.37619380036E+03  0.54005443573E+02  0.26726842045E+03  0.47378396109E+03  0.92738718221E+02 0.  0.
          2    1    3    3  502    0  0.45597810769E+02 -0.21938094537E+03  0.11415469954E+04  0.11633300057E+04  0.00000000000E+00 0. -1.
         -1    1    3    3    0  502  0.20846428814E+02 -0.31781059713E+02  0.87154565009E+02  0.95081688840E+02  0.00000000000E+00 0.  1.
         11    1    5    5    0    0  0.60591486860E+02  0.55220182069E+01 -0.63661039625E+02  0.88059916711E+02  0.00000000000E+00 0.  1.
        -11    1    5    5    0    0  0.24915807391E+03  0.19163454331E+03 -0.20433846362E+03  0.37491032488E+03  0.00000000000E+00 0. -1.
          2    1    6    6  503    0 -0.30367281130E+03  0.83180088112E+01  0.22613266828E+03  0.37871143269E+03  0.00000000000E+00 0. -1.
         -2    1    6    6    0  503 -0.72520989061E+02  0.45687434762E+02  0.41135752174E+02  0.95072528400E+02  0.00000000000E+00 0.  1.
<mgrwt>
<rscale>  0 0.18195719E+04</rscale>
<asrwt>0</asrwt>
<pdfrwt beam="1">  1        2 0.26331818E+00 0.18195719E+04</pdfrwt>
<pdfrwt beam="2">  1       -1 0.74399649E-01 0.18195719E+04</pdfrwt>
<totfact> 0.18862364E+01</totfact>
</mgrwt>
</event>
<event>
12    6  0.1402540E-007  0.2135503E+04  0.7818608E-02  0.8545763E-01
         -1   -1    0    0    0  501 -0.00000000000E+00  0.00000000000E+00  0.20129406438E+04  0.20129406438E+04  0.00000000000E+00 0.  1.
          2   -1    0    0  501    0  0.00000000000E+00 -0.00000000000E+00 -0.56638180605E+03  0.56638180605E+03  0.00000000000E+00 0. -1.
         24    2    1    2    0    0  0.19116350181E+03  0.69486629093E+03  0.12006452949E+04  0.14025024547E+04  0.77983104504E+02 0.  0.
        254    2    1    2    0    0 -0.19116350181E+03 -0.69486629093E+03  0.24591354281E+03  0.11768199951E+04  0.89724533082E+03 0.  0.
         23    2    4    4    0    0  0.48566198823E+02 -0.12876214071E+03  0.48374949037E+03  0.51124714900E+03  0.91769893652E+02 0.  0.
         23    2    4    4    0    0 -0.23972970063E+03 -0.56610415021E+03 -0.23783594755E+03  0.66557284612E+03  0.92070827552E+02 0.  0.
          4    1    3    3  502    0  0.82665802146E+02  0.33014174269E+03  0.49345685660E+03  0.59943879957E+03  0.00000000000E+00 0. -1.
         -3    1    3    3    0  502  0.10849769967E+03  0.36472454824E+03  0.70718843833E+03  0.80306365515E+03  0.00000000000E+00 0.  1.
         11    1    5    5    0    0  0.57912097243E+02 -0.11355108777E+03  0.47413487608E+03  0.49097000037E+03  0.00000000000E+00 0. -1.
        -11    1    5    5    0    0 -0.93458984202E+01 -0.15211052942E+02  0.96146142836E+01  0.20277148633E+02  0.00000000000E+00 0.  1.
          3    1    6    6  503    0 -0.14420469143E+03 -0.43844390369E+03 -0.16350938939E+03  0.48965637965E+03  0.00000000000E+00 0. -1.
         -3    1    6    6    0  503 -0.95525009207E+02 -0.12766024652E+03 -0.74326558163E+02  0.17591646647E+03  0.00000000000E+00 0.  1.
<mgrwt>
<rscale>  0 0.21355027E+04</rscale>
<asrwt>0</asrwt>
<pdfrwt beam="1">  1        2 0.87135664E-01 0.21355027E+04</pdfrwt>
<pdfrwt beam="2">  1       -1 0.30968317E+00 0.21355027E+04</pdfrwt>
<totfact> 0.15945648E+00</totfact>
</mgrwt>
</event>
<event>
12    6  0.1402540E-007  0.2248838E+04  0.7818608E-02  0.8498371E-01
         -1   -1    0    0    0  501 -0.00000000000E+00  0.00000000000E+00  0.36976286674E+03  0.36976286674E+03  0.00000000000E+00 0.  1.
          2   -1    0    0  501    0  0.00000000000E+00 -0.00000000000E+00 -0.34192665191E+04  0.34192665191E+04  0.00000000000E+00 0. -1.
         24    2    1    2    0    0  0.83869412787E+03  0.91335166114E+02 -0.19900795089E+04  0.21630050712E+04  0.80153189207E+02 0.  0.
        254    2    1    2    0    0 -0.83869412787E+03 -0.91335166114E+02 -0.10594241434E+04  0.16260243146E+04  0.89990310770E+03 0.  0.
         23    2    4    4    0    0 -0.27581254219E+03  0.37753063971E+03 -0.55710712270E+03  0.73304377092E+03  0.91558077570E+02 0.  0.
         23    2    4    4    0    0 -0.56288158568E+03 -0.46886580582E+03 -0.50231702073E+03  0.89298054366E+03  0.91766217551E+02 0.  0.
          4    1    3    3  502    0  0.76891476171E+03  0.70021887000E+02 -0.18595194348E+04  0.20134412094E+04  0.00000000000E+00 0. -1.
         -3    1    3    3    0  502  0.69779366163E+02  0.21313279114E+02 -0.13056007412E+03  0.14956386182E+03  0.00000000000E+00 0.  1.
         11    1    5    5    0    0 -0.71173592690E+02  0.14019960461E+03 -0.13439739205E+03  0.20684358443E+03  0.00000000000E+00 0.  1.
        -11    1    5    5    0    0 -0.20463894950E+03  0.23733103510E+03 -0.42270973065E+03  0.52620018649E+03  0.00000000000E+00 0. -1.
          1    1    6    6  503    0 -0.41170657150E+03 -0.39266793855E+03 -0.38182750959E+03  0.68518804577E+03  0.00000000000E+00 0. -1.
         -1    1    6    6    0  503 -0.15117501418E+03 -0.76197867277E+02 -0.12048951114E+03  0.20779249790E+03  0.00000000000E+00 0.  1.
<mgrwt>
<rscale>  0 0.22488377E+04</rscale>
<asrwt>0</asrwt>
<pdfrwt beam="1">  1        2 0.52604098E+00 0.22488377E+04</pdfrwt>
<pdfrwt beam="2">  1       -1 0.56886597E-01 0.22488377E+04</pdfrwt>
<totfact> 0.30049366E+00</totfact>
</mgrwt>
</event>
<event>
12    6  0.1402540E-007  0.2261186E+04  0.7818608E-02  0.8493384E-01
          2   -1    0    0  501    0  0.00000000000E+00  0.00000000000E+00  0.13609132966E+04  0.13609132966E+04  0.00000000000E+00 0. -1.
         -1   -1    0    0    0  501 -0.00000000000E+00 -0.00000000000E+00 -0.93925168658E+03  0.93925168658E+03  0.00000000000E+00 0.  1.
         24    2    1    2    0    0 -0.71874346726E+03  0.61088368209E+03  0.29037714834E+03  0.99046120128E+03  0.83207320463E+02 0.  0.
        254    2    1    2    0    0  0.71874346726E+03 -0.61088368209E+03  0.13128446165E+03  0.13097037819E+04  0.89906470380E+03 0.  0.
         23    2    4    4    0    0  0.87210238471E+03 -0.63945553322E+03 -0.13893123669E+01  0.10853599206E+04  0.92402806790E+02 0.  0.
         23    2    4    4    0    0 -0.15335891745E+03  0.28571851131E+02  0.13267377402E+03  0.22434386127E+03  0.91610750120E+02 0.  0.
          4    1    3    3  502    0 -0.62672907853E+02  0.49296614662E+02  0.49664790684E+02  0.93939560514E+02  0.00000000000E+00 0. -1.
         -3    1    3    3    0  502 -0.65607055941E+03  0.56158706743E+03  0.24071235766E+03  0.89652164076E+03  0.00000000000E+00 0.  1.
         11    1    5    5    0    0  0.46374736817E+03 -0.29971979640E+03 -0.33521432815E+02  0.55318827201E+03  0.00000000000E+00 0. -1.
        -11    1    5    5    0    0  0.40835501654E+03 -0.33973573682E+03  0.32132120449E+02  0.53217164860E+03  0.00000000000E+00 0.  1.
          3    1    6    6  503    0 -0.74529231725E+02  0.38490487334E+02  0.11601847726E+03  0.14316567697E+03  0.00000000000E+00 0. -1.
         -3    1    6    6    0  503 -0.78829685722E+02 -0.99186362021E+01  0.16655296757E+02  0.81178184293E+02  0.00000000000E+00 0.  1.
<mgrwt>
<rscale>  0 0.22611856E+04</rscale>
<asrwt>0</asrwt>
<pdfrwt beam="1">  1        2 0.20937128E+00 0.22611856E+04</pdfrwt>
<pdfrwt beam="2">  1       -1 0.14450026E+00 0.22611856E+04</pdfrwt>
<totfact> 0.60903871E+00</totfact>
</mgrwt>
</event>
<event>
12    6  0.1402540E-007  0.1849073E+04  0.7818608E-02  0.8680630E-01
         -1   -1    0    0    0  501 -0.00000000000E+00  0.00000000000E+00  0.55440208676E+03  0.55440208676E+03  0.00000000000E+00 0.  1.
          2   -1    0    0  501    0  0.00000000000E+00 -0.00000000000E+00 -0.15417827205E+04  0.15417827205E+04  0.00000000000E+00 0. -1.
         24    2    1    2    0    0 -0.27829911364E+03  0.61301559859E+03 -0.60298104393E+03  0.90732592410E+03  0.80097892838E+02 0.  0.
        254    2    1    2    0    0  0.27829911364E+03 -0.61301559859E+03 -0.38439958978E+03  0.11888588831E+04  0.90132340400E+03 0.  0.
         23    2    4    4    0    0  0.45235328232E+03 -0.64135707989E+03 -0.40587469522E+02  0.79116201282E+03  0.91255640360E+02 0.  0.
         23    2    4    4    0    0 -0.17405416867E+03  0.28341481299E+02 -0.34381212026E+03  0.39769687031E+03  0.94116594823E+02 0.  0.
          4    1    3    3  502    0 -0.17912916397E+03  0.36235421313E+03 -0.41040687546E+03  0.57603961372E+03  0.00000000000E+00 0. -1.
         -3    1    3    3    0  502 -0.99169949673E+02  0.25066138547E+03 -0.19257416847E+03  0.33128631038E+03  0.00000000000E+00 0.  1.
         11    1    5    5    0    0  0.40847981241E+02 -0.28626589203E+02 -0.16995394668E+02  0.52696134781E+02  0.00000000000E+00 0.  1.
        -11    1    5    5    0    0  0.41150530108E+03 -0.61273049069E+03 -0.23592074853E+02  0.73846587804E+03  0.00000000000E+00 0. -1.
          4    1    6    6  503    0 -0.11057975512E+03 -0.38645208543E+01 -0.28376430771E+03  0.30457347076E+03  0.00000000000E+00 0. -1.
         -4    1    6    6    0  503 -0.63474413554E+02  0.32206002154E+02 -0.60047812553E+02  0.93123399547E+02  0.00000000000E+00 0.  1.
<mgrwt>
<rscale>  0 0.18490728E+04</rscale>
<asrwt>0</asrwt>
<pdfrwt beam="1">  1        2 0.23719734E+00 0.18490728E+04</pdfrwt>
<pdfrwt beam="2">  1       -1 0.85292629E-01 0.18490728E+04</pdfrwt>
<totfact> 0.17505384E+01</totfact>
</mgrwt>
</event>
<event>
12    6  0.1402540E-007  0.2385849E+04  0.7818608E-02  0.8444821E-01
         -3   -1    0    0    0  501 -0.00000000000E+00  0.00000000000E+00  0.69992887750E+03  0.69992887750E+03  0.00000000000E+00 0.  1.
          2   -1    0    0  501    0  0.00000000000E+00 -0.00000000000E+00 -0.20331617204E+04  0.20331617204E+04  0.00000000000E+00 0. -1.
         24    2    1    2    0    0  0.82476945534E+03 -0.18911946801E+03  0.83927664078E+02  0.85399908337E+03  0.79118606853E+02 0.  0.
        254    2    1    2    0    0 -0.82476945534E+03  0.18911946801E+03 -0.14171605070E+04  0.18790915145E+04  0.89812593202E+03 0.  0.
         23    2    4    4    0    0 -0.87372319095E+03 -0.12780613846E+03 -0.11420251666E+04  0.14465052382E+04  0.91811217957E+02 0.  0.
         23    2    4    4    0    0  0.48953735611E+02  0.31692560646E+03 -0.27513534039E+03  0.43258627627E+03  0.92699097199E+02 0.  0.
          4    1    3    3  502    0  0.70460963824E+03 -0.14064560219E+03  0.51031850531E+02  0.72031949681E+03  0.00000000000E+00 0. -1.
         -3    1    3    3    0  502  0.12015981710E+03 -0.48473865818E+02  0.32895813547E+02  0.13367958656E+03  0.00000000000E+00 0.  1.
         11    1    5    5    0    0 -0.70464112875E+03 -0.78185346433E+02 -0.86839693898E+03  0.11210465255E+04  0.00000000000E+00 0. -1.
        -11    1    5    5    0    0 -0.16908206220E+03 -0.49620792023E+02 -0.27362822759E+03  0.32545871273E+03  0.00000000000E+00 0.  1.
          2    1    6    6  503    0  0.50222058869E+02  0.69620086589E+02 -0.59254617840E+02  0.10430877906E+03  0.00000000000E+00 0. -1.
         -2    1    6    6    0  503 -0.12683232579E+01  0.24730551987E+03 -0.21588072255E+03  0.32827749721E+03  0.00000000000E+00 0.  1.
<mgrwt>
<rscale>  0 0.23858488E+04</rscale>
<asrwt>0</asrwt>
<pdfrwt beam="1">  1        2 0.31279411E+00 0.23858488E+04</pdfrwt>
<pdfrwt beam="2">  1       -3 0.10768136E+00 0.23858488E+04</pdfrwt>
<totfact> 0.26954219E+00</totfact>
</mgrwt>
</event>
<event>
12    6  0.1402540E-007  0.1662567E+04  0.7818608E-02  0.8783006E-01
         -1   -1    0    0    0  501 -0.00000000000E+00  0.00000000000E+00  0.63660147824E+03  0.63660147824E+03  0.00000000000E+00 0.  1.
          2   -1    0    0  501    0  0.00000000000E+00 -0.00000000000E+00 -0.10855026384E+04  0.10855026384E+04  0.00000000000E+00 0. -1.
         24    2    1    2    0    0  0.38907329829E+03 -0.18585393671E+03  0.24532265307E+03  0.50222002725E+03  0.78243430597E+02 0.  0.
        254    2    1    2    0    0 -0.38907329829E+03  0.18585393671E+03 -0.69422381321E+03  0.12198840894E+04  0.90567696861E+03 0.  0.
         23    2    4    4    0    0 -0.36346535144E+03 -0.26111245402E+03 -0.59526800421E+03  0.75025001080E+03  0.90798163671E+02 0.  0.
         23    2    4    4    0    0 -0.25607946842E+02  0.44696639073E+03 -0.98955809000E+02  0.46963407858E+03  0.10163264357E+03 0.  0.
          4    1    3    3  502    0  0.13402788798E+03 -0.58045089222E+02  0.42247245530E+02  0.15204452273E+03  0.00000000000E+00 0. -1.
         -3    1    3    3    0  502  0.25504541031E+03 -0.12780884749E+03  0.20307540754E+03  0.35017550451E+03  0.00000000000E+00 0.  1.
         11    1    5    5    0    0 -0.26053958649E+03 -0.23261104096E+03 -0.47153926383E+03  0.58680324627E+03  0.00000000000E+00 0. -1.
        -11    1    5    5    0    0 -0.10292576496E+03 -0.28501413059E+02 -0.12372874038E+03  0.16344676453E+03  0.00000000000E+00 0.  1.
          3    1    6    6  503    0 -0.66510909545E+01  0.22971588997E+03  0.82744374501E+00  0.22981364576E+03  0.00000000000E+00 0. -1.
         -3    1    6    6    0  503 -0.18956855888E+02  0.21725050077E+03 -0.99783252745E+02  0.23982043282E+03  0.00000000000E+00 0.  1.
<mgrwt>
<rscale>  0 0.16625674E+04</rscale>
<asrwt>0</asrwt>
<pdfrwt beam="1">  1        2 0.16700041E+00 0.16625674E+04</pdfrwt>
<pdfrwt beam="2">  1       -1 0.97938688E-01 0.16625674E+04</pdfrwt>
<totfact> 0.24202643E+01</totfact>
</mgrwt>
</event>
<event>
12    6  0.1402540E-007  0.2798448E+04  0.7818608E-02  0.8303750E-01
          2   -1    0    0  501    0  0.00000000000E+00  0.00000000000E+00  0.15745303797E+04  0.15745303797E+04  0.00000000000E+00 0. -1.
         -1   -1    0    0    0  501 -0.00000000000E+00 -0.00000000000E+00 -0.12434361530E+04  0.12434361530E+04  0.00000000000E+00 0.  1.
         24    2    1    2    0    0 -0.20045469244E+02  0.12481678542E+04  0.33558984482E+03  0.12951217825E+04  0.79969209585E+02 0.  0.
        254    2    1    2    0    0  0.20045469244E+02 -0.12481678542E+04 -0.44956180577E+01  0.15228447502E+04  0.87218754259E+03 0.  0.
         23    2    4    4    0    0  0.68058295247E+02  0.77325918135E+02 -0.12764469412E+03  0.18760303377E+03  0.91052189290E+02 0.  0.
         23    2    4    4    0    0 -0.48012826003E+02 -0.13254937723E+04  0.12314907606E+03  0.13352417164E+04  0.92009642612E+02 0.  0.
          2    1    3    3  502    0  0.22426497645E+02  0.34052514945E+03  0.11469116672E+03  0.36001998407E+03  0.00000000000E+00 0. -1.
         -1    1    3    3    0  502 -0.42471966889E+02  0.90764270476E+03  0.22089867810E+03  0.93510179844E+03  0.00000000000E+00 0.  1.
         11    1    5    5    0    0  0.90332564113E+02  0.54074061232E+02 -0.97152721054E+02  0.14325720731E+03  0.00000000000E+00 0. -1.
        -11    1    5    5    0    0 -0.22274268866E+02  0.23251856903E+02 -0.30491973064E+02  0.44345826459E+02  0.00000000000E+00 0.  1.
          4    1    6    6  503    0 -0.82972204253E+01 -0.56351591815E+03  0.96389728188E+02  0.57176045122E+03  0.00000000000E+00 0. -1.
         -4    1    6    6    0  503 -0.39715605577E+02 -0.76197785419E+03  0.26759347871E+02  0.76348126519E+03  0.00000000000E+00 0.  1.
<mgrwt>
<rscale>  0 0.27984481E+04</rscale>
<asrwt>0</asrwt>
<pdfrwt beam="1">  1        2 0.24223544E+00 0.27984481E+04</pdfrwt>
<pdfrwt beam="2">  1       -1 0.19129787E+00 0.27984481E+04</pdfrwt>
<totfact> 0.19760420E+00</totfact>
</mgrwt>
</event>
<event>
12    6  0.1402540E-007  0.2471530E+04  0.7818608E-02  0.8413199E-01
          2   -1    0    0  501    0  0.00000000000E+00  0.00000000000E+00  0.47308616872E+04  0.47308616872E+04  0.00000000000E+00 0. -1.
         -1   -1    0    0    0  501 -0.00000000000E+00 -0.00000000000E+00 -0.32279839829E+03  0.32279839829E+03  0.00000000000E+00 0.  1.
         24    2    1    2    0    0 -0.60657531796E+03 -0.75714737539E+03  0.28378877387E+04  0.30001976512E+04  0.79833353619E+02 0.  0.
        254    2    1    2    0    0  0.60657531796E+03  0.75714737539E+03  0.15701755503E+04  0.20534624344E+04  0.90002830300E+03 0.  0.
         23    2    4    4    0    0  0.51728684261E+03  0.93406325968E+03  0.14571850892E+04  0.18088454386E+04  0.92052082571E+02 0.  0.
         23    2    4    4    0    0  0.89288475357E+02 -0.17691588429E+03  0.11299046104E+03  0.24461699574E+03  0.88311768032E+02 0.  0.
          2    1    3    3  502    0 -0.10469137460E+03 -0.18091327448E+03  0.63845298526E+03  0.67179767131E+03  0.00000000000E+00 0. -1.
         -1    1    3    3    0  502 -0.50188394337E+03 -0.57623410091E+03  0.21994347534E+04  0.23283999798E+04  0.00000000000E+00 0.  1.
         11    1    5    5    0    0  0.36373029739E+03  0.70536470428E+03  0.10248443864E+04  0.12962041165E+04  0.00000000000E+00 0. -1.
        -11    1    5    5    0    0  0.15355654522E+03  0.22869855540E+03  0.43234070283E+03  0.51264132212E+03  0.00000000000E+00 0.  1.
          3    1    6    6  503    0  0.43922241823E+02 -0.16112521453E+03  0.73632774067E+02  0.18251652939E+03  0.00000000000E+00 0. -1.
         -3    1    6    6    0  503  0.45366233533E+02 -0.15790669755E+02  0.39357686976E+02  0.62100466346E+02  0.00000000000E+00 0.  1.
<mgrwt>
<rscale>  0 0.24715295E+04</rscale>
<asrwt>0</asrwt>
<pdfrwt beam="1">  1        2 0.72782483E+00 0.24715295E+04</pdfrwt>
<pdfrwt beam="2">  1       -1 0.49661295E-01 0.24715295E+04</pdfrwt>
<totfact> 0.29615111E-01</totfact>
</mgrwt>
</event>
<event>
12    6  0.1402540E-007  0.2500200E+04  0.7818608E-02  0.8402914E-01
         -1   -1    0    0    0  501 -0.00000000000E+00  0.00000000000E+00  0.86489356381E+03  0.86489356381E+03  0.00000000000E+00 0.  1.
          2   -1    0    0  501    0  0.00000000000E+00 -0.00000000000E+00 -0.18068692006E+04  0.18068692006E+04  0.00000000000E+00 0. -1.
         24    2    1    2    0    0  0.86428247537E+03  0.60508813817E+03 -0.13396820509E+03  0.10665293284E+04  0.80134113380E+02 0.  0.
        254    2    1    2    0    0 -0.86428247537E+03 -0.60508813817E+03 -0.80800743171E+03  0.16052334361E+04  0.90043462968E+03 0.  0.
         23    2    4    4    0    0  0.76158224362E+02  0.59799659672E+02  0.74000577930E+02  0.15168633824E+03  0.90313815340E+02 0.  0.
         23    2    4    4    0    0 -0.94044069973E+03 -0.66488779784E+03 -0.88200800964E+03  0.14535470978E+04  0.91414129297E+02 0.  0.
          4    1    3    3  502    0  0.22133306183E+02  0.52676272632E+01  0.50371082387E+01  0.23302437619E+02  0.00000000000E+00 0. -1.
         -3    1    3    3    0  502  0.84214916919E+03  0.59982051091E+03 -0.13900531333E+03  0.10432268908E+04  0.00000000000E+00 0.  1.
         11    1    5    5    0    0  0.25078837135E+02  0.72043211253E+02  0.26175557901E+02  0.80649440117E+02  0.00000000000E+00 0. -1.
        -11    1    5    5    0    0  0.51079387227E+02 -0.12243551581E+02  0.47825020029E+02  0.71036898128E+02  0.00000000000E+00 0.  1.
          3    1    6    6  503    0 -0.39078429357E+03 -0.32222299008E+03 -0.35506146164E+03  0.61855368480E+03  0.00000000000E+00 0. -1.
         -3    1    6    6    0  503 -0.54965640616E+03 -0.34266480777E+03 -0.52694654801E+03  0.83499341301E+03  0.00000000000E+00 0.  1.
<mgrwt>
<rscale>  0 0.25001996E+04</rscale>
<asrwt>0</asrwt>
<pdfrwt beam="1">  1        2 0.27797988E+00 0.25001996E+04</pdfrwt>
<pdfrwt beam="2">  1       -1 0.13306055E+00 0.25001996E+04</pdfrwt>
<totfact> 0.41507993E+00</totfact>
</mgrwt>
</event>
<event>
12    6  0.1402540E-007  0.1526017E+04  0.7818608E-02  0.8867334E-01
          2   -1    0    0  501    0  0.00000000000E+00  0.00000000000E+00  0.90328309345E+03  0.90328309345E+03  0.00000000000E+00 0. -1.
         -1   -1    0    0    0  501 -0.00000000000E+00 -0.00000000000E+00 -0.64451789361E+03  0.64451789361E+03  0.00000000000E+00 0.  1.
         24    2    1    2    0    0 -0.38371469775E+03  0.10395151360E+03 -0.21122001293E+03  0.45705932335E+03  0.79034452920E+02 0.  0.
        254    2    1    2    0    0  0.38371469775E+03 -0.10395151360E+03  0.46998521278E+03  0.10907416637E+04  0.90043788809E+03 0.  0.
         23    2    4    4    0    0  0.61823779886E+03 -0.27028568466E+03  0.35408369408E+03  0.76743435219E+03  0.91147656251E+02 0.  0.
         23    2    4    4    0    0 -0.23452310111E+03  0.16633417107E+03  0.11590151870E+03  0.32330731153E+03  0.91794957557E+02 0.  0.
          4    1    3    3  502    0 -0.44377371975E+02  0.33201914701E+02 -0.10198089328E+02  0.56353520823E+02  0.00000000000E+00 0. -1.
         -3    1    3    3    0  502 -0.33933732577E+03  0.70749598895E+02 -0.20102192360E+03  0.40070580252E+03  0.00000000000E+00 0.  1.
         11    1    5    5    0    0  0.55227578883E+03 -0.26498514080E+03  0.30054723045E+03  0.68231540325E+03  0.00000000000E+00 0.  1.
        -11    1    5    5    0    0  0.65962010024E+02 -0.53005438638E+01  0.53536463624E+02  0.85118948943E+02  0.00000000000E+00 0. -1.
          2    1    6    6  503    0 -0.16528448893E+03  0.12392333865E+03  0.36576492479E+02  0.20979465185E+03  0.00000000000E+00 0. -1.
         -2    1    6    6    0  503 -0.69238612183E+02  0.42410832422E+02  0.79325026220E+02  0.11351265968E+03  0.00000000000E+00 0.  1.
<mgrwt>
<rscale>  0 0.15260172E+04</rscale>
<asrwt>0</asrwt>
<pdfrwt beam="1">  1        2 0.13896663E+00 0.15260172E+04</pdfrwt>
<pdfrwt beam="2">  1       -1 0.99156598E-01 0.15260172E+04</pdfrwt>
<totfact> 0.31207643E+01</totfact>
</mgrwt>
</event>
<event>
12    6  0.1402540E-007  0.1682998E+04  0.7818608E-02  0.8771121E-01
         -1   -1    0    0    0  501 -0.00000000000E+00  0.00000000000E+00  0.25638328958E+03  0.25638328958E+03  0.00000000000E+00 0.  1.
          2   -1    0    0  501    0  0.00000000000E+00 -0.00000000000E+00 -0.27619605852E+04  0.27619605852E+04  0.00000000000E+00 0. -1.
         24    2    1    2    0    0  0.44378074691E+03  0.39051399174E+03 -0.73866349240E+03  0.94977662484E+03  0.83721878919E+02 0.  0.
        254    2    1    2    0    0 -0.44378074691E+03 -0.39051399174E+03 -0.17669138032E+04  0.20685672500E+04  0.89863426958E+03 0.  0.
         23    2    4    4    0    0 -0.59605514300E+03 -0.51542301185E+03 -0.16303734611E+04  0.18131098947E+04  0.91144134006E+02 0.  0.
         23    2    4    4    0    0  0.15227439609E+03  0.12490902011E+03 -0.13654034216E+03  0.25545735523E+03  0.88461518704E+02 0.  0.
          4    1    3    3  502    0  0.92258170289E+02  0.55299436079E+02 -0.17792713221E+03  0.20791263067E+03  0.00000000000E+00 0. -1.
         -3    1    3    3    0  502  0.35152257662E+03  0.33521455566E+03 -0.56073636018E+03  0.74186399416E+03  0.00000000000E+00 0.  1.
         11    1    5    5    0    0 -0.71310478986E+02 -0.39108215274E+02 -0.12303699532E+03  0.14748809827E+03  0.00000000000E+00 0. -1.
        -11    1    5    5    0    0 -0.52474466402E+03 -0.47631479658E+03 -0.15073364657E+04  0.16656217965E+04  0.00000000000E+00 0.  1.
          4    1    6    6  503    0  0.12398727423E+01  0.28528678222E+02 -0.47409487642E+02  0.55345119785E+02  0.00000000000E+00 0. -1.
         -4    1    6    6    0  503  0.15103452335E+03  0.96380341886E+02 -0.89130854522E+02  0.20011223544E+03  0.00000000000E+00 0.  1.
<mgrwt>
<rscale>  0 0.16829980E+04</rscale>
<asrwt>0</asrwt>
<pdfrwt beam="1">  1        2 0.42491703E+00 0.16829980E+04</pdfrwt>
<pdfrwt beam="2">  1       -1 0.39443581E-01 0.16829980E+04</pdfrwt>
<totfact> 0.16582865E+01</totfact>
</mgrwt>
</event>
<event>
12    6  0.1402540E-007  0.1018014E+04  0.7818608E-02  0.9289005E-01
         -1   -1    0    0    0  501 -0.00000000000E+00  0.00000000000E+00  0.12892360480E+03  0.12892360480E+03  0.00000000000E+00 0.  1.
          2   -1    0    0  501    0  0.00000000000E+00 -0.00000000000E+00 -0.20096237185E+04  0.20096237185E+04  0.00000000000E+00 0. -1.
         24    2    1    2    0    0 -0.33064226310E+02  0.36318163887E+02 -0.35400790376E+03  0.36584136327E+03  0.78141250729E+02 0.  0.
        254    2    1    2    0    0  0.33064226310E+02 -0.36318163887E+02 -0.15266922099E+04  0.17727059600E+04  0.89960272607E+03 0.  0.
         23    2    4    4    0    0  0.24442531009E+03 -0.38141527625E+03 -0.59812821573E+03  0.75563582695E+03  0.89480698260E+02 0.  0.
         23    2    4    4    0    0 -0.21136108378E+03  0.34509711236E+03 -0.92856399420E+03  0.10170701331E+04  0.91842471451E+02 0.  0.
          2    1    3    3  502    0 -0.46033695322E+02  0.50822356338E+02 -0.31338369562E+03  0.32079799514E+03  0.00000000000E+00 0. -1.
         -1    1    3    3    0  502  0.12969469012E+02 -0.14504192451E+02 -0.40624208148E+02  0.45043368133E+02  0.00000000000E+00 0.  1.
         11    1    5    5    0    0  0.19071930555E+03 -0.26012081992E+03 -0.36242749111E+03  0.48517046569E+03  0.00000000000E+00 0.  1.
        -11    1    5    5    0    0  0.53706004538E+02 -0.12129445633E+03 -0.23570072461E+03  0.27046536126E+03  0.00000000000E+00 0. -1.
          1    1    6    6  503    0 -0.59401867246E+02  0.11037668255E+03 -0.19278582262E+03  0.22995209781E+03  0.00000000000E+00 0. -1.
         -1    1    6    6    0  503 -0.15195921653E+03  0.23472042981E+03 -0.73577817158E+03  0.78711803526E+03  0.00000000000E+00 0.  1.
<mgrwt>
<rscale>  0 0.10180136E+04</rscale>
<asrwt>0</asrwt>
<pdfrwt beam="1">  1        2 0.30917289E+00 0.10180136E+04</pdfrwt>
<pdfrwt beam="2">  1       -1 0.19834400E-01 0.10180136E+04</pdfrwt>
<totfact> 0.15607473E+02</totfact>
</mgrwt>
</event>
<event>
12    6  0.1402540E-007  0.2452483E+04  0.7818608E-02  0.8420112E-01
         -1   -1    0    0    0  501 -0.00000000000E+00  0.00000000000E+00  0.42197195860E+03  0.42197195860E+03  0.00000000000E+00 0.  1.
          2   -1    0    0  501    0  0.00000000000E+00 -0.00000000000E+00 -0.35634303099E+04  0.35634303099E+04  0.00000000000E+00 0. -1.
         24    2    1    2    0    0 -0.63750455630E+03 -0.82526768303E+03 -0.16622583227E+04  0.19638916405E+04  0.79302183055E+02 0.  0.
        254    2    1    2    0    0  0.63750455630E+03  0.82526768303E+03 -0.14792000286E+04  0.20215106280E+04  0.90055187888E+03 0.  0.
         23    2    4    4    0    0  0.40352906467E+03 -0.33000288114E+02 -0.20070763173E+03  0.46129898178E+03  0.92674009882E+02 0.  0.
         23    2    4    4    0    0  0.23397549162E+03  0.85826797114E+03 -0.12784923968E+04  0.15602116462E+04  0.91373580328E+02 0.  0.
          4    1    3    3  502    0 -0.30897221497E+03 -0.46157436304E+03 -0.90587139799E+03  0.10625995068E+04  0.00000000000E+00 0. -1.
         -3    1    3    3    0  502 -0.32853234133E+03 -0.36369331999E+03 -0.75638692476E+03  0.90129213369E+03  0.00000000000E+00 0.  1.
         11    1    5    5    0    0  0.73799545014E+01  0.14578532403E+02 -0.72494860115E+01  0.17876028163E+02  0.00000000000E+00 0. -1.
        -11    1    5    5    0    0  0.39614911017E+03 -0.47578820517E+02 -0.19345814572E+03  0.44342295362E+03  0.00000000000E+00 0.  1.
          4    1    6    6  503    0  0.62161025787E+02  0.21647457250E+03 -0.25771738461E+03  0.34226230291E+03  0.00000000000E+00 0. -1.
         -4    1    6    6    0  503  0.17181446583E+03  0.64179339865E+03 -0.10207750122E+04  0.12179493433E+04  0.00000000000E+00 0.  1.
<mgrwt>
<rscale>  0 0.24524826E+04</rscale>
<asrwt>0</asrwt>
<pdfrwt beam="1">  1        2 0.54822007E+00 0.24524826E+04</pdfrwt>
<pdfrwt beam="2">  1       -1 0.64918760E-01 0.24524826E+04</pdfrwt>
<totfact> 0.17997762E+00</totfact>
</mgrwt>
</event>
<event>
12    6  0.1402540E-007  0.2451404E+04  0.7818608E-02  0.8420506E-01
         -1   -1    0    0    0  501 -0.00000000000E+00  0.00000000000E+00  0.14893939486E+04  0.14893939486E+04  0.00000000000E+00 0.  1.
          2   -1    0    0  501    0  0.00000000000E+00 -0.00000000000E+00 -0.10086958414E+04  0.10086958414E+04  0.00000000000E+00 0. -1.
         24    2    1    2    0    0  0.10439146186E+04  0.14958815623E+03  0.96473276466E+02  0.10621134703E+04  0.81508180017E+02 0.  0.
        254    2    1    2    0    0 -0.10439146186E+04 -0.14958815623E+03  0.38422483074E+03  0.14359763197E+04  0.89569242646E+03 0.  0.
         23    2    4    4    0    0 -0.38587868841E+03  0.19141766599E+03 -0.20395793496E+03  0.48533290709E+03  0.91684821251E+02 0.  0.
         23    2    4    4    0    0 -0.65803593019E+03 -0.34100582222E+03  0.58818276570E+03  0.95064341262E+03  0.92019975477E+02 0.  0.
          4    1    3    3  502    0  0.42796761241E+03  0.53585816178E+02  0.79002781626E+02  0.43848506984E+03  0.00000000000E+00 0. -1.
         -3    1    3    3    0  502  0.61594700619E+03  0.96002340052E+02  0.17470494840E+02  0.62362840050E+03  0.00000000000E+00 0.  1.
         11    1    5    5    0    0 -0.22380880900E+03  0.99747076355E+02 -0.16413157090E+03  0.29492208258E+03  0.00000000000E+00 0. -1.
        -11    1    5    5    0    0 -0.16206987941E+03  0.91670589639E+02 -0.39826364064E+02  0.19041082451E+03  0.00000000000E+00 0.  1.
          3    1    6    6  503    0 -0.47584460766E+03 -0.20271289782E+03  0.42883030659E+03  0.67187501920E+03  0.00000000000E+00 0. -1.
         -3    1    6    6    0  503 -0.18219132253E+03 -0.13829292440E+03  0.15935245911E+03  0.27876839342E+03  0.00000000000E+00 0.  1.
<mgrwt>
<rscale>  0 0.24514041E+04</rscale>
<asrwt>0</asrwt>
<pdfrwt beam="1">  1        2 0.15518398E+00 0.24514041E+04</pdfrwt>
<pdfrwt beam="2">  1       -1 0.22913753E+00 0.24514041E+04</pdfrwt>
<totfact> 0.24280621E+00</totfact>
</mgrwt>
</event>
<event>
12    6  0.1402540E-007  0.2054580E+04  0.7818608E-02  0.8581519E-01
         -3   -1    0    0    0  501 -0.00000000000E+00  0.00000000000E+00  0.79399132729E+03  0.79399132729E+03  0.00000000000E+00 0.  1.
          4   -1    0    0  501    0  0.00000000000E+00 -0.00000000000E+00 -0.13291388338E+04  0.13291388338E+04  0.00000000000E+00 0. -1.
         24    2    1    2    0    0 -0.73812893604E+03 -0.19153593844E+03 -0.54694947999E+03  0.94187643968E+03  0.80356406298E+02 0.  0.
        254    2    1    2    0    0  0.73812893604E+03  0.19153593844E+03  0.11801973459E+02  0.11812537214E+04  0.90205361587E+03 0.  0.
         23    2    4    4    0    0  0.59574611841E+03  0.40917277618E+03  0.29673245561E+03  0.78622620161E+03  0.88123161096E+02 0.  0.
         23    2    4    4    0    0  0.14238281763E+03 -0.21763683774E+03 -0.28493048215E+03  0.39502751982E+03  0.84986480454E+02 0.  0.
          2    1    3    3  502    0 -0.73601182972E+03 -0.18494793643E+03 -0.53665244732E+03  0.92947028026E+03  0.00000000000E+00 0. -1.
         -1    1    3    3    0  502 -0.21171063174E+01 -0.65880020140E+01 -0.10297032670E+02  0.12406159418E+02  0.00000000000E+00 0.  1.
         11    1    5    5    0    0  0.50565280732E+03  0.30571020074E+03  0.24209285050E+03  0.63855495977E+03  0.00000000000E+00 0.  1.
        -11    1    5    5    0    0  0.90093311095E+02  0.10346257544E+03  0.54639605108E+02  0.14767124184E+03  0.00000000000E+00 0. -1.
          2    1    6    6  503    0  0.59473155791E+02 -0.32770891483E+02 -0.47326439616E+02  0.82769435633E+02  0.00000000000E+00 0. -1.
         -2    1    6    6    0  503  0.82909661835E+02 -0.18486594626E+03 -0.23760404253E+03  0.31225808419E+03  0.00000000000E+00 0.  1.
<mgrwt>
<rscale>  0 0.20545800E+04</rscale>
<asrwt>0</asrwt>
<pdfrwt beam="1">  1        4 0.20448289E+00 0.20545800E+04</pdfrwt>
<pdfrwt beam="2">  1       -3 0.12215251E+00 0.20545800E+04</pdfrwt>
<totfact> 0.14046552E-01</totfact>
</mgrwt>
</event>
<event>
12    6  0.1402540E-007  0.1507965E+04  0.7818608E-02  0.8879174E-01
          2   -1    0    0  501    0  0.00000000000E+00  0.00000000000E+00  0.67303055980E+03  0.67303055980E+03  0.00000000000E+00 0. -1.
         -1   -1    0    0    0  501 -0.00000000000E+00 -0.00000000000E+00 -0.84467100697E+03  0.84467100697E+03  0.00000000000E+00 0.  1.
         24    2    1    2    0    0 -0.17991786677E+03 -0.41351550047E+03 -0.22617172096E+03  0.51076433112E+03  0.79756170102E+02 0.  0.
        254    2    1    2    0    0  0.17991786677E+03  0.41351550047E+03  0.54531273797E+02  0.10069372357E+04  0.89865645761E+03 0.  0.
         23    2    4    4    0    0 -0.13351839821E+03  0.45129402095E+03  0.32693354898E+03  0.58017112263E+03  0.90661624061E+02 0.  0.
         23    2    4    4    0    0  0.31343626498E+03 -0.37778520479E+02 -0.27240227519E+03  0.42676611302E+03  0.90866973540E+02 0.  0.
          2    1    3    3  502    0 -0.38957370037E+02 -0.12600823833E+03 -0.30050869492E+02  0.13527308515E+03  0.00000000000E+00 0. -1.
         -1    1    3    3    0  502 -0.14096049673E+03 -0.28750726214E+03 -0.19612085147E+03  0.37549124597E+03  0.00000000000E+00 0.  1.
         11    1    5    5    0    0 -0.72213090973E+02  0.37198504393E+03  0.26362631315E+03  0.46161286421E+03  0.00000000000E+00 0. -1.
        -11    1    5    5    0    0 -0.61305307241E+02  0.79308977019E+02  0.63307235831E+02  0.11855825842E+03  0.00000000000E+00 0.  1.
          2    1    6    6  503    0  0.18421593963E+02 -0.25224447932E+02 -0.41402592979E+02  0.51863306904E+02  0.00000000000E+00 0. -1.
         -2    1    6    6    0  503  0.29501467102E+03 -0.12554072546E+02 -0.23099968221E+03  0.37490280611E+03  0.00000000000E+00 0.  1.
<mgrwt>
<rscale>  0 0.15079647E+04</rscale>
<asrwt>0</asrwt>
<pdfrwt beam="1">  1        2 0.10354316E+00 0.15079647E+04</pdfrwt>
<pdfrwt beam="2">  1       -1 0.12994939E+00 0.15079647E+04</pdfrwt>
<totfact> 0.24113000E+01</totfact>
</mgrwt>
</event>
<event>
12    6  0.1402540E-007  0.1655903E+04  0.7818608E-02  0.8786922E-01
          2   -1    0    0  501    0  0.00000000000E+00  0.00000000000E+00  0.22712278544E+04  0.22712278544E+04  0.00000000000E+00 0. -1.
         -1   -1    0    0    0  501 -0.00000000000E+00 -0.00000000000E+00 -0.30182072425E+03  0.30182072425E+03  0.00000000000E+00 0.  1.
         24    2    1    2    0    0  0.50997374772E+03 -0.19400001783E+03  0.10234710945E+04  0.11627145302E+04  0.81870428776E+02 0.  0.
        254    2    1    2    0    0 -0.50997374772E+03  0.19400001783E+03  0.94593603569E+03  0.14103340485E+04  0.89248972795E+03 0.  0.
         23    2    4    4    0    0  0.38581876362E+02 -0.29074611518E+03  0.28583164925E+03  0.41983195782E+03  0.92397383186E+02 0.  0.
         23    2    4    4    0    0 -0.54855562408E+03  0.48474613302E+03  0.66010438644E+03  0.99050209069E+03  0.97285684846E+02 0.  0.
          4    1    3    3  502    0  0.12620005351E+03 -0.72768606479E+02  0.33373359061E+03  0.36414259995E+03  0.00000000000E+00 0. -1.
         -3    1    3    3    0  502  0.38377369421E+03 -0.12123141135E+03  0.68973750387E+03  0.79857193021E+03  0.00000000000E+00 0.  1.
         11    1    5    5    0    0  0.62438126621E+02 -0.21569751525E+03  0.17930094422E+03  0.28735477435E+03  0.00000000000E+00 0.  1.
        -11    1    5    5    0    0 -0.23856250258E+02 -0.75048599930E+02  0.10653070502E+03  0.13247718347E+03  0.00000000000E+00 0. -1.
          1    1    6    6  503    0 -0.40297287416E+03  0.40850238016E+03  0.50065353262E+03  0.76152169478E+03  0.00000000000E+00 0. -1.
         -1    1    6    6    0  503 -0.14558274992E+03  0.76243752862E+02  0.15945085382E+03  0.22898039591E+03  0.00000000000E+00 0.  1.
<mgrwt>
<rscale>  0 0.16559029E+04</rscale>
<asrwt>0</asrwt>
<pdfrwt beam="1">  1        2 0.34941966E+00 0.16559029E+04</pdfrwt>
<pdfrwt beam="2">  1       -1 0.46433959E-01 0.16559029E+04</pdfrwt>
<totfact> 0.23655443E+01</totfact>
</mgrwt>
</event>
<event>
12    6  0.1402540E-007  0.2597498E+04  0.7818608E-02  0.8369051E-01
          2   -1    0    0  501    0  0.00000000000E+00  0.00000000000E+00  0.16776093197E+04  0.16776093197E+04  0.00000000000E+00 0. -1.
         -1   -1    0    0    0  501 -0.00000000000E+00 -0.00000000000E+00 -0.10054482647E+04  0.10054482647E+04  0.00000000000E+00 0.  1.
         24    2    1    2    0    0  0.11337508684E+04  0.78382911983E+02  0.19059017914E+03  0.11549421256E+04  0.77664564345E+02 0.  0.
        254    2    1    2    0    0 -0.11337508684E+04 -0.78382911983E+02  0.48157087585E+03  0.15281154587E+04  0.90093919566E+03 0.  0.
         23    2    4    4    0    0 -0.61447689653E+03  0.92481415750E+02  0.69268377545E+03  0.93499754249E+03  0.90966604079E+02 0.  0.
         23    2    4    4    0    0 -0.51927397188E+03 -0.17086432773E+03 -0.21111289960E+03  0.59311791626E+03  0.91543049159E+02 0.  0.
          4    1    3    3  502    0  0.24469187528E+03  0.25872785636E+02  0.72659490212E+02  0.25655977156E+03  0.00000000000E+00 0. -1.
         -3    1    3    3    0  502  0.88905899313E+03  0.52510126347E+02  0.11793068893E+03  0.89838235403E+03  0.00000000000E+00 0.  1.
         11    1    5    5    0    0 -0.40721841686E+03  0.10444202499E+03  0.46706502497E+03  0.62839853052E+03  0.00000000000E+00 0. -1.
        -11    1    5    5    0    0 -0.20725847967E+03 -0.11960609244E+02  0.22561875048E+03  0.30659901197E+03  0.00000000000E+00 0.  1.
          2    1    6    6  503    0 -0.22294848447E+03 -0.12049650937E+03 -0.87334943273E+02  0.26805377784E+03  0.00000000000E+00 0. -1.
         -2    1    6    6    0  503 -0.29632548742E+03 -0.50367818365E+02 -0.12377795632E+03  0.32506413843E+03  0.00000000000E+00 0.  1.
<mgrwt>
<rscale>  0 0.25974983E+04</rscale>
<asrwt>0</asrwt>
<pdfrwt beam="1">  1        2 0.25809374E+00 0.25974983E+04</pdfrwt>
<pdfrwt beam="2">  1       -1 0.15468435E+00 0.25974983E+04</pdfrwt>
<totfact> 0.32625357E+00</totfact>
</mgrwt>
</event>
<event>
12    6  0.1402540E-007  0.4319664E+04  0.7818608E-02  0.7942992E-01
         -1   -1    0    0    0  501 -0.00000000000E+00  0.00000000000E+00  0.12770951619E+04  0.12770951619E+04  0.00000000000E+00 0.  1.
          2   -1    0    0  501    0  0.00000000000E+00 -0.00000000000E+00 -0.36527217144E+04  0.36527217144E+04  0.00000000000E+00 0. -1.
         24    2    1    2    0    0  0.96862222888E+03  0.33797028168E+03 -0.31827910108E+04  0.33450641343E+04  0.82719471533E+02 0.  0.
        254    2    1    2    0    0 -0.96862222888E+03 -0.33797028168E+03  0.80716445823E+03  0.15847527420E+04  0.89859549138E+03 0.  0.
         23    2    4    4    0    0  0.47778928731E+02  0.14749726816E+03 -0.24261868710E+02  0.18168378101E+03  0.91553743026E+02 0.  0.
         23    2    4    4    0    0 -0.10164011576E+04 -0.48546754984E+03  0.83142632694E+03  0.14030689610E+04  0.92642954835E+02 0.  0.
          2    1    3    3  502    0  0.63640384721E+03  0.26323550519E+03 -0.21339477047E+04  0.22423281638E+04  0.00000000000E+00 0. -1.
         -1    1    3    3    0  502  0.33221838168E+03  0.74734776489E+02 -0.10488433061E+04  0.11027359705E+04  0.00000000000E+00 0.  1.
         11    1    5    5    0    0  0.46757869392E+02  0.15980297565E+03 -0.27869817681E+02  0.16881947789E+03  0.00000000000E+00 0. -1.
        -11    1    5    5    0    0  0.10210593388E+01 -0.12305707489E+02  0.36079489705E+01  0.12864303119E+02  0.00000000000E+00 0.  1.
          1    1    6    6  503    0 -0.65618628062E+03 -0.31000613996E+03  0.58981882757E+03  0.93518473632E+03  0.00000000000E+00 0. -1.
         -1    1    6    6    0  503 -0.36021487700E+03 -0.17546140988E+03  0.24160749937E+03  0.46788422469E+03  0.00000000000E+00 0.  1.
<mgrwt>
<rscale>  0 0.43196635E+04</rscale>
<asrwt>0</asrwt>
<pdfrwt beam="1">  1        2 0.56195718E+00 0.43196635E+04</pdfrwt>
<pdfrwt beam="2">  1       -1 0.19647618E+00 0.43196635E+04</pdfrwt>
<totfact> 0.87607988E-02</totfact>
</mgrwt>
</event>
<event>
12    6  0.1402540E-007  0.4664855E+04  0.7818608E-02  0.7882394E-01
          2   -1    0    0  501    0  0.00000000000E+00  0.00000000000E+00  0.32806945858E+04  0.32806945858E+04  0.00000000000E+00 0. -1.
         -1   -1    0    0    0  501 -0.00000000000E+00 -0.00000000000E+00 -0.16582521598E+04  0.16582521598E+04  0.00000000000E+00 0.  1.
         24    2    1    2    0    0 -0.15406220154E+04 -0.16192535398E+04  0.99664264168E+03  0.24484874220E+04  0.79346580189E+02 0.  0.
        254    2    1    2    0    0  0.15406220154E+04  0.16192535398E+04  0.62579978438E+03  0.24904593237E+04  0.90291973743E+03 0.  0.
         23    2    4    4    0    0  0.15151083846E+03  0.41271675585E+02 -0.16192735149E+03  0.24339571298E+03  0.91444631114E+02 0.  0.
         23    2    4    4    0    0  0.13891111769E+04  0.15779818642E+04  0.78772713587E+03  0.22470636107E+04  0.95520700473E+02 0.  0.
          4    1    3    3  502    0 -0.52127127685E+03 -0.59666935462E+03  0.37240798698E+03  0.87545746417E+03  0.00000000000E+00 0. -1.
         -3    1    3    3    0  502 -0.10193507385E+04 -0.10225841852E+04  0.62423465470E+03  0.15730299578E+04  0.00000000000E+00 0.  1.
         11    1    5    5    0    0  0.15819159705E+03  0.49213581149E+02 -0.13233296048E+03  0.21203436131E+03  0.00000000000E+00 0.  1.
        -11    1    5    5    0    0 -0.66807585891E+01 -0.79419055642E+01 -0.29594391009E+02  0.31361351669E+02  0.00000000000E+00 0. -1.
          2    1    6    6  503    0  0.48630474371E+03  0.48520330683E+03  0.25103801188E+03  0.73139225873E+03  0.00000000000E+00 0. -1.
         -2    1    6    6    0  503  0.90280643320E+03  0.10927785574E+04  0.53668912399E+03  0.15156713520E+04  0.00000000000E+00 0.  1.
<mgrwt>
<rscale>  0 0.46648554E+04</rscale>
<asrwt>0</asrwt>
<pdfrwt beam="1">  1        2 0.50472224E+00 0.46648554E+04</pdfrwt>
<pdfrwt beam="2">  1       -1 0.25511572E+00 0.46648554E+04</pdfrwt>
<totfact> 0.62822549E-02</totfact>
</mgrwt>
</event>
<event>
12    6  0.1402540E-007  0.1720750E+04  0.7818608E-02  0.8749618E-01
         -1   -1    0    0    0  501 -0.00000000000E+00  0.00000000000E+00  0.32582124046E+03  0.32582124046E+03  0.00000000000E+00 0.  1.
          2   -1    0    0  501    0  0.00000000000E+00 -0.00000000000E+00 -0.22719360284E+04  0.22719360284E+04  0.00000000000E+00 0. -1.
         24    2    1    2    0    0 -0.47611744754E+03 -0.38638425289E+03 -0.85544221857E+03  0.10556779884E+04  0.81816937453E+02 0.  0.
        254    2    1    2    0    0  0.47611744754E+03  0.38638425289E+03 -0.10906725694E+04  0.15420792804E+04  0.90136631774E+03 0.  0.
         23    2    4    4    0    0  0.39736424303E+03 -0.17324650591E+03 -0.21039467267E+03  0.49221539752E+03  0.10048574933E+03 0.  0.
         23    2    4    4    0    0  0.78753204512E+02  0.55963075880E+03 -0.88027789674E+03  0.10498638829E+04  0.89086159191E+02 0.  0.
          4    1    3    3  502    0 -0.23475182964E+03 -0.20901412680E+03 -0.50320968371E+03  0.59330878343E+03  0.00000000000E+00 0. -1.
         -3    1    3    3    0  502 -0.24136561790E+03 -0.17737012609E+03 -0.35223253486E+03  0.46236920502E+03  0.00000000000E+00 0.  1.
         11    1    5    5    0    0  0.37209114570E+03 -0.14839255571E+03 -0.16171983102E+03  0.43200170722E+03  0.00000000000E+00 0.  1.
        -11    1    5    5    0    0  0.25273097329E+02 -0.24853950197E+02 -0.48674841653E+02  0.60213690295E+02  0.00000000000E+00 0. -1.
          2    1    6    6  503    0  0.92562923494E+02  0.39496968031E+03 -0.65571524667E+03  0.77105864102E+03  0.00000000000E+00 0.  1.
         -2    1    6    6    0  503 -0.13809718981E+02  0.16466107849E+03 -0.22456265006E+03  0.27880524190E+03  0.00000000000E+00 0. -1.
<mgrwt>
<rscale>  0 0.17207499E+04</rscale>
<asrwt>0</asrwt>
<pdfrwt beam="1">  1        2 0.34952864E+00 0.17207499E+04</pdfrwt>
<pdfrwt beam="2">  1       -1 0.50126342E-01 0.17207499E+04</pdfrwt>
<totfact> 0.20336986E+01</totfact>
</mgrwt>
</event>
<event>
12    6  0.1402540E-007  0.1617778E+04  0.7818608E-02  0.8809700E-01
         -1   -1    0    0    0  501 -0.00000000000E+00  0.00000000000E+00  0.10504087934E+04  0.10504087934E+04  0.00000000000E+00 0.  1.
          2   -1    0    0  501    0  0.00000000000E+00 -0.00000000000E+00 -0.62290188085E+03  0.62290188085E+03  0.00000000000E+00 0. -1.
         24    2    1    2    0    0 -0.18155345892E+03 -0.45543137027E+03  0.42262891222E+03  0.65202016657E+03  0.78330764722E+02 0.  0.
        254    2    1    2    0    0  0.18155345892E+03  0.45543137027E+03  0.48780003564E+01  0.10212905077E+04  0.89589682150E+03 0.  0.
         23    2    4    4    0    0 -0.28451818071E+03 -0.41378899796E+02  0.11886974251E+03  0.32440650910E+03  0.91906250926E+02 0.  0.
         23    2    4    4    0    0  0.46607163962E+03  0.49681027007E+03 -0.11399174215E+03  0.69688399861E+03  0.92789937650E+02 0.  0.
          4    1    3    3  502    0 -0.67407852023E+02 -0.25824360819E+03  0.20050435149E+03  0.33381967385E+03  0.00000000000E+00 0. -1.
         -3    1    3    3    0  502 -0.11414560689E+03 -0.19718776209E+03  0.22212456073E+03  0.31820049272E+03  0.00000000000E+00 0.  1.
         11    1    5    5    0    0 -0.95749546163E+02 -0.84966799246E+01  0.88002512317E+02  0.13032502190E+03  0.00000000000E+00 0. -1.
        -11    1    5    5    0    0 -0.18876863454E+03 -0.32882219872E+02  0.30867230191E+02  0.19408148719E+03  0.00000000000E+00 0.  1.
          4    1    6    6  503    0  0.11804446942E+03  0.18188538424E+03 -0.56038510152E+02  0.22395781831E+03  0.00000000000E+00 0. -1.
         -4    1    6    6    0  503  0.34802717020E+03  0.31492488583E+03 -0.57953232000E+02  0.47292618030E+03  0.00000000000E+00 0.  1.
<mgrwt>
<rscale>  0 0.16177782E+04</rscale>
<asrwt>0</asrwt>
<pdfrwt beam="1">  1        2 0.95831059E-01 0.16177782E+04</pdfrwt>
<pdfrwt beam="2">  1       -1 0.16160135E+00 0.16177782E+04</pdfrwt>
<totfact> 0.14732317E+01</totfact>
</mgrwt>
</event>
<event>
12    6  0.1402540E-007  0.1574897E+04  0.7818608E-02  0.8836120E-01
         -1   -1    0    0    0  501 -0.00000000000E+00  0.00000000000E+00  0.27933035518E+03  0.27933035518E+03  0.00000000000E+00 0.  1.
          2   -1    0    0  501    0  0.00000000000E+00 -0.00000000000E+00 -0.22198636432E+04  0.22198636432E+04  0.00000000000E+00 0. -1.
         24    2    1    2    0    0 -0.38820145446E+03 -0.24728458923E+03 -0.10571588558E+04  0.11558788498E+04  0.81369722039E+02 0.  0.
        254    2    1    2    0    0  0.38820145446E+03  0.24728458923E+03 -0.88337443219E+03  0.13433151486E+04  0.90127418891E+03 0.  0.
         23    2    4    4    0    0  0.25555550158E+03  0.42057519871E+03 -0.81929077529E+02  0.50764296482E+03  0.93791757778E+02 0.  0.
         23    2    4    4    0    0  0.13264595288E+03 -0.17329060948E+03 -0.80144535466E+03  0.83567218374E+03  0.91699280432E+02 0.  0.
          2    1    3    3  502    0 -0.82454610679E+02 -0.55824970968E+02 -0.32085797755E+03  0.33595391345E+03  0.00000000000E+00 0. -1.
         -1    1    3    3    0  502 -0.30574684378E+03 -0.19145961826E+03 -0.73630087824E+03  0.81992493632E+03  0.00000000000E+00 0.  1.
         11    1    5    5    0    0  0.19235846146E+03  0.23063527878E+03 -0.60104686316E+02  0.30627925628E+03  0.00000000000E+00 0. -1.
        -11    1    5    5    0    0  0.63197040123E+02  0.18993991993E+03 -0.21824391213E+02  0.20136370853E+03  0.00000000000E+00 0.  1.
          2    1    6    6  503    0  0.15194342234E+02 -0.50384726638E+02 -0.90546108860E+02  0.10472863287E+03  0.00000000000E+00 0. -1.
         -2    1    6    6    0  503  0.11745161065E+03 -0.12290588284E+03 -0.71089924580E+03  0.73094355087E+03  0.00000000000E+00 0.  1.
<mgrwt>
<rscale>  0 0.15748972E+04</rscale>
<asrwt>0</asrwt>
<pdfrwt beam="1">  1        2 0.34151748E+00 0.15748972E+04</pdfrwt>
<pdfrwt beam="2">  1       -1 0.42973901E-01 0.15748972E+04</pdfrwt>
<totfact> 0.29412216E+01</totfact>
</mgrwt>
</event>
<event>
12    6  0.1402540E-007  0.1497163E+04  0.7818608E-02  0.8886341E-01
          2   -1    0    0  501    0  0.00000000000E+00  0.00000000000E+00  0.95378947777E+03  0.95378947777E+03  0.00000000000E+00 0. -1.
         -1   -1    0    0    0  501 -0.00000000000E+00 -0.00000000000E+00 -0.58752433274E+03  0.58752433274E+03  0.00000000000E+00 0.  1.
         24    2    1    2    0    0  0.11735216665E+03  0.15092662694E+03  0.56378925115E+03  0.60002513872E+03  0.74976460577E+02 0.  0.
        254    2    1    2    0    0 -0.11735216665E+03 -0.15092662694E+03 -0.19752410612E+03  0.94128867180E+03  0.90025452702E+03 0.  0.
         23    2    4    4    0    0 -0.25524620966E+03  0.30203521317E+03  0.33085048825E+02  0.40685825808E+03  0.89794900610E+02 0.  0.
         23    2    4    4    0    0  0.13789404301E+03 -0.45296184011E+03 -0.23060915495E+03  0.53443041372E+03  0.90807979094E+02 0.  0.
          2    1    3    3  502    0  0.79437155968E+02  0.11725215140E+03  0.49304663865E+03  0.51298471384E+03  0.00000000000E+00 0. -1.
         -1    1    3    3    0  502  0.37915010681E+02  0.33674475546E+02  0.70742612503E+02  0.87040424872E+02  0.00000000000E+00 0.  1.
         11    1    5    5    0    0 -0.14099236216E+03  0.10300725429E+03 -0.24698981763E+01  0.17462943916E+03  0.00000000000E+00 0. -1.
        -11    1    5    5    0    0 -0.11425384750E+03  0.19902795887E+03  0.35554947001E+02  0.23222881892E+03  0.00000000000E+00 0.  1.
          1    1    6    6  503    0  0.51223838127E+02 -0.60616518264E+02 -0.25876210540E+02  0.83473481722E+02  0.00000000000E+00 0. -1.
         -1    1    6    6    0  503  0.86670204881E+02 -0.39234532185E+03 -0.20473294441E+03  0.45095693200E+03  0.00000000000E+00 0.  1.
<mgrwt>
<rscale>  0 0.14971634E+04</rscale>
<asrwt>0</asrwt>
<pdfrwt beam="1">  1        2 0.14673684E+00 0.14971634E+04</pdfrwt>
<pdfrwt beam="2">  1       -1 0.90388359E-01 0.14971634E+04</pdfrwt>
<totfact> 0.35627056E+01</totfact>
</mgrwt>
</event>
<event>
12    6  0.1402540E-007  0.1461914E+04  0.7818608E-02  0.8910182E-01
          2   -1    0    0  501    0  0.00000000000E+00  0.00000000000E+00  0.81571082976E+03  0.81571082976E+03  0.00000000000E+00 0. -1.
         -3   -1    0    0    0  501 -0.00000000000E+00 -0.00000000000E+00 -0.65500966101E+03  0.65500966101E+03  0.00000000000E+00 0.  1.
         24    2    1    2    0    0 -0.21646857110E+03 -0.17200186281E+03 -0.30646741278E+03  0.42057851860E+03  0.80751050299E+02 0.  0.
        254    2    1    2    0    0  0.21646857110E+03  0.17200186281E+03  0.46716858153E+03  0.10501419722E+04  0.89894849412E+03 0.  0.
         23    2    4    4    0    0  0.23850381495E+03  0.46659384190E+03  0.51188274142E+03  0.73769703784E+03  0.87058001494E+02 0.  0.
         23    2    4    4    0    0 -0.22035243849E+02 -0.29459197909E+03 -0.44714159894E+02  0.31244493434E+03  0.91391984244E+02 0.  0.
          4    1    3    3  502    0 -0.34519143375E+02 -0.53278810336E+01 -0.72802550826E+02  0.80747563322E+02  0.00000000000E+00 0. -1.
         -3    1    3    3    0  502 -0.18194942773E+03 -0.16667398178E+03 -0.23366486196E+03  0.33983095528E+03  0.00000000000E+00 0.  1.
         11    1    5    5    0    0  0.14300808295E+03  0.21100705446E+03  0.20539057143E+03  0.32735389971E+03  0.00000000000E+00 0.  1.
        -11    1    5    5    0    0  0.95495731999E+02  0.25558678744E+03  0.30649216999E+03  0.41034313813E+03  0.00000000000E+00 0. -1.
          3    1    6    6  503    0 -0.31337205264E+01 -0.28314248104E+03 -0.27614984564E+02  0.28450320235E+03  0.00000000000E+00 0. -1.
         -3    1    6    6    0  503 -0.18901523323E+02 -0.11449498043E+02 -0.17099175330E+02  0.27941731985E+02  0.00000000000E+00 0.  1.
<mgrwt>
<rscale>  0 0.14619145E+04</rscale>
<asrwt>0</asrwt>
<pdfrwt beam="1">  1        2 0.12549397E+00 0.14619145E+04</pdfrwt>
<pdfrwt beam="2">  1       -3 0.10077072E+00 0.14619145E+04</pdfrwt>
<totfact> 0.17656931E+01</totfact>
</mgrwt>
</event>
<event>
12    6  0.1402540E-007  0.1771735E+04  0.7818608E-02  0.8721477E-01
         -1   -1    0    0    0  501 -0.00000000000E+00  0.00000000000E+00  0.28414446348E+03  0.28414446348E+03  0.00000000000E+00 0.  1.
          2   -1    0    0  501    0  0.00000000000E+00 -0.00000000000E+00 -0.27618377388E+04  0.27618377388E+04  0.00000000000E+00 0. -1.
         24    2    1    2    0    0 -0.26276604191E+03  0.48410855094E+03 -0.15298855573E+04  0.16279356437E+04  0.78851503666E+02 0.  0.
        254    2    1    2    0    0  0.26276604191E+03 -0.48410855094E+03 -0.94780771797E+03  0.14180465586E+04  0.89950513623E+03 0.  0.
         23    2    4    4    0    0  0.48796961502E+03 -0.87059265258E+02 -0.21020977314E+03  0.54604445747E+03  0.91009559742E+02 0.  0.
         23    2    4    4    0    0 -0.22520357311E+03 -0.39704928569E+03 -0.73759794483E+03  0.87200210109E+03  0.89286905425E+02 0.  0.
          4    1    3    3  502    0 -0.81580109019E+02  0.95956947734E+02 -0.41058551621E+03  0.42946887678E+03  0.00000000000E+00 0. -1.
         -3    1    3    3    0  502 -0.18118593289E+03  0.38815160321E+03 -0.11193000411E+04  0.11984667669E+04  0.00000000000E+00 0.  1.
         11    1    5    5    0    0  0.28658691850E+03 -0.18454606464E+02 -0.15459542240E+03  0.32614778703E+03  0.00000000000E+00 0.  1.
        -11    1    5    5    0    0  0.20138269651E+03 -0.68604658794E+02 -0.55614350743E+02  0.21989667044E+03  0.00000000000E+00 0. -1.
          3    1    6    6  503    0 -0.10971997403E+03 -0.15205573880E+03 -0.23078972054E+03  0.29736058164E+03  0.00000000000E+00 0. -1.
         -3    1    6    6    0  503 -0.11548359907E+03 -0.24499354689E+03 -0.50680822429E+03  0.57464151945E+03  0.00000000000E+00 0.  1.
<mgrwt>
<rscale>  0 0.17717346E+04</rscale>
<asrwt>0</asrwt>
<pdfrwt beam="1">  1        2 0.42489811E+00 0.17717346E+04</pdfrwt>
<pdfrwt beam="2">  1       -1 0.43714534E-01 0.17717346E+04</pdfrwt>
<totfact> 0.13614847E+01</totfact>
</mgrwt>
</event>
<event>
12    6  0.1402540E-007  0.1540164E+04  0.7818608E-02  0.8858175E-01
         -1   -1    0    0    0  501 -0.00000000000E+00  0.00000000000E+00  0.55752667889E+03  0.55752667889E+03  0.00000000000E+00 0.  1.
          2   -1    0    0  501    0  0.00000000000E+00 -0.00000000000E+00 -0.10636732610E+04  0.10636732610E+04  0.00000000000E+00 0. -1.
         24    2    1    2    0    0 -0.44051704358E+03  0.28288102019E+02  0.85829867643E+02  0.45682103247E+03  0.80394073942E+02 0.  0.
        254    2    1    2    0    0  0.44051704358E+03 -0.28288102019E+02 -0.59197644979E+03  0.11643789075E+04  0.90027031531E+03 0.  0.
         23    2    4    4    0    0  0.69125756812E+03 -0.12506547317E+03 -0.34441709374E+03  0.78758946096E+03  0.90529699516E+02 0.  0.
         23    2    4    4    0    0 -0.25074052454E+03  0.96777371152E+02 -0.24755935605E+03  0.37678944650E+03  0.91912904483E+02 0.  0.
          4    1    3    3  502    0 -0.87542567199E+01  0.28525292750E+01 -0.10237797805E+02  0.13769039105E+02  0.00000000000E+00 0. -1.
         -1    1    3    3    0  502 -0.43176278686E+03  0.25435572744E+02  0.96067665448E+02  0.44305199336E+03  0.00000000000E+00 0.  1.
         11    1    5    5    0    0  0.20787717051E+03 -0.55192145597E+02 -0.14845357229E+03  0.26133800733E+03  0.00000000000E+00 0.  1.
        -11    1    5    5    0    0  0.48338039761E+03 -0.69873327574E+02 -0.19596352146E+03  0.52625145363E+03  0.00000000000E+00 0. -1.
          2    1    6    6  503    0 -0.24288824799E+03  0.70525354624E+02 -0.20226323032E+03  0.32385018295E+03  0.00000000000E+00 0. -1.
         -2    1    6    6    0  503 -0.78522765477E+01  0.26252016529E+02 -0.45296125729E+02  0.52939263547E+02  0.00000000000E+00 0.  1.
<mgrwt>
<rscale>  0 0.15401639E+04</rscale>
<asrwt>0</asrwt>
<pdfrwt beam="1">  1        2 0.16364204E+00 0.15401639E+04</pdfrwt>
<pdfrwt beam="2">  1       -1 0.85773337E-01 0.15401639E+04</pdfrwt>
<totfact> 0.33858967E+01</totfact>
</mgrwt>
</event>
<event>
12    6  0.1402540E-007  0.1639616E+04  0.7818608E-02  0.8796573E-01
          2   -1    0    0  501    0  0.00000000000E+00  0.00000000000E+00  0.11297135306E+04  0.11297135306E+04  0.00000000000E+00 0. -1.
         -1   -1    0    0    0  501 -0.00000000000E+00 -0.00000000000E+00 -0.59491668627E+03  0.59491668627E+03  0.00000000000E+00 0.  1.
         24    2    1    2    0    0 -0.25258897487E+03 -0.20902456504E+03  0.67705663385E+03  0.75629933419E+03  0.78041901871E+02 0.  0.
        254    2    1    2    0    0  0.25258897487E+03  0.20902456504E+03 -0.14225978955E+03  0.96833088265E+03  0.89996355013E+03 0.  0.
         23    2    4    4    0    0 -0.10908871864E+03  0.16534078874E+03  0.31098847111E+03  0.37963276844E+03  0.90384095712E+02 0.  0.
         23    2    4    4    0    0  0.36167769350E+03  0.43683776302E+02 -0.45324826066E+03  0.58869811421E+03  0.91719450472E+02 0.  0.
          2    1    3    3  502    0 -0.23194920447E+03 -0.15481067058E+03  0.56862558311E+03  0.63332600685E+03  0.00000000000E+00 0. -1.
         -1    1    3    3    0  502 -0.20639770395E+02 -0.54213894458E+02  0.10843105073E+03  0.12297332734E+03  0.00000000000E+00 0.  1.
         11    1    5    5    0    0 -0.25837065342E+02  0.11977040425E+03  0.16533298190E+03  0.20578507862E+03  0.00000000000E+00 0.  1.
        -11    1    5    5    0    0 -0.83251653296E+02  0.45570384487E+02  0.14565548920E+03  0.17384768982E+03  0.00000000000E+00 0. -1.
          1    1    6    6  503    0  0.30697265618E+03  0.10854492149E+02 -0.33619377004E+03  0.45538586128E+03  0.00000000000E+00 0.  1.
         -1    1    6    6    0  503  0.54705037322E+02  0.32829284153E+02 -0.11705449062E+03  0.13331225293E+03  0.00000000000E+00 0. -1.
<mgrwt>
<rscale>  0 0.16396163E+04</rscale>
<asrwt>0</asrwt>
<pdfrwt beam="1">  1        2 0.17380208E+00 0.16396163E+04</pdfrwt>
<pdfrwt beam="2">  1       -1 0.91525644E-01 0.16396163E+04</pdfrwt>
<totfact> 0.26509985E+01</totfact>
</mgrwt>
</event>
<event>
12    6  0.1402540E-007  0.2068002E+04  0.7818608E-02  0.8575471E-01
          2   -1    0    0  501    0  0.00000000000E+00  0.00000000000E+00  0.12627990783E+04  0.12627990783E+04  0.00000000000E+00 0. -1.
         -1   -1    0    0    0  501 -0.00000000000E+00 -0.00000000000E+00 -0.84665717057E+03  0.84665717057E+03  0.00000000000E+00 0.  1.
         24    2    1    2    0    0 -0.41817912307E+03 -0.39749246356E+03  0.78651664437E+03  0.97874578986E+03  0.80379423570E+02 0.  0.
        254    2    1    2    0    0  0.41817912307E+03  0.39749246356E+03 -0.37037473668E+03  0.11307104590E+04  0.89914106729E+03 0.  0.
         23    2    4    4    0    0 -0.27161463160E+03  0.65255469450E+02 -0.62053104341E+02  0.30009211218E+03  0.90398582071E+02 0.  0.
         23    2    4    4    0    0  0.68979375467E+03  0.33223699410E+03 -0.30832163234E+03  0.83061834679E+03  0.93100831488E+02 0.  0.
          4    1    3    3  502    0 -0.12954925607E+03 -0.14265093824E+03  0.32361502524E+03  0.37664171900E+03  0.00000000000E+00 0. -1.
         -3    1    3    3    0  502 -0.28862986700E+03 -0.25484152532E+03  0.46290161913E+03  0.60210407086E+03  0.00000000000E+00 0.  1.
         11    1    5    5    0    0 -0.58920993201E+02 -0.19955124777E+02  0.17972095226E+01  0.62234398903E+02  0.00000000000E+00 0. -1.
        -11    1    5    5    0    0 -0.21269363840E+03  0.85210594228E+02 -0.63850313864E+02  0.23785771327E+03  0.00000000000E+00 0.  1.
          2    1    6    6  503    0  0.48150908510E+03  0.27474534033E+03 -0.20448031735E+03  0.59088763843E+03  0.00000000000E+00 0. -1.
         -2    1    6    6    0  503  0.20828466957E+03  0.57491653772E+02 -0.10384131499E+03  0.23973070836E+03  0.00000000000E+00 0.  1.
<mgrwt>
<rscale>  0 0.20680018E+04</rscale>
<asrwt>0</asrwt>
<pdfrwt beam="1">  1        2 0.19427678E+00 0.20680018E+04</pdfrwt>
<pdfrwt beam="2">  1       -1 0.13025495E+00 0.20680018E+04</pdfrwt>
<totfact> 0.92398469E+00</totfact>
</mgrwt>
</event>
<event>
12    6  0.1402540E-007  0.1979681E+04  0.7818608E-02  0.8616180E-01
          2   -1    0    0  501    0  0.00000000000E+00  0.00000000000E+00  0.50624104675E+03  0.50624104675E+03  0.00000000000E+00 0. -1.
         -1   -1    0    0    0  501 -0.00000000000E+00 -0.00000000000E+00 -0.19354112908E+04  0.19354112908E+04  0.00000000000E+00 0.  1.
         24    2    1    2    0    0  0.74612006866E+03  0.23825311611E+03 -0.56485580881E+03  0.96889484254E+03  0.78964719653E+02 0.  0.
        254    2    1    2    0    0 -0.74612006866E+03 -0.23825311611E+03 -0.86431443528E+03  0.14727574951E+04  0.89917489514E+03 0.  0.
         23    2    4    4    0    0  0.13480314318E+03  0.84723623307E+02  0.15985205904E+02  0.18295933353E+03  0.88705192414E+02 0.  0.
         23    2    4    4    0    0 -0.88092321184E+03 -0.32297673942E+03 -0.88029964118E+03  0.12897981615E+04  0.91171047310E+02 0.  0.
          4    1    3    3  502    0  0.48231951054E+03  0.17173396023E+03 -0.32680600292E+03  0.60739346958E+03  0.00000000000E+00 0. -1.
         -3    1    3    3    0  502  0.26380055812E+03  0.66519155882E+02 -0.23804980590E+03  0.36150137296E+03  0.00000000000E+00 0.  1.
         11    1    5    5    0    0  0.88896637300E+02  0.49017020073E+02  0.52501345774E+02  0.11428767076E+03  0.00000000000E+00 0. -1.
        -11    1    5    5    0    0  0.45906505879E+02  0.35706603234E+02 -0.36516139870E+02  0.68671662770E+02  0.00000000000E+00 0.  1.
          1    1    6    6  503    0 -0.16572080427E+03 -0.38392395449E+02 -0.19955487749E+03  0.26222034652E+03  0.00000000000E+00 0. -1.
         -1    1    6    6    0  503 -0.71520240757E+03 -0.28458434397E+03 -0.68074476369E+03  0.10275778150E+04  0.00000000000E+00 0.  1.
<mgrwt>
<rscale>  0 0.19796814E+04</rscale>
<asrwt>0</asrwt>
<pdfrwt beam="1">  1        2 0.77883237E-01 0.19796814E+04</pdfrwt>
<pdfrwt beam="2">  1       -1 0.29775559E+00 0.19796814E+04</pdfrwt>
<totfact> 0.22050574E+00</totfact>
</mgrwt>
</event>
<event>
12    6  0.1402540E-007  0.1532622E+04  0.7818608E-02  0.8863045E-01
          2   -1    0    0  501    0  0.00000000000E+00  0.00000000000E+00  0.29436779515E+04  0.29436779515E+04  0.00000000000E+00 0. -1.
         -1   -1    0    0    0  501 -0.00000000000E+00 -0.00000000000E+00 -0.19948934284E+03  0.19948934284E+03  0.00000000000E+00 0.  1.
         24    2    1    2    0    0 -0.15716425318E+03  0.42909812110E+03  0.13080654931E+04  0.13879201361E+04  0.80381403054E+02 0.  0.
        254    2    1    2    0    0  0.15716425318E+03 -0.42909812110E+03  0.14361231156E+04  0.17552471582E+04  0.89978729898E+03 0.  0.
         23    2    4    4    0    0  0.37648671094E+03 -0.96697905801E+02  0.18585471143E+03  0.43975621160E+03  0.88038760689E+02 0.  0.
         23    2    4    4    0    0 -0.21932245776E+03 -0.33240021530E+03  0.12502684041E+04  0.13154909466E+04  0.93558028305E+02 0.  0.
          4    1    3    3  502    0 -0.16244848652E+02  0.10706490328E+03  0.23509490103E+03  0.25883663016E+03  0.00000000000E+00 0. -1.
         -3    1    3    3    0  502 -0.14091940453E+03  0.32203321782E+03  0.10729705920E+04  0.11290835059E+04  0.00000000000E+00 0.  1.
         11    1    5    5    0    0  0.34997402630E+03 -0.88836093552E+02  0.19533399394E+03  0.41052288583E+03  0.00000000000E+00 0. -1.
        -11    1    5    5    0    0  0.26512684644E+02 -0.78618122490E+01 -0.94792825154E+01  0.29233325775E+02  0.00000000000E+00 0.  1.
          3    1    6    6  503    0 -0.14239173944E+03 -0.13168552477E+03  0.57377865302E+03  0.60567188109E+03  0.00000000000E+00 0. -1.
         -3    1    6    6    0  503 -0.76930718321E+02 -0.20071469053E+03  0.67648975112E+03  0.70981906553E+03  0.00000000000E+00 0.  1.
<mgrwt>
<rscale>  0 0.15326218E+04</rscale>
<asrwt>0</asrwt>
<pdfrwt beam="1">  1        2 0.45287350E+00 0.15326218E+04</pdfrwt>
<pdfrwt beam="2">  1       -1 0.30690670E-01 0.15326218E+04</pdfrwt>
<totfact> 0.20440118E+01</totfact>
</mgrwt>
</event>
<event>
12    6  0.1402540E-007  0.1137268E+04  0.7818608E-02  0.9169611E-01
         -1   -1    0    0    0  501 -0.00000000000E+00  0.00000000000E+00  0.47751951992E+03  0.47751951992E+03  0.00000000000E+00 0.  1.
          2   -1    0    0  501    0  0.00000000000E+00 -0.00000000000E+00 -0.67713343049E+03  0.67713343049E+03  0.00000000000E+00 0. -1.
         24    2    1    2    0    0 -0.18440755026E+03  0.40520243319E+02  0.29815292798E+02  0.20657271634E+03  0.78328160556E+02 0.  0.
        254    2    1    2    0    0  0.18440755026E+03 -0.40520243319E+02 -0.22942920336E+03  0.94808023407E+03  0.90031679767E+03 0.  0.
         23    2    4    4    0    0 -0.76082540332E+02 -0.18166107559E+03  0.27866798082E+03  0.35291235838E+03  0.90011053965E+02 0.  0.
         23    2    4    4    0    0  0.26049009060E+03  0.14114083227E+03 -0.50809718418E+03  0.59516787569E+03  0.91028730885E+02 0.  0.
          4    1    3    3  502    0 -0.82545903709E+02  0.14664253368E+02 -0.25739096688E+02  0.87700442669E+02  0.00000000000E+00 0. -1.
         -3    1    3    3    0  502 -0.10186164656E+03  0.25855989950E+02  0.55554389486E+02  0.11887227367E+03  0.00000000000E+00 0.  1.
         11    1    5    5    0    0 -0.16704944211E+02 -0.11730749729E+03  0.10456905860E+03  0.15803414852E+03  0.00000000000E+00 0. -1.
        -11    1    5    5    0    0 -0.59377596121E+02 -0.64353578300E+02  0.17409892222E+03  0.19487820986E+03  0.00000000000E+00 0.  1.
          1    1    6    6  503    0  0.10059070424E+03  0.99077725444E+02 -0.19059469772E+03  0.23719448615E+03  0.00000000000E+00 0. -1.
         -1    1    6    6    0  503  0.15989938636E+03  0.42063106830E+02 -0.31750248646E+03  0.35797338954E+03  0.00000000000E+00 0.  1.
<mgrwt>
<rscale>  0 0.11372677E+04</rscale>
<asrwt>0</asrwt>
<pdfrwt beam="1">  1        2 0.10417437E+00 0.11372677E+04</pdfrwt>
<pdfrwt beam="2">  1       -1 0.73464542E-01 0.11372677E+04</pdfrwt>
<totfact> 0.90301362E+01</totfact>
</mgrwt>
</event>
<event>
12    6  0.1402540E-007  0.2556391E+04  0.7818608E-02  0.8383167E-01
         -1   -1    0    0    0  501 -0.00000000000E+00  0.00000000000E+00  0.12175356723E+04  0.12175356723E+04  0.00000000000E+00 0.  1.
          2   -1    0    0  501    0  0.00000000000E+00 -0.00000000000E+00 -0.13418777665E+04  0.13418777665E+04  0.00000000000E+00 0. -1.
         24    2    1    2    0    0 -0.73287822294E+03  0.73626084799E+03  0.35899146577E+03  0.11019350448E+04  0.78711146424E+02 0.  0.
        254    2    1    2    0    0  0.73287822294E+03 -0.73626084799E+03 -0.48333355998E+03  0.14574783940E+04  0.90080042902E+03 0.  0.
         23    2    4    4    0    0  0.12936903096E+03  0.16427508856E+03 -0.26342012483E+03  0.34742590669E+03  0.87131782839E+02 0.  0.
         23    2    4    4    0    0  0.60350919198E+03 -0.90053593655E+03 -0.21991343515E+03  0.11100524873E+04  0.93092899085E+02 0.  0.
          2    1    3    3  502    0 -0.20906355354E+03  0.16196000401E+03  0.86242410029E+02  0.27816607558E+03  0.00000000000E+00 0. -1.
         -1    1    3    3    0  502 -0.52381466940E+03  0.57430084398E+03  0.27274905574E+03  0.82376896924E+03  0.00000000000E+00 0.  1.
         11    1    5    5    0    0  0.11049424820E+03  0.71266736702E+02 -0.14695035529E+03  0.19718603796E+03  0.00000000000E+00 0. -1.
        -11    1    5    5    0    0  0.18874782758E+02  0.93008351861E+02 -0.11646976954E+03  0.15023986873E+03  0.00000000000E+00 0.  1.
          3    1    6    6  503    0  0.33123686317E+03 -0.54698939951E+03 -0.93569405239E+02  0.64627431970E+03  0.00000000000E+00 0. -1.
         -3    1    6    6    0  503  0.27227232880E+03 -0.35354653704E+03 -0.12634402991E+03  0.46377816764E+03  0.00000000000E+00 0.  1.
<mgrwt>
<rscale>  0 0.25563912E+04</rscale>
<asrwt>0</asrwt>
<pdfrwt beam="1">  1        2 0.20644273E+00 0.25563912E+04</pdfrwt>
<pdfrwt beam="2">  1       -1 0.18731318E+00 0.25563912E+04</pdfrwt>
<totfact> 0.29179580E+00</totfact>
</mgrwt>
</event>
<event>
12    6  0.1402540E-007  0.3353701E+04  0.7818608E-02  0.8149364E-01
          2   -1    0    0  501    0  0.00000000000E+00  0.00000000000E+00  0.37574448461E+04  0.37574448461E+04  0.00000000000E+00 0. -1.
         -1   -1    0    0    0  501 -0.00000000000E+00 -0.00000000000E+00 -0.74833520976E+03  0.74833520976E+03  0.00000000000E+00 0.  1.
         24    2    1    2    0    0 -0.14990533347E+04 -0.20308769427E+03  0.18802423042E+04  0.24146231689E+04  0.81782719429E+02 0.  0.
        254    2    1    2    0    0  0.14990533347E+04  0.20308769427E+03  0.11288673321E+04  0.20911568870E+04  0.90010563861E+03 0.  0.
         23    2    4    4    0    0  0.72571571952E+03  0.24506147983E+03  0.67714836470E+02  0.77428990587E+03  0.90670418569E+02 0.  0.
         23    2    4    4    0    0  0.77333761518E+03 -0.41973785559E+02  0.10611524957E+04  0.13168669811E+04  0.91000885759E+02 0.  0.
          4    1    3    3  502    0 -0.69817186868E+03 -0.10627841099E+03  0.81548621569E+03  0.10787756147E+04  0.00000000000E+00 0. -1.
         -3    1    3    3    0  502 -0.80088146602E+03 -0.96809283274E+02  0.10647560885E+04  0.13358475542E+04  0.00000000000E+00 0.  1.
         11    1    5    5    0    0  0.33175409760E+02  0.30126419052E+02  0.14969250649E+02  0.47247088827E+02  0.00000000000E+00 0. -1.
        -11    1    5    5    0    0  0.69254030976E+03  0.21493506077E+03  0.52745585821E+02  0.72704281705E+03  0.00000000000E+00 0.  1.
          2    1    6    6  503    0  0.65354917682E+03 -0.49429720683E+02  0.94341453968E+03  0.11487387943E+04  0.00000000000E+00 0.  1.
         -2    1    6    6    0  503  0.11978843836E+03  0.74559351241E+01  0.11773795599E+03  0.16812818685E+03  0.00000000000E+00 0. -1.
<mgrwt>
<rscale>  0 0.33537014E+04</rscale>
<asrwt>0</asrwt>
<pdfrwt beam="1">  1        2 0.57806843E+00 0.33537014E+04</pdfrwt>
<pdfrwt beam="2">  1       -1 0.11512850E+00 0.33537014E+04</pdfrwt>
<totfact> 0.34116623E-01</totfact>
</mgrwt>
</event>
<event>
12    6  0.1402540E-007  0.2628493E+04  0.7818608E-02  0.8358587E-01
         -1   -1    0    0    0  501 -0.00000000000E+00  0.00000000000E+00  0.46104178968E+03  0.46104178968E+03  0.00000000000E+00 0.  1.
          2   -1    0    0  501    0  0.00000000000E+00 -0.00000000000E+00 -0.37463929904E+04  0.37463929904E+04  0.00000000000E+00 0. -1.
         24    2    1    2    0    0  0.97801597448E+03  0.45173636258E+03 -0.76715864480E+03  0.13249328716E+04  0.79584798877E+02 0.  0.
        254    2    1    2    0    0 -0.97801597448E+03 -0.45173636258E+03 -0.25181925559E+04  0.28825019085E+04  0.89829979203E+03 0.  0.
         23    2    4    4    0    0 -0.29097562973E+03 -0.45144097912E+03 -0.18163363596E+04  0.18962058558E+04  0.89739073836E+02 0.  0.
         23    2    4    4    0    0 -0.68704034475E+03 -0.29538346083E+00 -0.70185619629E+03  0.98629605277E+03  0.90295408920E+02 0.  0.
          4    1    3    3  502    0  0.43715952445E+03  0.18075304634E+03 -0.37916394530E+03  0.60625523585E+03  0.00000000000E+00 0. -1.
         -3    1    3    3    0  502  0.54085645003E+03  0.27098331624E+03 -0.38799469950E+03  0.71867763570E+03  0.00000000000E+00 0.  1.
         11    1    5    5    0    0 -0.18492191542E+03 -0.32795991094E+03 -0.11402596078E+04  0.12008104726E+04  0.00000000000E+00 0.  1.
        -11    1    5    5    0    0 -0.10605371431E+03 -0.12348106818E+03 -0.67607675184E+03  0.69539538315E+03  0.00000000000E+00 0. -1.
          1    1    6    6  503    0 -0.17888544308E+03  0.21568617589E+02 -0.13817929274E+03  0.22706546182E+03  0.00000000000E+00 0. -1.
         -1    1    6    6    0  503 -0.50815490167E+03 -0.21864001050E+02 -0.56367690356E+03  0.75923059095E+03  0.00000000000E+00 0.  1.
<mgrwt>
<rscale>  0 0.26284929E+04</rscale>
<asrwt>0</asrwt>
<pdfrwt beam="1">  1        2 0.57636814E+00 0.26284929E+04</pdfrwt>
<pdfrwt beam="2">  1       -1 0.70929507E-01 0.26284929E+04</pdfrwt>
<totfact> 0.10873881E+00</totfact>
</mgrwt>
</event>
<event>
12    6  0.1402540E-007  0.2293789E+04  0.7818608E-02  0.8480374E-01
         -1   -1    0    0    0  501 -0.00000000000E+00  0.00000000000E+00  0.70818070098E+03  0.70818070098E+03  0.00000000000E+00 0.  1.
          2   -1    0    0  501    0  0.00000000000E+00 -0.00000000000E+00 -0.18573885895E+04  0.18573885895E+04  0.00000000000E+00 0. -1.
         24    2    1    2    0    0  0.87432655509E+03  0.34998829945E+03 -0.74245227988E+03  0.12018014585E+04  0.78438658711E+02 0.  0.
        254    2    1    2    0    0 -0.87432655509E+03 -0.34998829945E+03 -0.40675560862E+03  0.13637678319E+04  0.89859548158E+03 0.  0.
         23    2    4    4    0    0  0.16079846313E+03 -0.14720248790E+03 -0.13008674531E+03  0.26948422089E+03  0.90412752484E+02 0.  0.
         23    2    4    4    0    0 -0.10351250182E+04 -0.20278581156E+03 -0.27666886331E+03  0.10942836110E+04  0.91132171616E+02 0.  0.
          2    1    3    3  502    0  0.60999229816E+03  0.22292664690E+03 -0.54957586382E+03  0.85077642410E+03  0.00000000000E+00 0. -1.
         -1    1    3    3    0  502  0.26433425693E+03  0.12706165256E+03 -0.19287641606E+03  0.35102503445E+03  0.00000000000E+00 0.  1.
         11    1    5    5    0    0  0.15388292295E+03 -0.13827463518E+03 -0.14362885409E+03  0.25185129826E+03  0.00000000000E+00 0. -1.
        -11    1    5    5    0    0  0.69155401851E+01 -0.89278527175E+01  0.13542108776E+02  0.17632922625E+02  0.00000000000E+00 0.  1.
          3    1    6    6  503    0 -0.64401115778E+03 -0.10452985659E+03 -0.13063084316E+03  0.66538806680E+03  0.00000000000E+00 0. -1.
         -3    1    6    6    0  503 -0.39111386045E+03 -0.98255954968E+02 -0.14603802015E+03  0.42889554422E+03  0.00000000000E+00 0.  1.
<mgrwt>
<rscale>  0 0.22937888E+04</rscale>
<asrwt>0</asrwt>
<pdfrwt beam="1">  1        2 0.28575209E+00 0.22937888E+04</pdfrwt>
<pdfrwt beam="2">  1       -1 0.10895088E+00 0.22937888E+04</pdfrwt>
<totfact> 0.64634166E+00</totfact>
</mgrwt>
</event>
<event>
12    6  0.1402540E-007  0.1467868E+04  0.7818608E-02  0.8906106E-01
         -1   -1    0    0    0  501 -0.00000000000E+00  0.00000000000E+00  0.59710026240E+03  0.59710026240E+03  0.00000000000E+00 0.  1.
          2   -1    0    0  501    0  0.00000000000E+00 -0.00000000000E+00 -0.90212456502E+03  0.90212456502E+03  0.00000000000E+00 0. -1.
         24    2    1    2    0    0 -0.26501841867E+03 -0.35943232634E+03 -0.14691828093E+02  0.45373378880E+03  0.78943915767E+02 0.  0.
        254    2    1    2    0    0  0.26501841867E+03  0.35943232634E+03 -0.29033247453E+03  0.10454910386E+04  0.89962892718E+03 0.  0.
         23    2    4    4    0    0  0.12760566858E+03  0.58496636806E+03  0.46655433940E+02  0.60738193766E+03  0.90924310685E+02 0.  0.
         23    2    4    4    0    0  0.13741275010E+03 -0.22553404172E+03 -0.33698790847E+03  0.43810910095E+03  0.92902454347E+02 0.  0.
          2    1    3    3  502    0 -0.10717043962E+02 -0.42799196918E+02 -0.17892770163E+02  0.47610686953E+02  0.00000000000E+00 0. -1.
         -1    1    3    3    0  502 -0.25430137471E+03 -0.31663312942E+03  0.32009420696E+01  0.40612310185E+03  0.00000000000E+00 0.  1.
         11    1    5    5    0    0  0.13572483146E+03  0.49735891208E+03  0.22021593424E+02  0.51601556942E+03  0.00000000000E+00 0. -1.
        -11    1    5    5    0    0 -0.81191628832E+01  0.87607455973E+02  0.24633840516E+02  0.91366368247E+02  0.00000000000E+00 0.  1.
          1    1    6    6  503    0  0.93142886787E+02 -0.20535133380E+03 -0.23825853991E+03  0.32804252696E+03  0.00000000000E+00 0. -1.
         -1    1    6    6    0  503  0.44269863310E+02 -0.20182707922E+02 -0.98729368552E+02  0.11006657400E+03  0.00000000000E+00 0.  1.
<mgrwt>
<rscale>  0 0.14678676E+04</rscale>
<asrwt>0</asrwt>
<pdfrwt beam="1">  1        2 0.13878839E+00 0.14678676E+04</pdfrwt>
<pdfrwt beam="2">  1       -1 0.91861579E-01 0.14678676E+04</pdfrwt>
<totfact> 0.37300447E+01</totfact>
</mgrwt>
</event>
<event>
12    6  0.1402540E-007  0.1320272E+04  0.7818608E-02  0.9013642E-01
         -1   -1    0    0    0  501 -0.00000000000E+00  0.00000000000E+00  0.54001962476E+03  0.54001962476E+03  0.00000000000E+00 0.  1.
          2   -1    0    0  501    0  0.00000000000E+00 -0.00000000000E+00 -0.80696967755E+03  0.80696967755E+03  0.00000000000E+00 0. -1.
         24    2    1    2    0    0  0.11664988637E+03 -0.30974960276E+03  0.29011871304E+02  0.34103842213E+03  0.76899312696E+02 0.  0.
        254    2    1    2    0    0 -0.11664988637E+03  0.30974960276E+03 -0.29596192409E+03  0.10059508802E+04  0.90265813043E+03 0.  0.
         23    2    4    4    0    0 -0.33043562104E+03  0.17398473737E+03  0.20774523931E+03  0.43506545307E+03  0.81642363443E+02 0.  0.
         23    2    4    4    0    0  0.21378573467E+03  0.13576486538E+03 -0.50370716341E+03  0.57088542710E+03  0.89737536145E+02 0.  0.
          2    1    3    3  502    0  0.47452956075E+02 -0.17268760165E+03 -0.19182710293E+02  0.18011320657E+03  0.00000000000E+00 0. -1.
         -3    1    3    3    0  502  0.69196930295E+02 -0.13706200110E+03  0.48194581597E+02  0.16092521556E+03  0.00000000000E+00 0.  1.
         11    1    5    5    0    0 -0.30890676688E+03  0.17670228201E+03  0.17707629186E+03  0.39749603801E+03  0.00000000000E+00 0. -1.
        -11    1    5    5    0    0 -0.21528854159E+02 -0.27175446399E+01  0.30668947456E+02  0.37569415065E+02  0.00000000000E+00 0.  1.
          4    1    6    6  503    0  0.32511707481E+02  0.63625214456E+02 -0.10502605718E+03  0.12702618520E+03  0.00000000000E+00 0.  1.
         -4    1    6    6    0  503  0.18127402719E+03  0.72139650927E+02 -0.39868110622E+03  0.44385924191E+03  0.00000000000E+00 0. -1.
<mgrwt>
<rscale>  0 0.13202719E+04</rscale>
<asrwt>0</asrwt>
<pdfrwt beam="1">  1        2 0.12414918E+00 0.13202719E+04</pdfrwt>
<pdfrwt beam="2">  1       -1 0.83079942E-01 0.13202719E+04</pdfrwt>
<totfact> 0.54756596E+01</totfact>
</mgrwt>
</event>
<event>
12    6  0.1402540E-007  0.1187850E+04  0.7818608E-02  0.9123559E-01
          2   -1    0    0  501    0  0.00000000000E+00  0.00000000000E+00  0.49664577758E+03  0.49664577758E+03  0.00000000000E+00 0. -1.
         -1   -1    0    0    0  501 -0.00000000000E+00 -0.00000000000E+00 -0.71025811730E+03  0.71025811730E+03  0.00000000000E+00 0.  1.
         24    2    1    2    0    0  0.18727604982E+03 -0.15303335744E+03 -0.65984159180E+02  0.26324384518E+03  0.80323629383E+02 0.  0.
        254    2    1    2    0    0 -0.18727604982E+03  0.15303335744E+03 -0.14762818054E+03  0.94366004969E+03  0.90011592718E+03 0.  0.
         23    2    4    4    0    0 -0.25284603954E+03  0.33678067736E+03  0.24388542704E+03  0.49510878032E+03  0.91105754308E+02 0.  0.
         23    2    4    4    0    0  0.65569989719E+02 -0.18374731992E+03 -0.39151360758E+03  0.44855126937E+03  0.99261448736E+02 0.  0.
          4    1    3    3  502    0  0.15987253965E+03 -0.93085620255E+02 -0.27818594558E+02  0.18707761982E+03  0.00000000000E+00 0. -1.
         -3    1    3    3    0  502  0.27403510168E+02 -0.59947737189E+02 -0.38165564623E+02  0.76166225366E+02  0.00000000000E+00 0.  1.
         11    1    5    5    0    0 -0.18398600902E+03  0.19817288112E+03  0.11560917907E+03  0.29408982405E+03  0.00000000000E+00 0. -1.
        -11    1    5    5    0    0 -0.68860030513E+02  0.13860779625E+03  0.12827624798E+03  0.20101895627E+03  0.00000000000E+00 0.  1.
          4    1    6    6  503    0  0.68747228850E+02 -0.17905555650E+03 -0.29498705810E+03  0.35185854862E+03  0.00000000000E+00 0. -1.
         -4    1    6    6    0  503 -0.31772391313E+01 -0.46917634200E+01 -0.96526549484E+02  0.96692720759E+02  0.00000000000E+00 0.  1.
<mgrwt>
<rscale>  0 0.11878496E+04</rscale>
<asrwt>0</asrwt>
<pdfrwt beam="1">  1        2 0.76407043E-01 0.11878496E+04</pdfrwt>
<pdfrwt beam="2">  1       -1 0.10927048E+00 0.11878496E+04</pdfrwt>
<totfact> 0.54369783E+01</totfact>
</mgrwt>
</event>
<event>
12    6  0.1402540E-007  0.1907004E+04  0.7818608E-02  0.8651378E-01
          2   -1    0    0  501    0  0.00000000000E+00  0.00000000000E+00  0.19589370106E+04  0.19589370106E+04  0.00000000000E+00 0. -1.
         -1   -1    0    0    0  501 -0.00000000000E+00 -0.00000000000E+00 -0.46411177139E+03  0.46411177139E+03  0.00000000000E+00 0.  1.
         24    2    1    2    0    0  0.67733200746E+03  0.20497167458E+03  0.31622247847E+03  0.77970529852E+03  0.84567493379E+02 0.  0.
        254    2    1    2    0    0 -0.67733200746E+03 -0.20497167458E+03  0.11786027608E+04  0.16433434835E+04  0.90037842119E+03 0.  0.
         23    2    4    4    0    0 -0.54261327443E+03 -0.26529029388E+03  0.12962444142E+04  0.14330904299E+04  0.93222814333E+02 0.  0.
         23    2    4    4    0    0 -0.13471873303E+03  0.60318619295E+02 -0.11764165345E+03  0.21025305365E+03  0.92624592188E+02 0.  0.
          4    1    3    3  502    0  0.29125897247E+03  0.44643098353E+02  0.13010441244E+03  0.32210550043E+03  0.00000000000E+00 0. -1.
         -3    1    3    3    0  502  0.38607303500E+03  0.16032857623E+03  0.18611806602E+03  0.45759979809E+03  0.00000000000E+00 0.  1.
         11    1    5    5    0    0 -0.54145148411E+03 -0.25474496268E+03  0.12528154640E+04  0.13883844181E+04  0.00000000000E+00 0.  1.
        -11    1    5    5    0    0 -0.11617903223E+01 -0.10545331203E+02  0.43428950248E+02  0.44706011750E+02  0.00000000000E+00 0. -1.
          3    1    6    6  503    0 -0.13877569214E+03  0.28394884866E+02 -0.89942725875E+02  0.16779349258E+03  0.00000000000E+00 0. -1.
         -3    1    6    6    0  503  0.40569591050E+01  0.31923734429E+02 -0.27698927574E+02  0.42459561065E+02  0.00000000000E+00 0.  1.
<mgrwt>
<rscale>  0 0.19070036E+04</rscale>
<asrwt>0</asrwt>
<pdfrwt beam="1">  1        2 0.30137492E+00 0.19070036E+04</pdfrwt>
<pdfrwt beam="2">  1       -1 0.71401812E-01 0.19070036E+04</pdfrwt>
<totfact> 0.14865349E+01</totfact>
</mgrwt>
</event>
<event>
12    6  0.1402540E-007  0.2238396E+04  0.7818608E-02  0.8502615E-01
          2   -1    0    0  501    0  0.00000000000E+00  0.00000000000E+00  0.11532731653E+04  0.11532731653E+04  0.00000000000E+00 0. -1.
         -1   -1    0    0    0  501 -0.00000000000E+00 -0.00000000000E+00 -0.10861297712E+04  0.10861297712E+04  0.00000000000E+00 0.  1.
         24    2    1    2    0    0  0.92600113027E+03  0.11316638828E+03  0.11321879687E+03  0.94315605555E+03  0.80250386020E+02 0.  0.
        254    2    1    2    0    0 -0.92600113027E+03 -0.11316638828E+03 -0.46075402730E+02  0.12962468809E+04  0.89880382112E+03 0.  0.
         23    2    4    4    0    0 -0.48208447750E+03  0.34781787430E+03  0.15449772819E+03  0.62021453710E+03  0.86103466133E+02 0.  0.
         23    2    4    4    0    0 -0.44391665277E+03 -0.46098426258E+03 -0.20057313092E+03  0.67603234382E+03  0.84980374763E+02 0.  0.
          2    1    3    3  502    0  0.37077160744E+03  0.28202086272E+02  0.80854129879E+02  0.38053164504E+03  0.00000000000E+00 0. -1.
         -1    1    3    3    0  502  0.55522952283E+03  0.84964302013E+02  0.32364666991E+02  0.56262441052E+03  0.00000000000E+00 0.  1.
         11    1    5    5    0    0 -0.11535281347E+03  0.41223231677E+02  0.25822170883E+02  0.12518950002E+03  0.00000000000E+00 0. -1.
        -11    1    5    5    0    0 -0.36673166404E+03  0.30659464262E+03  0.12867555730E+03  0.49502503708E+03  0.00000000000E+00 0.  1.
          2    1    6    6  503    0 -0.40167899949E+03 -0.38845756245E+03 -0.19530816638E+03  0.59193798350E+03  0.00000000000E+00 0.  1.
         -2    1    6    6    0  503 -0.42237653276E+02 -0.72526700129E+02 -0.52649645391E+01  0.84094360319E+02  0.00000000000E+00 0. -1.
<mgrwt>
<rscale>  0 0.22383961E+04</rscale>
<asrwt>0</asrwt>
<pdfrwt beam="1">  1        2 0.17742664E+00 0.22383961E+04</pdfrwt>
<pdfrwt beam="2">  1       -1 0.16709689E+00 0.22383961E+04</pdfrwt>
<totfact> 0.54276010E+00</totfact>
</mgrwt>
</event>
<event>
12    6  0.1402540E-007  0.1240697E+04  0.7818608E-02  0.9077962E-01
          2   -1    0    0  501    0  0.00000000000E+00  0.00000000000E+00  0.29011997291E+03  0.29011997291E+03  0.00000000000E+00 0. -1.
         -1   -1    0    0    0  501 -0.00000000000E+00 -0.00000000000E+00 -0.13264582587E+04  0.13264582587E+04  0.00000000000E+00 0.  1.
         24    2    1    2    0    0  0.27398381271E+03  0.75446253862E+02 -0.27292770234E+03  0.40361172400E+03  0.87485005561E+02 0.  0.
        254    2    1    2    0    0 -0.27398381271E+03 -0.75446253862E+02 -0.76341058342E+03  0.12129665076E+04  0.89873954112E+03 0.  0.
         23    2    4    4    0    0 -0.23631235016E+03 -0.42253246670E+03 -0.17475059336E+03  0.52255424796E+03  0.90266050843E+02 0.  0.
         23    2    4    4    0    0 -0.37671462558E+02  0.34708621284E+03 -0.58865999005E+03  0.69041225961E+03  0.90887436403E+02 0.  0.
          2    1    3    3  502    0  0.25725116199E+03  0.43073672647E+02 -0.23656071616E+03  0.35212849082E+03  0.00000000000E+00 0. -1.
         -1    1    3    3    0  502  0.16732650724E+02  0.32372581215E+02 -0.36366986180E+02  0.51483233179E+02  0.00000000000E+00 0.  1.
         11    1    5    5    0    0  0.26313700869E+01 -0.47359749697E+02 -0.21661680100E+02  0.52144974682E+02  0.00000000000E+00 0.  1.
        -11    1    5    5    0    0 -0.23894372024E+03 -0.37517271700E+03 -0.15308891326E+03  0.47040927328E+03  0.00000000000E+00 0. -1.
          2    1    6    6  503    0  0.26462126339E+01  0.23008123181E+03 -0.44367122995E+03  0.49978849122E+03  0.00000000000E+00 0. -1.
         -2    1    6    6    0  503 -0.40317675192E+02  0.11700498103E+03 -0.14498876011E+03  0.19062376839E+03  0.00000000000E+00 0.  1.
<mgrwt>
<rscale>  0 0.12406966E+04</rscale>
<asrwt>0</asrwt>
<pdfrwt beam="1">  1        2 0.44633842E-01 0.12406966E+04</pdfrwt>
<pdfrwt beam="2">  1       -1 0.20407050E+00 0.12406966E+04</pdfrwt>
<totfact> 0.18139785E+01</totfact>
</mgrwt>
</event>
<event>
12    6  0.1402540E-007  0.1606926E+04  0.7818608E-02  0.8816304E-01
         -1   -1    0    0    0  501 -0.00000000000E+00  0.00000000000E+00  0.12587936352E+04  0.12587936352E+04  0.00000000000E+00 0.  1.
          2   -1    0    0  501    0  0.00000000000E+00 -0.00000000000E+00 -0.51283450832E+03  0.51283450832E+03  0.00000000000E+00 0. -1.
         24    2    1    2    0    0  0.12877048331E+02 -0.48330737553E+03 -0.32637876018E+02  0.49124063795E+03  0.80624411941E+02 0.  0.
        254    2    1    2    0    0 -0.12877048331E+02  0.48330737553E+03  0.77859700286E+03  0.12803875055E+04  0.89410683581E+03 0.  0.
         23    2    4    4    0    0  0.15709169653E+02  0.66997274921E+03  0.26654477578E+03  0.72697281733E+03  0.91285798200E+02 0.  0.
         23    2    4    4    0    0 -0.28586217984E+02 -0.18666537367E+03  0.51205222708E+03  0.55341468820E+03  0.91701691743E+02 0.  0.
          2    1    3    3  502    0 -0.96753481116E+01 -0.42073093635E+03 -0.46152348017E+02  0.42336529426E+03  0.00000000000E+00 0. -1.
         -1    1    3    3    0  502  0.22552396443E+02 -0.62576439187E+02  0.13514471999E+02  0.67875343683E+02  0.00000000000E+00 0.  1.
         11    1    5    5    0    0  0.32495580534E+02  0.59868859826E+03  0.21311194809E+03  0.63631808308E+03  0.00000000000E+00 0. -1.
        -11    1    5    5    0    0 -0.16786410881E+02  0.71284150945E+02  0.53432827692E+02  0.90654734247E+02  0.00000000000E+00 0.  1.
          1    1    6    6  503    0  0.13272002698E+02 -0.12778341726E+03  0.39970774875E+03  0.41984643883E+03  0.00000000000E+00 0. -1.
         -1    1    6    6    0  503 -0.41858220682E+02 -0.58881956411E+02  0.11234447833E+03  0.13356824937E+03  0.00000000000E+00 0.  1.
<mgrwt>
<rscale>  0 0.16069260E+04</rscale>
<asrwt>0</asrwt>
<pdfrwt beam="1">  1        2 0.78897617E-01 0.16069260E+04</pdfrwt>
<pdfrwt beam="2">  1       -1 0.19366056E+00 0.16069260E+04</pdfrwt>
<totfact> 0.10907065E+01</totfact>
</mgrwt>
</event>
<event>
12    6  0.1402540E-007  0.1215417E+04  0.7818608E-02  0.9099468E-01
         -1   -1    0    0    0  501 -0.00000000000E+00  0.00000000000E+00  0.18283458861E+03  0.18283458861E+03  0.00000000000E+00 0.  1.
          2   -1    0    0  501    0  0.00000000000E+00 -0.00000000000E+00 -0.20199116272E+04  0.20199116272E+04  0.00000000000E+00 0. -1.
         24    2    1    2    0    0 -0.11623372937E+03 -0.23330606852E+03 -0.37621113462E+03  0.46453935004E+03  0.79498355147E+02 0.  0.
        254    2    1    2    0    0  0.11623372937E+03  0.23330606852E+03 -0.14608659040E+04  0.17382068658E+04  0.90514745615E+03 0.  0.
         23    2    4    4    0    0 -0.16920617781E+03 -0.25768939642E+03 -0.28679148014E+03  0.43061915036E+03  0.90271501248E+02 0.  0.
         23    2    4    4    0    0  0.28543990718E+03  0.49099546494E+03 -0.11740744238E+04  0.13075877154E+04  0.93714425745E+02 0.  0.
          4    1    3    3  502    0 -0.12036168563E+03 -0.18880042889E+03 -0.33956951829E+03  0.40674315614E+03  0.00000000000E+00 0. -1.
         -3    1    3    3    0  502  0.41279562625E+01 -0.44505639631E+02 -0.36641616338E+02  0.57796193904E+02  0.00000000000E+00 0.  1.
         11    1    5    5    0    0 -0.65741803078E+02 -0.13025280424E+03 -0.79341178456E+02  0.16608070413E+03  0.00000000000E+00 0.  1.
        -11    1    5    5    0    0 -0.10346437473E+03 -0.12743659218E+03 -0.20745030169E+03  0.26453844623E+03  0.00000000000E+00 0. -1.
          2    1    6    6  503    0  0.41897865335E+02  0.26100648169E+02 -0.77382704675E+02  0.91786480144E+02  0.00000000000E+00 0. -1.
         -2    1    6    6    0  503  0.24354204184E+03  0.46489481677E+03 -0.10966917191E+04  0.12158012353E+04  0.00000000000E+00 0.  1.
<mgrwt>
<rscale>  0 0.12154171E+04</rscale>
<asrwt>0</asrwt>
<pdfrwt beam="1">  1        2 0.31075562E+00 0.12154171E+04</pdfrwt>
<pdfrwt beam="2">  1       -1 0.28128400E-01 0.12154171E+04</pdfrwt>
<totfact> 0.83649725E+01</totfact>
</mgrwt>
</event>
<event>
12    6  0.1402540E-007  0.1629079E+04  0.7818608E-02  0.8802880E-01
          2   -1    0    0  501    0  0.00000000000E+00  0.00000000000E+00  0.13141661712E+04  0.13141661712E+04  0.00000000000E+00 0. -1.
         -3   -1    0    0    0  501 -0.00000000000E+00 -0.00000000000E+00 -0.50486327551E+03  0.50486327551E+03  0.00000000000E+00 0.  1.
         24    2    1    2    0    0  0.51758029072E+03  0.18382490263E+03  0.14769284089E+03  0.57456527309E+03  0.81431723751E+02 0.  0.
        254    2    1    2    0    0 -0.51758029072E+03 -0.18382490263E+03  0.66161005478E+03  0.12444641736E+04  0.89960116865E+03 0.  0.
         23    2    4    4    0    0 -0.34402695098E+03  0.52890463506E+02  0.82286961658E+03  0.89778990446E+03  0.88092919829E+02 0.  0.
         23    2    4    4    0    0 -0.17355333973E+03 -0.23671536613E+03 -0.16125956180E+03  0.34667426914E+03  0.89573859566E+02 0.  0.
          4    1    3    3  502    0  0.98735266103E+02  0.29040736707E+01  0.19981093620E+02  0.10077862134E+03  0.00000000000E+00 0. -1.
         -3    1    3    3    0  502  0.41884502461E+03  0.18092082896E+03  0.12771174727E+03  0.47378665176E+03  0.00000000000E+00 0.  1.
         11    1    5    5    0    0 -0.31345746549E+03  0.26843093121E+02  0.76672061216E+03  0.82875607474E+03  0.00000000000E+00 0. -1.
        -11    1    5    5    0    0 -0.30569485496E+02  0.26047370385E+02  0.56149004427E+02  0.69033829718E+02  0.00000000000E+00 0.  1.
          3    1    6    6  503    0 -0.97497637178E+02 -0.61711998716E+02 -0.49658542189E+02  0.12561899081E+03  0.00000000000E+00 0. -1.
         -3    1    6    6    0  503 -0.76055702553E+02 -0.17500336742E+03 -0.11160101961E+03  0.22105527833E+03  0.00000000000E+00 0.  1.
<mgrwt>
<rscale>  0 0.16290786E+04</rscale>
<asrwt>0</asrwt>
<pdfrwt beam="1">  1        2 0.20217941E+00 0.16290786E+04</pdfrwt>
<pdfrwt beam="2">  1       -3 0.77671274E-01 0.16290786E+04</pdfrwt>
<totfact> 0.15350480E+01</totfact>
</mgrwt>
</event>
<event>
12    6  0.1402540E-007  0.1633604E+04  0.7818608E-02  0.8800166E-01
         -1   -1    0    0    0  501 -0.00000000000E+00  0.00000000000E+00  0.10633298164E+04  0.10633298164E+04  0.00000000000E+00 0.  1.
          2   -1    0    0  501    0  0.00000000000E+00 -0.00000000000E+00 -0.62743056107E+03  0.62743056107E+03  0.00000000000E+00 0. -1.
         24    2    1    2    0    0  0.20293870666E+03  0.52917298278E+03  0.13965095636E+03  0.58903988372E+03  0.79103922974E+02 0.  0.
        254    2    1    2    0    0 -0.20293870666E+03 -0.52917298278E+03  0.29624829893E+03  0.11017204937E+04  0.89711583827E+03 0.  0.
         23    2    4    4    0    0  0.10423865325E+03  0.56809328040E+02  0.39890305435E+03  0.42603956811E+03  0.91066295841E+02 0.  0.
         23    2    4    4    0    0 -0.30717735991E+03 -0.58598231082E+03 -0.10265475543E+03  0.67568092560E+03  0.90958866423E+02 0.  0.
          2    1    3    3  502    0  0.12618953921E+03  0.37236874965E+03  0.62231845223E+02  0.39806417583E+03  0.00000000000E+00 0. -1.
         -1    1    3    3    0  502  0.76749167456E+02  0.15680423313E+03  0.77419111137E+02  0.19097570789E+03  0.00000000000E+00 0.  1.
         11    1    5    5    0    0  0.20846078930E+02 -0.86899915920E+01  0.19412966079E+03  0.19543899344E+03  0.00000000000E+00 0. -1.
        -11    1    5    5    0    0  0.83392574315E+02  0.65499319632E+02  0.20477339357E+03  0.23060057467E+03  0.00000000000E+00 0.  1.
          4    1    6    6  503    0 -0.22839022318E+02 -0.75969488497E+02 -0.38715827676E+02  0.88271736335E+02  0.00000000000E+00 0. -1.
         -4    1    6    6    0  503 -0.28433833759E+03 -0.51001282232E+03 -0.63938927749E+02  0.58740918927E+03  0.00000000000E+00 0.  1.
<mgrwt>
<rscale>  0 0.16336041E+04</rscale>
<asrwt>0</asrwt>
<pdfrwt beam="1">  1        2 0.96527778E-01 0.16336041E+04</pdfrwt>
<pdfrwt beam="2">  1       -1 0.16358920E+00 0.16336041E+04</pdfrwt>
<totfact> 0.14090012E+01</totfact>
</mgrwt>
</event>
<event>
12    6  0.1402540E-007  0.2242777E+04  0.7818608E-02  0.8500831E-01
         -1   -1    0    0    0  501 -0.00000000000E+00  0.00000000000E+00  0.31709620598E+03  0.31709620598E+03  0.00000000000E+00 0.  1.
          2   -1    0    0  501    0  0.00000000000E+00 -0.00000000000E+00 -0.39657124217E+04  0.39657124217E+04  0.00000000000E+00 0. -1.
         24    2    1    2    0    0 -0.27817117007E+03 -0.87275948828E+03 -0.11412691903E+04  0.14655733609E+04  0.79508409051E+02 0.  0.
        254    2    1    2    0    0  0.27817117007E+03  0.87275948828E+03 -0.25073470254E+04  0.28172352668E+04  0.90052047086E+03 0.  0.
         23    2    4    4    0    0 -0.27866593780E+03  0.23427645887E+03 -0.11921183626E+04  0.12501145166E+04  0.95393658271E+02 0.  0.
         23    2    4    4    0    0  0.55683710787E+03  0.63848302942E+03 -0.13152286628E+04  0.15671207502E+04  0.91174923960E+02 0.  0.
          4    1    3    3  502    0 -0.17019147887E+03 -0.64919369791E+03 -0.84007395797E+03  0.10752403693E+04  0.00000000000E+00 0. -1.
         -3    1    3    3    0  502 -0.10797969121E+03 -0.22356579037E+03 -0.30119523231E+03  0.39033299156E+03  0.00000000000E+00 0.  1.
         11    1    5    5    0    0 -0.99329889722E+02  0.95156057793E+02 -0.30788382509E+03  0.33721440076E+03  0.00000000000E+00 0.  1.
        -11    1    5    5    0    0 -0.17933604808E+03  0.13912040107E+03 -0.88423453751E+03  0.91290011581E+03  0.00000000000E+00 0. -1.
          1    1    6    6  503    0  0.35523986447E+03  0.41008121268E+03 -0.75973201533E+03  0.93357093861E+03  0.00000000000E+00 0. -1.
         -1    1    6    6    0  503  0.20159724340E+03  0.22840181673E+03 -0.55549664750E+03  0.63354981163E+03  0.00000000000E+00 0.  1.
<mgrwt>
<rscale>  0 0.22427772E+04</rscale>
<asrwt>0</asrwt>
<pdfrwt beam="1">  1        2 0.61010956E+00 0.22427772E+04</pdfrwt>
<pdfrwt beam="2">  1       -1 0.48784035E-01 0.22427772E+04</pdfrwt>
<totfact> 0.15993856E+00</totfact>
</mgrwt>
</event>
<event>
12    6  0.1402540E-007  0.1505081E+04  0.7818608E-02  0.8881081E-01
         -1   -1    0    0    0  501 -0.00000000000E+00  0.00000000000E+00  0.22342237557E+03  0.22342237557E+03  0.00000000000E+00 0.  1.
          2   -1    0    0  501    0  0.00000000000E+00 -0.00000000000E+00 -0.25347365081E+04  0.25347365081E+04  0.00000000000E+00 0. -1.
         24    2    1    2    0    0  0.19167972295E+03  0.28540145271E+03 -0.13553749278E+04  0.14005757472E+04  0.79850630597E+02 0.  0.
        254    2    1    2    0    0 -0.19167972295E+03 -0.28540145271E+03 -0.95593920472E+03  0.13575831365E+04  0.90056488052E+03 0.  0.
         23    2    4    4    0    0 -0.22274375956E+03 -0.39065011357E+03 -0.10764229917E+04  0.11704525575E+04  0.95133793872E+02 0.  0.
         23    2    4    4    0    0  0.31064036608E+02  0.10524866085E+03  0.12048378694E+03  0.18713057901E+03  0.91974212155E+02 0.  0.
          4    1    3    3  502    0  0.78447522006E+02  0.56045887614E+02 -0.41306861274E+03  0.42417076050E+03  0.00000000000E+00 0. -1.
         -3    1    3    3    0  502  0.11323220095E+03  0.22935556510E+03 -0.94230631508E+03  0.97640498668E+03  0.00000000000E+00 0.  1.
         11    1    5    5    0    0 -0.10941537663E+02 -0.76560708634E+02 -0.13363604124E+03  0.15440158960E+03  0.00000000000E+00 0. -1.
        -11    1    5    5    0    0 -0.21180222190E+03 -0.31408940493E+03 -0.94278695042E+03  0.10160509679E+04  0.00000000000E+00 0.  1.
          1    1    6    6  503    0 -0.13688312070E+02  0.29210673069E+02 -0.61016216560E+01  0.32830825382E+02  0.00000000000E+00 0. -1.
         -1    1    6    6    0  503  0.44752348677E+02  0.76037987785E+02  0.12658540860E+03  0.15429975363E+03  0.00000000000E+00 0.  1.
<mgrwt>
<rscale>  0 0.15050805E+04</rscale>
<asrwt>0</asrwt>
<pdfrwt beam="1">  1        2 0.38995948E+00 0.15050805E+04</pdfrwt>
<pdfrwt beam="2">  1       -1 0.34372672E-01 0.15050805E+04</pdfrwt>
<totfact> 0.29384822E+01</totfact>
</mgrwt>
</event>
<event>
12    6  0.1402540E-007  0.1857516E+04  0.7818608E-02  0.8676297E-01
         -1   -1    0    0    0  501 -0.00000000000E+00  0.00000000000E+00  0.44779127469E+03  0.44779127469E+03  0.00000000000E+00 0.  1.
          2   -1    0    0  501    0  0.00000000000E+00 -0.00000000000E+00 -0.19263245874E+04  0.19263245874E+04  0.00000000000E+00 0. -1.
         24    2    1    2    0    0  0.66809359055E+03  0.23174466104E+03 -0.61601961130E+03  0.94097989752E+03  0.76865937675E+02 0.  0.
        254    2    1    2    0    0 -0.66809359055E+03 -0.23174466104E+03 -0.86251370143E+03  0.14331359646E+04  0.89994120598E+03 0.  0.
         23    2    4    4    0    0 -0.16262360668E+03 -0.12856951726E+02  0.17270595682E+03  0.25714200644E+03  0.98401856179E+02 0.  0.
         23    2    4    4    0    0 -0.50546998387E+03 -0.21888770931E+03 -0.10352196583E+04  0.11759939582E+04  0.88714795273E+02 0.  0.
          2    1    3    3  502    0  0.15397376284E+03  0.25183355913E+02 -0.11305152703E+03  0.19267269869E+03  0.00000000000E+00 0. -1.
         -1    1    3    3    0  502  0.51411982771E+03  0.20656130512E+03 -0.50296808427E+03  0.74830719883E+03  0.00000000000E+00 0.  1.
         11    1    5    5    0    0 -0.10701546607E+03 -0.54789427254E+02  0.99051918935E+02  0.15577379099E+03  0.00000000000E+00 0.  1.
        -11    1    5    5    0    0 -0.55608140609E+02  0.41932475527E+02  0.73654037888E+02  0.10136821545E+03  0.00000000000E+00 0. -1.
          2    1    6    6  503    0 -0.34035939768E+03 -0.17899922786E+03 -0.65478112224E+03  0.75935733433E+03  0.00000000000E+00 0. -1.
         -2    1    6    6    0  503 -0.16511058619E+03 -0.39888481447E+02 -0.38043853602E+03  0.41663662382E+03  0.00000000000E+00 0.  1.
<mgrwt>
<rscale>  0 0.18575159E+04</rscale>
<asrwt>0</asrwt>
<pdfrwt beam="1">  1        2 0.29635762E+00 0.18575159E+04</pdfrwt>
<pdfrwt beam="2">  1       -1 0.68890967E-01 0.18575159E+04</pdfrwt>
<totfact> 0.16751265E+01</totfact>
</mgrwt>
</event>
<event>
12    6  0.1402540E-007  0.1455742E+04  0.7818608E-02  0.8914429E-01
         -1   -1    0    0    0  501 -0.00000000000E+00  0.00000000000E+00  0.33230888790E+03  0.33230888790E+03  0.00000000000E+00 0.  1.
          2   -1    0    0  501    0  0.00000000000E+00 -0.00000000000E+00 -0.15942891518E+04  0.15942891518E+04  0.00000000000E+00 0. -1.
         24    2    1    2    0    0  0.34293819043E+03 -0.48847476858E+02 -0.75849030237E+03  0.83760862712E+03  0.79296878806E+02 0.  0.
        254    2    1    2    0    0 -0.34293819043E+03  0.48847476858E+02 -0.50348996156E+03  0.10889894126E+04  0.90133407843E+03 0.  0.
         23    2    4    4    0    0 -0.31765109746E+03  0.44632006235E+03 -0.32142107235E+03  0.64127987746E+03  0.88456530076E+02 0.  0.
         23    2    4    4    0    0 -0.25287092970E+02 -0.39747258549E+03 -0.18206888921E+03  0.44770953516E+03  0.93117421384E+02 0.  0.
          2    1    3    3  502    0  0.25311456550E+03 -0.17506363492E+02 -0.61678038196E+03  0.66692690425E+03  0.00000000000E+00 0. -1.
         -1    1    3    3    0  502  0.89823624927E+02 -0.31341113366E+02 -0.14170992041E+03  0.17068172288E+03  0.00000000000E+00 0.  1.
         11    1    5    5    0    0 -0.28037154893E+03  0.42269080937E+03 -0.27401121673E+03  0.57650487653E+03  0.00000000000E+00 0.  1.
        -11    1    5    5    0    0 -0.37279548534E+02  0.23629252977E+02 -0.47409855618E+02  0.64775000925E+02  0.00000000000E+00 0. -1.
          2    1    6    6  503    0 -0.49824860818E+02 -0.20271659672E+03 -0.12488319666E+03  0.24325367037E+03  0.00000000000E+00 0.  1.
         -2    1    6    6    0  503  0.24537767848E+02 -0.19475598877E+03 -0.57185692553E+02  0.20445586478E+03  0.00000000000E+00 0. -1.
<mgrwt>
<rscale>  0 0.14557424E+04</rscale>
<asrwt>0</asrwt>
<pdfrwt beam="1">  1        2 0.24527526E+00 0.14557424E+04</pdfrwt>
<pdfrwt beam="2">  1       -1 0.51124444E-01 0.14557424E+04</pdfrwt>
<totfact> 0.47727548E+01</totfact>
</mgrwt>
</event>
<event>
12    6  0.1402540E-007  0.2544900E+04  0.7818608E-02  0.8387162E-01
          2   -1    0    0  501    0  0.00000000000E+00  0.00000000000E+00  0.90140719902E+03  0.90140719902E+03  0.00000000000E+00 0. -1.
         -1   -1    0    0    0  501 -0.00000000000E+00 -0.00000000000E+00 -0.17962240400E+04  0.17962240400E+04  0.00000000000E+00 0.  1.
         24    2    1    2    0    0 -0.15349487614E+03  0.10984780142E+04 -0.33469946008E+03  0.11612738826E+04  0.79490106931E+02 0.  0.
        254    2    1    2    0    0  0.15349487614E+03 -0.10984780142E+04 -0.56011738093E+03  0.15363573564E+04  0.90357502262E+03 0.  0.
         23    2    4    4    0    0 -0.84726800261E+02 -0.11998392618E+03 -0.49313558848E+03  0.52279775768E+03  0.92520341482E+02 0.  0.
         23    2    4    4    0    0  0.23822167640E+03 -0.97849408806E+03 -0.66981792446E+02  0.10135595988E+04  0.92823769788E+02 0.  0.
          4    1    3    3  502    0 -0.23602415811E+02  0.20072779216E+03 -0.29751887160E+02  0.20428875487E+03  0.00000000000E+00 0. -1.
         -3    1    3    3    0  502 -0.12989246033E+03  0.89775022208E+03 -0.30494757292E+03  0.95698512775E+03  0.00000000000E+00 0.  1.
         11    1    5    5    0    0 -0.33401101894E+02 -0.64752067029E+02 -0.37945149081E+03  0.38638309702E+03  0.00000000000E+00 0.  1.
        -11    1    5    5    0    0 -0.51325698367E+02 -0.55231859152E+02 -0.11368409768E+03  0.13641466066E+03  0.00000000000E+00 0. -1.
          3    1    6    6  503    0  0.14939889023E+03 -0.44047177888E+03 -0.52383975789E+02  0.46805928824E+03  0.00000000000E+00 0. -1.
         -3    1    6    6    0  503  0.88822786167E+02 -0.53802230918E+03 -0.14597816657E+02  0.54550031051E+03  0.00000000000E+00 0.  1.
<mgrwt>
<rscale>  0 0.25449002E+04</rscale>
<asrwt>0</asrwt>
<pdfrwt beam="1">  1        2 0.13867803E+00 0.25449002E+04</pdfrwt>
<pdfrwt beam="2">  1       -1 0.27634216E+00 0.25449002E+04</pdfrwt>
<totfact> 0.13933305E+00</totfact>
</mgrwt>
</event>
<event>
12    6  0.1402540E-007  0.2195172E+04  0.7818608E-02  0.8520440E-01
          2   -1    0    0  501    0  0.00000000000E+00  0.00000000000E+00  0.16267174006E+04  0.16267174006E+04  0.00000000000E+00 0. -1.
         -1   -1    0    0    0  501 -0.00000000000E+00 -0.00000000000E+00 -0.74056807633E+03  0.74056807633E+03  0.00000000000E+00 0.  1.
         24    2    1    2    0    0  0.22254453200E+03 -0.83217286399E+03  0.68817234441E+03  0.11057467190E+04  0.84005277607E+02 0.  0.
        254    2    1    2    0    0 -0.22254453200E+03  0.83217286399E+03  0.19797697987E+03  0.12615387579E+04  0.90013743892E+03 0.  0.
         23    2    4    4    0    0 -0.11213296989E+03 -0.85654581998E+02 -0.19106917574E+03  0.25437987540E+03  0.91055920924E+02 0.  0.
         23    2    4    4    0    0 -0.11041156211E+03  0.91782744599E+03  0.38904615561E+03  0.10071588825E+04  0.91728784079E+02 0.  0.
          4    1    3    3  502    0  0.14323227502E+03 -0.45090786936E+03  0.42275212191E+03  0.63447044678E+03  0.00000000000E+00 0. -1.
         -3    1    3    3    0  502  0.79312256986E+02 -0.38126499463E+03  0.26542022250E+03  0.47127627222E+03  0.00000000000E+00 0.  1.
         11    1    5    5    0    0 -0.11232747421E+03 -0.38410852059E+02 -0.15331877153E+03  0.19390590688E+03  0.00000000000E+00 0.  1.
        -11    1    5    5    0    0  0.19450432029E+00 -0.47243729939E+02 -0.37750404210E+02  0.60473968519E+02  0.00000000000E+00 0. -1.
          1    1    6    6  503    0 -0.34179933998E+02  0.36207117567E+03  0.10587764841E+03  0.37877946165E+03  0.00000000000E+00 0. -1.
         -1    1    6    6    0  503 -0.76231628116E+02  0.55575627032E+03  0.28316850720E+03  0.62837942089E+03  0.00000000000E+00 0.  1.
<mgrwt>
<rscale>  0 0.21951720E+04</rscale>
<asrwt>0</asrwt>
<pdfrwt beam="1">  1        2 0.25026421E+00 0.21951720E+04</pdfrwt>
<pdfrwt beam="2">  1       -1 0.11393355E+00 0.21951720E+04</pdfrwt>
<totfact> 0.78763180E+00</totfact>
</mgrwt>
</event>
<event>
12    6  0.1402540E-007  0.4540277E+04  0.7818608E-02  0.7903623E-01
         -1   -1    0    0    0  501 -0.00000000000E+00  0.00000000000E+00  0.18319857240E+04  0.18319857240E+04  0.00000000000E+00 0.  1.
          2   -1    0    0  501    0  0.00000000000E+00 -0.00000000000E+00 -0.28130840362E+04  0.28130840362E+04  0.00000000000E+00 0. -1.
         24    2    1    2    0    0  0.10062939955E+04  0.18733195193E+04  0.20869818469E+02  0.21283141763E+04  0.85627431874E+02 0.  0.
        254    2    1    2    0    0 -0.10062939955E+04 -0.18733195193E+04 -0.10019681307E+04  0.25167555840E+04  0.89897992630E+03 0.  0.
         23    2    4    4    0    0 -0.36516475357E+03 -0.11433782992E+03 -0.36737318699E+03  0.53782439168E+03  0.88733202119E+02 0.  0.
         23    2    4    4    0    0 -0.64112924189E+03 -0.17589816893E+04 -0.63459494371E+03  0.19789311923E+04  0.91622229661E+02 0.  0.
          4    1    3    3  502    0  0.20240058632E+03  0.44307004468E+03 -0.12828355747E+02  0.48727982571E+03  0.00000000000E+00 0. -1.
         -3    1    3    3    0  502  0.80389340914E+03  0.14302494746E+04  0.33698174216E+02  0.16410343506E+04  0.00000000000E+00 0.  1.
         11    1    5    5    0    0 -0.11222021174E+03 -0.69646286635E+02 -0.16157440395E+03  0.20868701248E+03  0.00000000000E+00 0. -1.
        -11    1    5    5    0    0 -0.25294454183E+03 -0.44691543288E+02 -0.20579878304E+03  0.32913737920E+03  0.00000000000E+00 0.  1.
          1    1    6    6  503    0 -0.12183673851E+03 -0.29103418203E+03 -0.74647779963E+02  0.32421810100E+03  0.00000000000E+00 0. -1.
         -1    1    6    6    0  503 -0.51929250337E+03 -0.14679475073E+04 -0.55994716375E+03  0.16547130913E+04  0.00000000000E+00 0.  1.
<mgrwt>
<rscale>  0 0.45402774E+04</rscale>
<asrwt>0</asrwt>
<pdfrwt beam="1">  1        2 0.43278216E+00 0.45402774E+04</pdfrwt>
<pdfrwt beam="2">  1       -1 0.28184396E+00 0.45402774E+04</pdfrwt>
<totfact> 0.84367546E-02</totfact>
</mgrwt>
</event>
<event>
12    6  0.1402540E-007  0.3164839E+04  0.7818608E-02  0.8198165E-01
         -1   -1    0    0    0  501 -0.00000000000E+00  0.00000000000E+00  0.13811954352E+04  0.13811954352E+04  0.00000000000E+00 0.  1.
          2   -1    0    0  501    0  0.00000000000E+00 -0.00000000000E+00 -0.18129592694E+04  0.18129592694E+04  0.00000000000E+00 0. -1.
         24    2    1    2    0    0 -0.33258707447E+03 -0.14099903869E+04 -0.80300782968E+02  0.14531174995E+04  0.80094933971E+02 0.  0.
        254    2    1    2    0    0  0.33258707447E+03  0.14099903869E+04 -0.35146305124E+03  0.17410372050E+04  0.89944272728E+03 0.  0.
         23    2    4    4    0    0 -0.27390483807E+03  0.22811049821E+03 -0.13583233823E+03  0.39220981064E+03  0.91213221312E+02 0.  0.
         23    2    4    4    0    0  0.60649191254E+03  0.11818798887E+04 -0.21563071301E+03  0.13488273944E+04  0.90367163277E+02 0.  0.
          2    1    3    3  502    0 -0.15511556760E+03 -0.53992224554E+03 -0.59327057348E+02  0.56488633394E+03  0.00000000000E+00 0. -1.
         -1    1    3    3    0  502 -0.17747150687E+03 -0.87006814136E+03 -0.20973725621E+02  0.88823116559E+03  0.00000000000E+00 0.  1.
         11    1    5    5    0    0 -0.11976340495E+03  0.15062240178E+03 -0.96443401161E+02  0.21524802139E+03  0.00000000000E+00 0.  1.
        -11    1    5    5    0    0 -0.15414143312E+03  0.77488096425E+02 -0.39388937070E+02  0.17696178925E+03  0.00000000000E+00 0. -1.
          3    1    6    6  503    0  0.55938268432E+03  0.11300161194E+04 -0.21266664439E+03  0.12786995422E+04  0.00000000000E+00 0. -1.
         -3    1    6    6    0  503  0.47109228224E+02  0.51863769315E+02 -0.29640686146E+01  0.70127852200E+02  0.00000000000E+00 0.  1.
<mgrwt>
<rscale>  0 0.31648387E+04</rscale>
<asrwt>0</asrwt>
<pdfrwt beam="1">  1        2 0.27891681E+00 0.31648387E+04</pdfrwt>
<pdfrwt beam="2">  1       -1 0.21249161E+00 0.31648387E+04</pdfrwt>
<totfact> 0.10084758E+00</totfact>
</mgrwt>
</event>
<event>
12    6  0.1402540E-007  0.1366096E+04  0.7818608E-02  0.8978732E-01
         -1   -1    0    0    0  501 -0.00000000000E+00  0.00000000000E+00  0.12552398135E+04  0.12552398135E+04  0.00000000000E+00 0.  1.
          2   -1    0    0  501    0  0.00000000000E+00 -0.00000000000E+00 -0.37168571498E+03  0.37168571498E+03  0.00000000000E+00 0. -1.
         24    2    1    2    0    0  0.35637597333E+03 -0.53893073763E+02  0.39912838451E+03  0.54345578728E+03  0.78309818256E+02 0.  0.
        254    2    1    2    0    0 -0.35637597333E+03  0.53893073763E+02  0.48442571403E+03  0.10834697412E+04  0.89962776190E+03 0.  0.
         23    2    4    4    0    0 -0.61935716514E+03 -0.10219976845E+03  0.41037859347E+03  0.75568813944E+03  0.92767900878E+02 0.  0.
         23    2    4    4    0    0  0.26298119181E+03  0.15609284221E+03  0.74047120565E+02  0.32778160179E+03  0.91835286124E+02 0.  0.
          4    1    3    3  502    0  0.31361410876E+03 -0.32510804158E+02  0.30918410738E+03  0.44159435442E+03  0.00000000000E+00 0. -1.
         -1    1    3    3    0  502  0.42761864575E+02 -0.21382269606E+02  0.89944277131E+02  0.10186143286E+03  0.00000000000E+00 0.  1.
         11    1    5    5    0    0 -0.24176527044E+03  0.47386983888E+01  0.16770481194E+03  0.29427505025E+03  0.00000000000E+00 0. -1.
        -11    1    5    5    0    0 -0.37759189470E+03 -0.10693846684E+03  0.24267378152E+03  0.46141308919E+03  0.00000000000E+00 0.  1.
          1    1    6    6  503    0  0.21007011948E+03  0.15096582777E+03  0.33344157188E+02  0.26082938690E+03  0.00000000000E+00 0. -1.
         -1    1    6    6    0  503  0.52911072325E+02  0.51270144470E+01  0.40702963377E+02  0.66952214895E+02  0.00000000000E+00 0.  1.
<mgrwt>
<rscale>  0 0.13660962E+04</rscale>
<asrwt>0</asrwt>
<pdfrwt beam="1">  1        2 0.57182418E-01 0.13660962E+04</pdfrwt>
<pdfrwt beam="2">  1       -1 0.19311382E+00 0.13660962E+04</pdfrwt>
<totfact> 0.16207647E+01</totfact>
</mgrwt>
</event>
<event>
12    6  0.1402540E-007  0.1307295E+04  0.7818608E-02  0.9023800E-01
         -1   -1    0    0    0  501 -0.00000000000E+00  0.00000000000E+00  0.14302839096E+03  0.14302839096E+03  0.00000000000E+00 0.  1.
          2   -1    0    0  501    0  0.00000000000E+00 -0.00000000000E+00 -0.29872057932E+04  0.29872057932E+04  0.00000000000E+00 0. -1.
         24    2    1    2    0    0  0.23342636761E+01 -0.33622650675E+03 -0.80903967222E+03  0.87970486888E+03  0.79257507414E+02 0.  0.
        254    2    1    2    0    0 -0.23342636761E+01  0.33622650675E+03 -0.20351377300E+04  0.22505293153E+04  0.90002383645E+03 0.  0.
         23    2    4    4    0    0 -0.33961116310E+02 -0.21237293948E+03 -0.13492840154E+03  0.27044421972E+03  0.93159967759E+02 0.  0.
         23    2    4    4    0    0  0.31626852634E+02  0.54859944623E+03 -0.19002093285E+04  0.19800850956E+04  0.89330193222E+02 0.  0.
          2    1    3    3  502    0 -0.85422552801E+00 -0.51903021639E+02 -0.21418110555E+03  0.22038193967E+03  0.00000000000E+00 0. -1.
         -1    1    3    3    0  502  0.31884892041E+01 -0.28432348511E+03 -0.59485856666E+03  0.65932292921E+03  0.00000000000E+00 0.  1.
         11    1    5    5    0    0  0.71535524818E+01 -0.69288132562E+02 -0.92208714764E+02  0.11556152346E+03  0.00000000000E+00 0. -1.
        -11    1    5    5    0    0 -0.41114668792E+02 -0.14308480692E+03 -0.42719686775E+02  0.15488269626E+03  0.00000000000E+00 0.  1.
          2    1    6    6  503    0  0.32435849006E+02  0.69461303356E+02 -0.30376498324E+03  0.31328919868E+03  0.00000000000E+00 0.  1.
         -2    1    6    6    0  503 -0.80899637170E+00  0.47913814288E+03 -0.15964443452E+04  0.16667958969E+04  0.00000000000E+00 0. -1.
<mgrwt>
<rscale>  0 0.13072953E+04</rscale>
<asrwt>0</asrwt>
<pdfrwt beam="1">  1        2 0.45957012E+00 0.13072953E+04</pdfrwt>
<pdfrwt beam="2">  1       -1 0.22004368E-01 0.13072953E+04</pdfrwt>
<totfact> 0.34843194E+01</totfact>
</mgrwt>
</event>
<event>
12    6  0.1402540E-007  0.1480178E+04  0.7818608E-02  0.8897743E-01
         -1   -1    0    0    0  501 -0.00000000000E+00  0.00000000000E+00  0.30986874239E+03  0.30986874239E+03  0.00000000000E+00 0.  1.
          2   -1    0    0  501    0  0.00000000000E+00 -0.00000000000E+00 -0.17676239694E+04  0.17676239694E+04  0.00000000000E+00 0. -1.
         24    2    1    2    0    0  0.35041870753E+03 -0.11694319432E+03 -0.68752176245E+02  0.38601318018E+03  0.88376084156E+02 0.  0.
        254    2    1    2    0    0 -0.35041870753E+03  0.11694319432E+03 -0.13890030508E+04  0.16914795317E+04  0.89179849156E+03 0.  0.
         23    2    4    4    0    0 -0.62102507836E+03  0.19277667756E+03 -0.10537852717E+04  0.12422171792E+04  0.99020836634E+02 0.  0.
         23    2    4    4    0    0  0.27060637083E+03 -0.75833483246E+02 -0.33521777908E+03  0.44926235243E+03  0.10240691763E+03 0.  0.
          4    1    3    3  502    0  0.24506479411E+03 -0.75026294484E+02 -0.88051877539E+02  0.27099599870E+03  0.00000000000E+00 0. -1.
         -3    1    3    3    0  502  0.10535391342E+03 -0.41916899834E+02  0.19299701293E+02  0.11501718147E+03  0.00000000000E+00 0.  1.
         11    1    5    5    0    0 -0.31287434866E+03  0.66774298205E+02 -0.44077406483E+03  0.54463835816E+03  0.00000000000E+00 0. -1.
        -11    1    5    5    0    0 -0.30815072969E+03  0.12600237936E+03 -0.61301120690E+03  0.69757882107E+03  0.00000000000E+00 0.  1.
          2    1    6    6  503    0  0.22508334610E+03 -0.10013540764E+03 -0.26136955510E+03  0.35917079069E+03  0.00000000000E+00 0.  1.
         -2    1    6    6    0  503  0.45523024729E+02  0.24301924390E+02 -0.73848223984E+02  0.90091561731E+02  0.00000000000E+00 0. -1.
<mgrwt>
<rscale>  0 0.14801776E+04</rscale>
<asrwt>0</asrwt>
<pdfrwt beam="1">  1        2 0.27194215E+00 0.14801776E+04</pdfrwt>
<pdfrwt beam="2">  1       -1 0.47672115E-01 0.14801776E+04</pdfrwt>
<totfact> 0.43562286E+01</totfact>
</mgrwt>
</event>
<event>
12    6  0.1402540E-007  0.2826332E+04  0.7818608E-02  0.8295140E-01
         -1   -1    0    0    0  501 -0.00000000000E+00  0.00000000000E+00  0.76149773711E+03  0.76149773711E+03  0.00000000000E+00 0.  1.
          2   -1    0    0  501    0  0.00000000000E+00 -0.00000000000E+00 -0.26225138448E+04  0.26225138448E+04  0.00000000000E+00 0. -1.
         24    2    1    2    0    0  0.44731050098E+03  0.10722103151E+04 -0.14457724793E+04  0.18563750689E+04  0.78413587696E+02 0.  0.
        254    2    1    2    0    0 -0.44731050098E+03 -0.10722103151E+04 -0.41524362838E+03  0.15276365129E+04  0.90084649122E+03 0.  0.
         23    2    4    4    0    0 -0.12001156125E+03 -0.11031776048E+04 -0.41089309759E+03  0.11867751659E+04  0.90545867969E+02 0.  0.
         23    2    4    4    0    0 -0.32729893973E+03  0.30967289724E+02 -0.43505307830E+01  0.34086134704E+03  0.89910854785E+02 0.  0.
          2    1    3    3  502    0  0.27855667836E+03  0.59252740704E+03 -0.85500180513E+03  0.10768986201E+04  0.00000000000E+00 0. -1.
         -1    1    3    3    0  502  0.16875382262E+03  0.47968290802E+03 -0.59077067416E+03  0.77947644887E+03  0.00000000000E+00 0.  1.
         11    1    5    5    0    0 -0.13252033805E+03 -0.10535523180E+04 -0.39806002391E+03  0.11340131875E+04  0.00000000000E+00 0.  1.
        -11    1    5    5    0    0  0.12508776800E+02 -0.49625286771E+02 -0.12833073684E+02  0.52761978396E+02  0.00000000000E+00 0. -1.
          1    1    6    6  503    0 -0.40155995272E+02 -0.27151198625E+00  0.29808526054E+02  0.50011257738E+02  0.00000000000E+00 0. -1.
         -1    1    6    6    0  503 -0.28714294446E+03  0.31238801710E+02 -0.34159056837E+02  0.29085008930E+03  0.00000000000E+00 0.  1.
<mgrwt>
<rscale>  0 0.28263322E+04</rscale>
<asrwt>0</asrwt>
<pdfrwt beam="1">  1        2 0.40346367E+00 0.28263322E+04</pdfrwt>
<pdfrwt beam="2">  1       -1 0.11715350E+00 0.28263322E+04</pdfrwt>
<totfact> 0.19117006E+00</totfact>
</mgrwt>
</event>
<event>
12    6  0.1402540E-007  0.2095437E+04  0.7818608E-02  0.8563256E-01
         -1   -1    0    0    0  501 -0.00000000000E+00  0.00000000000E+00  0.57146651752E+03  0.57146651752E+03  0.00000000000E+00 0.  1.
          2   -1    0    0  501    0  0.00000000000E+00 -0.00000000000E+00 -0.19208724710E+04  0.19208724710E+04  0.00000000000E+00 0. -1.
         24    2    1    2    0    0  0.54141664683E+03 -0.65275910156E+03 -0.44191966496E+03  0.96020567982E+03  0.86461130866E+02 0.  0.
        254    2    1    2    0    0 -0.54141664683E+03  0.65275910156E+03 -0.90748628849E+03  0.15321333087E+04  0.89703661109E+03 0.  0.
         23    2    4    4    0    0 -0.29423323685E+03  0.68767872035E+03 -0.99895394726E+03  0.12517638298E+04  0.97613916525E+02 0.  0.
         23    2    4    4    0    0 -0.24718340998E+03 -0.34919618792E+02  0.91467658776E+02  0.28036947890E+03  0.89003899636E+02 0.  0.
          4    1    3    3  502    0  0.43720510491E+03 -0.49536613012E+03 -0.30938086404E+03  0.72955632110E+03  0.00000000000E+00 0. -1.
         -3    1    3    3    0  502  0.10421154192E+03 -0.15739297144E+03 -0.13253880092E+03  0.23064935872E+03  0.00000000000E+00 0.  1.
         11    1    5    5    0    0 -0.23678513377E+03  0.52114048613E+03 -0.69425450094E+03  0.89980215488E+03  0.00000000000E+00 0.  1.
        -11    1    5    5    0    0 -0.57448103082E+02  0.16653823422E+03 -0.30469944633E+03  0.35196167490E+03  0.00000000000E+00 0. -1.
          4    1    6    6  503    0 -0.72173229821E+02 -0.37866713761E+02  0.63045892035E+02  0.10304197017E+03  0.00000000000E+00 0.  1.
         -4    1    6    6    0  503 -0.17501018015E+03  0.29470949686E+01  0.28421766741E+02  0.17732750873E+03  0.00000000000E+00 0. -1.
<mgrwt>
<rscale>  0 0.20954372E+04</rscale>
<asrwt>0</asrwt>
<pdfrwt beam="1">  1        2 0.29551885E+00 0.20954372E+04</pdfrwt>
<pdfrwt beam="2">  1       -1 0.87917924E-01 0.20954372E+04</pdfrwt>
<totfact> 0.98689070E+00</totfact>
</mgrwt>
</event>
<event>
12    6  0.1402540E-007  0.2187918E+04  0.7818608E-02  0.8523474E-01
         -1   -1    0    0    0  501 -0.00000000000E+00  0.00000000000E+00  0.12411866518E+04  0.12411866518E+04  0.00000000000E+00 0.  1.
          2   -1    0    0  501    0  0.00000000000E+00 -0.00000000000E+00 -0.96419546294E+03  0.96419546294E+03  0.00000000000E+00 0. -1.
         24    2    1    2    0    0 -0.79802202541E+01  0.90526837471E+03  0.55623216920E+02  0.91045310813E+03  0.79097444255E+02 0.  0.
        254    2    1    2    0    0  0.79802202541E+01 -0.90526837471E+03  0.22136797197E+03  0.12949290066E+04  0.89903439259E+03 0.  0.
         23    2    4    4    0    0 -0.35219348213E+02 -0.10439223751E+04  0.46435994647E+02  0.10494910076E+04  0.90888644249E+02 0.  0.
         23    2    4    4    0    0  0.43199568468E+02  0.13865400043E+03  0.17493197732E+03  0.24543799903E+03  0.92452583132E+02 0.  0.
          2    1    3    3  502    0 -0.27082887154E+02  0.60060993217E+03  0.64076284519E+01  0.60125438136E+03  0.00000000000E+00 0. -1.
         -1    1    3    3    0  502  0.19102666900E+02  0.30465844254E+03  0.49215588468E+02  0.30919872677E+03  0.00000000000E+00 0.  1.
         11    1    5    5    0    0 -0.72069531870E+01 -0.82970954441E+03  0.67206676991E+02  0.83245817054E+03  0.00000000000E+00 0. -1.
        -11    1    5    5    0    0 -0.28012395027E+02 -0.21421283073E+03 -0.20770682344E+02  0.21703283707E+03  0.00000000000E+00 0.  1.
          2    1    6    6  503    0 -0.28946717896E+02  0.47684029946E+02  0.50429515108E+02  0.75198505190E+02  0.00000000000E+00 0. -1.
         -2    1    6    6    0  503  0.72146286364E+02  0.90969970483E+02  0.12450246221E+03  0.17023949384E+03  0.00000000000E+00 0.  1.
<mgrwt>
<rscale>  0 0.21879182E+04</rscale>
<asrwt>0</asrwt>
<pdfrwt beam="1">  1        2 0.14833776E+00 0.21879182E+04</pdfrwt>
<pdfrwt beam="2">  1       -1 0.19095179E+00 0.21879182E+04</pdfrwt>
<totfact> 0.48249946E+00</totfact>
</mgrwt>
</event>
<event>
12    6  0.1402540E-007  0.1453370E+04  0.7818608E-02  0.8916068E-01
         -1   -1    0    0    0  501 -0.00000000000E+00  0.00000000000E+00  0.44765258040E+03  0.44765258040E+03  0.00000000000E+00 0.  1.
          2   -1    0    0  501    0  0.00000000000E+00 -0.00000000000E+00 -0.11796446613E+04  0.11796446613E+04  0.00000000000E+00 0. -1.
         24    2    1    2    0    0  0.29446800674E+03  0.14542050538E+03  0.10813864368E+03  0.35467688815E+03  0.79013912416E+02 0.  0.
        254    2    1    2    0    0 -0.29446800674E+03 -0.14542050538E+03 -0.84013072463E+03  0.12726203536E+04  0.89771064354E+03 0.  0.
         23    2    4    4    0    0  0.19638104791E+03 -0.12188951046E+03 -0.71551628338E+03  0.75747103901E+03  0.91521879415E+02 0.  0.
         23    2    4    4    0    0 -0.49084905465E+03 -0.23530994919E+02 -0.12461444125E+03  0.51514931458E+03  0.91452474953E+02 0.  0.
          2    1    3    3  502    0  0.37470833690E+02 -0.49946369051E+01 -0.19854591154E+00  0.37802767038E+02  0.00000000000E+00 0. -1.
         -1    1    3    3    0  502  0.25699717305E+03  0.15041514229E+03  0.10833718959E+03  0.31687412111E+03  0.00000000000E+00 0.  1.
         11    1    5    5    0    0  0.17584708436E+03 -0.94741646432E+02 -0.48603538841E+03  0.52547937680E+03  0.00000000000E+00 0. -1.
        -11    1    5    5    0    0  0.20533963548E+02 -0.27147864030E+02 -0.22948089497E+03  0.23199166221E+03  0.00000000000E+00 0.  1.
          2    1    6    6  503    0 -0.33804800186E+03 -0.21463222462E+02 -0.12850349887E+03  0.36228479226E+03  0.00000000000E+00 0. -1.
         -2    1    6    6    0  503 -0.15280105279E+03 -0.20677724570E+01  0.38890576195E+01  0.15286452232E+03  0.00000000000E+00 0.  1.
<mgrwt>
<rscale>  0 0.14533698E+04</rscale>
<asrwt>0</asrwt>
<pdfrwt beam="1">  1        2 0.18148379E+00 0.14533698E+04</pdfrwt>
<pdfrwt beam="2">  1       -1 0.68869628E-01 0.14533698E+04</pdfrwt>
<totfact> 0.45951348E+01</totfact>
</mgrwt>
</event>
<event>
12    6  0.1402540E-007  0.1452742E+04  0.7818608E-02  0.8916502E-01
         -1   -1    0    0    0  501 -0.00000000000E+00  0.00000000000E+00  0.20756456041E+03  0.20756456041E+03  0.00000000000E+00 0.  1.
          2   -1    0    0  501    0  0.00000000000E+00 -0.00000000000E+00 -0.25419319814E+04  0.25419319814E+04  0.00000000000E+00 0. -1.
         24    2    1    2    0    0 -0.19224371994E+02 -0.15630323757E+03  0.59332843008E+02  0.18724255572E+03  0.82092081588E+02 0.  0.
        254    2    1    2    0    0  0.19224371994E+02  0.15630323757E+03 -0.23937002640E+04  0.25622539861E+04  0.90030231415E+03 0.  0.
         23    2    4    4    0    0 -0.36741308039E+03  0.25163205279E+03 -0.16747634248E+04  0.17353471651E+04  0.91028527327E+02 0.  0.
         23    2    4    4    0    0  0.38663745238E+03 -0.95328815224E+02 -0.71893683926E+03  0.82690682105E+03  0.91261214372E+02 0.  0.
          4    1    3    3  502    0  0.82565851957E+01 -0.65318589456E+02 -0.13860375847E+02  0.67281493341E+02  0.00000000000E+00 0. -1.
         -3    1    3    3    0  502 -0.27480957190E+02 -0.90984648113E+02  0.73193218854E+02  0.11996106238E+03  0.00000000000E+00 0.  1.
         11    1    5    5    0    0 -0.34661011632E+03  0.21914974264E+03 -0.14328267668E+04  0.14903548994E+04  0.00000000000E+00 0.  1.
        -11    1    5    5    0    0 -0.20802964062E+02  0.32482310151E+02 -0.24193665800E+03  0.24499226573E+03  0.00000000000E+00 0. -1.
          4    1    6    6  503    0  0.36106479213E+02  0.61059008341E+00 -0.12948204772E+03  0.13442340326E+03  0.00000000000E+00 0. -1.
         -4    1    6    6    0  503  0.35053097317E+03 -0.95939405307E+02 -0.58945479154E+03  0.69248341779E+03  0.00000000000E+00 0.  1.
<mgrwt>
<rscale>  0 0.14527422E+04</rscale>
<asrwt>0</asrwt>
<pdfrwt beam="1">  1        2 0.39106641E+00 0.14527422E+04</pdfrwt>
<pdfrwt beam="2">  1       -1 0.31933013E-01 0.14527422E+04</pdfrwt>
<totfact> 0.33328239E+01</totfact>
</mgrwt>
</event>
<event>
12    6  0.1402540E-007  0.1295465E+04  0.7818608E-02  0.9033170E-01
         -1   -1    0    0    0  501 -0.00000000000E+00  0.00000000000E+00  0.21334021077E+04  0.21334021077E+04  0.00000000000E+00 0.  1.
          2   -1    0    0  501    0  0.00000000000E+00 -0.00000000000E+00 -0.19666104318E+03  0.19666104318E+03  0.00000000000E+00 0. -1.
         24    2    1    2    0    0  0.24075471308E+03  0.49640998795E+02  0.11737595967E+03  0.28384139610E+03  0.79760651963E+02 0.  0.
        254    2    1    2    0    0 -0.24075471308E+03 -0.49640998795E+02  0.18193651048E+04  0.20462217548E+04  0.90360778238E+03 0.  0.
         23    2    4    4    0    0  0.16289600698E+03  0.31997708720E+03  0.88488659362E+03  0.95924971273E+03  0.90638194890E+02 0.  0.
         23    2    4    4    0    0 -0.40365072006E+03 -0.36961808599E+03  0.93447851121E+03  0.10869720420E+04  0.93309693838E+02 0.  0.
          4    1    3    3  502    0  0.18493188507E+03  0.59131050899E+02  0.59964475300E+02  0.20320438380E+03  0.00000000000E+00 0. -1.
         -3    1    3    3    0  502  0.55822828008E+02 -0.94900521049E+01  0.57411484371E+02  0.80637012305E+02  0.00000000000E+00 0.  1.
         11    1    5    5    0    0  0.86486272164E+02  0.19340826915E+03  0.40447629304E+03  0.45660453949E+03  0.00000000000E+00 0.  1.
        -11    1    5    5    0    0  0.76409734817E+02  0.12656881805E+03  0.48041030058E+03  0.50264517324E+03  0.00000000000E+00 0. -1.
          4    1    6    6  503    0 -0.40202926474E+03 -0.34547790401E+03  0.87923912461E+03  0.10266664259E+04  0.00000000000E+00 0.  1.
         -4    1    6    6    0  503 -0.16214553184E+01 -0.24140181980E+02  0.55239386603E+02  0.60305616121E+02  0.00000000000E+00 0. -1.
<mgrwt>
<rscale>  0 0.12954645E+04</rscale>
<asrwt>0</asrwt>
<pdfrwt beam="1">  1        2 0.30255547E-01 0.12954645E+04</pdfrwt>
<pdfrwt beam="2">  1       -1 0.32821569E+00 0.12954645E+04</pdfrwt>
<totfact> 0.43203584E+00</totfact>
</mgrwt>
</event>
<event>
12    6  0.1402540E-007  0.2563599E+04  0.7818608E-02  0.8380672E-01
          2   -1    0    0  501    0  0.00000000000E+00  0.00000000000E+00  0.34428948396E+04  0.34428948396E+04  0.00000000000E+00 0. -1.
         -1   -1    0    0    0  501 -0.00000000000E+00 -0.00000000000E+00 -0.47721742622E+03  0.47721742622E+03  0.00000000000E+00 0.  1.
         24    2    1    2    0    0 -0.10708326700E+04 -0.30411767737E+03  0.11524084223E+04  0.16042417354E+04  0.79851143984E+02 0.  0.
        254    2    1    2    0    0  0.10708326700E+04  0.30411767737E+03  0.18132689912E+04  0.23158705304E+04  0.91440784686E+03 0.  0.
         23    2    4    4    0    0  0.10955992446E+04  0.96913189446E+01  0.11906590207E+04  0.16206491428E+04  0.91668501358E+02 0.  0.
         23    2    4    4    0    0 -0.24766574619E+02  0.29442635843E+03  0.62260997049E+03  0.69522138757E+03  0.91593332852E+02 0.  0.
          4    1    3    3  502    0 -0.87230588698E+03 -0.24863240779E+03  0.98179744676E+03  0.13366607128E+04  0.00000000000E+00 0. -1.
         -1    1    3    3    0  502 -0.19852678305E+03 -0.55485269581E+02  0.17061097550E+03  0.26758102266E+03  0.00000000000E+00 0.  1.
         11    1    5    5    0    0  0.98238797564E+02  0.19903153579E+02  0.83380062087E+02  0.13038110148E+03  0.00000000000E+00 0. -1.
        -11    1    5    5    0    0  0.99736044708E+03 -0.10211834635E+02  0.11072789586E+04  0.14902680414E+04  0.00000000000E+00 0.  1.
          3    1    6    6  503    0  0.22799571077E+02  0.43386467480E+02  0.61229030981E+02  0.78429587762E+02  0.00000000000E+00 0. -1.
         -3    1    6    6    0  503 -0.47566145696E+02  0.25103989095E+03  0.56138093951E+03  0.61679179981E+03  0.00000000000E+00 0.  1.
<mgrwt>
<rscale>  0 0.25635986E+04</rscale>
<asrwt>0</asrwt>
<pdfrwt beam="1">  1        2 0.52967611E+00 0.25635986E+04</pdfrwt>
<pdfrwt beam="2">  1       -1 0.73418068E-01 0.25635986E+04</pdfrwt>
<totfact> 0.16813080E+00</totfact>
</mgrwt>
</event>
<event>
12    6  0.1402540E-007  0.2407742E+04  0.7818608E-02  0.8436611E-01
         -1   -1    0    0    0  501 -0.00000000000E+00  0.00000000000E+00  0.12779598138E+04  0.12779598138E+04  0.00000000000E+00 0.  1.
          2   -1    0    0  501    0  0.00000000000E+00 -0.00000000000E+00 -0.11340777591E+04  0.11340777591E+04  0.00000000000E+00 0. -1.
         24    2    1    2    0    0 -0.78662382736E+03  0.64788527312E+03  0.23917825386E+03  0.10497938934E+04  0.79552552663E+02 0.  0.
        254    2    1    2    0    0  0.78662382736E+03 -0.64788527312E+03 -0.95296199188E+02  0.13622436795E+04  0.89894054527E+03 0.  0.
         23    2    4    4    0    0  0.44598030225E+03  0.14554642508E+03 -0.12770614460E+03  0.49330857922E+03  0.83440416559E+02 0.  0.
         23    2    4    4    0    0  0.34064352511E+03 -0.79343169820E+03  0.32409945416E+02  0.86893510031E+03  0.91792881388E+02 0.  0.
          4    1    3    3  502    0 -0.50502237202E+03  0.46196681266E+03  0.14814582850E+03  0.70029145271E+03  0.00000000000E+00 0. -1.
         -3    1    3    3    0  502 -0.28160145535E+03  0.18591846046E+03  0.91032425364E+02  0.34950244071E+03  0.00000000000E+00 0.  1.
         11    1    5    5    0    0  0.30870960988E+03  0.11913407977E+03 -0.53993956456E+02  0.33527585587E+03  0.00000000000E+00 0.  1.
        -11    1    5    5    0    0  0.13727069237E+03  0.26412345308E+02 -0.73712188149E+02  0.15803272335E+03  0.00000000000E+00 0. -1.
          2    1    6    6  503    0  0.19312116743E+03 -0.33482325319E+03  0.96629047134E+01  0.38664682581E+03  0.00000000000E+00 0.  1.
         -2    1    6    6    0  503  0.14752235769E+03 -0.45860844501E+03  0.22747040703E+02  0.48228827449E+03  0.00000000000E+00 0. -1.
<mgrwt>
<rscale>  0 0.24077423E+04</rscale>
<asrwt>0</asrwt>
<pdfrwt beam="1">  1        2 0.17447350E+00 0.24077423E+04</pdfrwt>
<pdfrwt beam="2">  1       -1 0.19660920E+00 0.24077423E+04</pdfrwt>
<totfact> 0.33787318E+00</totfact>
</mgrwt>
</event>
<event>
12    6  0.1402540E-007  0.2037130E+04  0.7818608E-02  0.8589455E-01
         -1   -1    0    0    0  501 -0.00000000000E+00  0.00000000000E+00  0.73406104141E+03  0.73406104141E+03  0.00000000000E+00 0.  1.
          2   -1    0    0  501    0  0.00000000000E+00 -0.00000000000E+00 -0.14133362275E+04  0.14133362275E+04  0.00000000000E+00 0. -1.
         24    2    1    2    0    0  0.46342527172E+03 -0.60591492422E+03  0.34804244565E+02  0.76734655112E+03  0.75587804630E+02 0.  0.
        254    2    1    2    0    0 -0.46342527172E+03  0.60591492422E+03 -0.71407943067E+03  0.13800507178E+04  0.90151798237E+03 0.  0.
         23    2    4    4    0    0  0.14241205491E+03  0.13893416913E+03 -0.55074033204E+03  0.59273806318E+03  0.91867303608E+02 0.  0.
         23    2    4    4    0    0 -0.60583732663E+03  0.46698075509E+03 -0.16333909863E+03  0.78731265463E+03  0.89842434448E+02 0.  0.
          4    1    3    3  502    0  0.35760404612E+03 -0.44729344766E+03  0.56427541655E+02  0.57544430624E+03  0.00000000000E+00 0. -1.
         -3    1    3    3    0  502  0.10582122561E+03 -0.15862147656E+03 -0.21623297091E+02  0.19190224489E+03  0.00000000000E+00 0.  1.
         11    1    5    5    0    0  0.15416289460E+02  0.37560456314E+02 -0.22592811376E+03  0.22954729893E+03  0.00000000000E+00 0.  1.
        -11    1    5    5    0    0  0.12699576545E+03  0.10137371282E+03 -0.32481221827E+03  0.36319076424E+03  0.00000000000E+00 0. -1.
          1    1    6    6  503    0 -0.47693783015E+03  0.33056925426E+03 -0.14880016947E+03  0.59907196239E+03  0.00000000000E+00 0. -1.
         -1    1    6    6    0  503 -0.12889949648E+03  0.13641150083E+03 -0.14538929166E+02  0.18824069223E+03  0.00000000000E+00 0.  1.
<mgrwt>
<rscale>  0 0.20371304E+04</rscale>
<asrwt>0</asrwt>
<pdfrwt beam="1">  1        2 0.21743634E+00 0.20371304E+04</pdfrwt>
<pdfrwt beam="2">  1       -1 0.11293247E+00 0.20371304E+04</pdfrwt>
<totfact> 0.10759792E+01</totfact>
</mgrwt>
</event>
<event>
12    6  0.1402540E-007  0.3393987E+04  0.7818608E-02  0.8139384E-01
          2   -1    0    0  501    0  0.00000000000E+00  0.00000000000E+00  0.27619031405E+04  0.27619031405E+04  0.00000000000E+00 0. -1.
         -1   -1    0    0    0  501 -0.00000000000E+00 -0.00000000000E+00 -0.10426818392E+04  0.10426818392E+04  0.00000000000E+00 0.  1.
         24    2    1    2    0    0 -0.39610118817E+03  0.46857136008E+03 -0.82811958358E+03  0.10337012692E+04  0.79378828520E+02 0.  0.
        254    2    1    2    0    0  0.39610118817E+03 -0.46857136008E+03  0.25473408849E+04  0.27708837104E+04  0.90132995190E+03 0.  0.
         23    2    4    4    0    0 -0.13675060565E+03 -0.18929653737E+03  0.17505321134E+04  0.17684009772E+04  0.91353318568E+02 0.  0.
         23    2    4    4    0    0  0.53285179383E+03 -0.27927482271E+03  0.79680877150E+03  0.10024827333E+04  0.90232762321E+02 0.  0.
          2    1    3    3  502    0 -0.29815068535E+03  0.31567761382E+03 -0.53692574023E+03  0.69053272013E+03  0.00000000000E+00 0. -1.
         -1    1    3    3    0  502 -0.97950502818E+02  0.15289374626E+03 -0.29119384335E+03  0.34316854904E+03  0.00000000000E+00 0.  1.
         11    1    5    5    0    0 -0.12655885496E+03 -0.11616056433E+03  0.13739275398E+04  0.13846253303E+04  0.00000000000E+00 0. -1.
        -11    1    5    5    0    0 -0.10191750690E+02 -0.73135973038E+02  0.37660457355E+03  0.38377564690E+03  0.00000000000E+00 0.  1.
          3    1    6    6  503    0  0.50678827124E+03 -0.27922160926E+03  0.78104141081E+03  0.97202095880E+03  0.00000000000E+00 0. -1.
         -3    1    6    6    0  503  0.26063522589E+02 -0.53213455644E-01  0.15767360689E+02  0.30461774481E+02  0.00000000000E+00 0.  1.
<mgrwt>
<rscale>  0 0.33939866E+04</rscale>
<asrwt>0</asrwt>
<pdfrwt beam="1">  1        2 0.42490817E+00 0.33939866E+04</pdfrwt>
<pdfrwt beam="2">  1       -1 0.16041259E+00 0.33939866E+04</pdfrwt>
<totfact> 0.66580630E-01</totfact>
</mgrwt>
</event>
<event>
12    6  0.1402540E-007  0.3013878E+04  0.7818608E-02  0.8239779E-01
          2   -1    0    0  501    0  0.00000000000E+00  0.00000000000E+00  0.14120971913E+04  0.14120971913E+04  0.00000000000E+00 0. -1.
         -1   -1    0    0    0  501 -0.00000000000E+00 -0.00000000000E+00 -0.16081506469E+04  0.16081506469E+04  0.00000000000E+00 0.  1.
         24    2    1    2    0    0 -0.98246762928E+03  0.88673754016E+03  0.27043746655E+03  0.13532324547E+04  0.80966322597E+02 0.  0.
        254    2    1    2    0    0  0.98246762928E+03 -0.88673754016E+03 -0.46649092223E+03  0.16670153835E+04  0.89987799210E+03 0.  0.
         23    2    4    4    0    0  0.32347779233E+03 -0.52797365339E+03 -0.63629928046E+03  0.89257025146E+03  0.91710515627E+02 0.  0.
         23    2    4    4    0    0  0.65898983695E+03 -0.35876388677E+03  0.16980835823E+03  0.77444513206E+03  0.89169795271E+02 0.  0.
          4    1    3    3  502    0 -0.45405460934E+03  0.37858743956E+03  0.15434695632E+03  0.61099674351E+03  0.00000000000E+00 0. -1.
         -3    1    3    3    0  502 -0.52841301994E+03  0.50815010060E+03  0.11609051023E+03  0.74223571118E+03  0.00000000000E+00 0.  1.
         11    1    5    5    0    0  0.22364287214E+03 -0.28737524227E+03 -0.39918688320E+03  0.54032474666E+03  0.00000000000E+00 0. -1.
        -11    1    5    5    0    0  0.99834920192E+02 -0.24059841112E+03 -0.23711239726E+03  0.35224550480E+03  0.00000000000E+00 0.  1.
          3    1    6    6  503    0  0.49634799263E+03 -0.31063567386E+03  0.14273146681E+03  0.60268409908E+03  0.00000000000E+00 0. -1.
         -3    1    6    6    0  503  0.16264184432E+03 -0.48128212911E+02  0.27076891426E+02  0.17176103299E+03  0.00000000000E+00 0.  1.
<mgrwt>
<rscale>  0 0.30138779E+04</rscale>
<asrwt>0</asrwt>
<pdfrwt beam="1">  1        2 0.21724572E+00 0.30138779E+04</pdfrwt>
<pdfrwt beam="2">  1       -1 0.24740779E+00 0.30138779E+04</pdfrwt>
<totfact> 0.10053329E+00</totfact>
</mgrwt>
</event>
<event>
12    6  0.1402540E-007  0.1299577E+04  0.7818608E-02  0.9029901E-01
          2   -1    0    0  501    0  0.00000000000E+00  0.00000000000E+00  0.19179533162E+03  0.19179533162E+03  0.00000000000E+00 0. -1.
         -1   -1    0    0    0  501 -0.00000000000E+00 -0.00000000000E+00 -0.22014355605E+04  0.22014355605E+04  0.00000000000E+00 0.  1.
         24    2    1    2    0    0 -0.17382549429E+02 -0.33146898763E+03 -0.51349129294E+03  0.61650242947E+03  0.78918279483E+02 0.  0.
        254    2    1    2    0    0  0.17382549429E+02  0.33146898763E+03 -0.14961489359E+04  0.17767284626E+04  0.89895970358E+03 0.  0.
         23    2    4    4    0    0 -0.13837222086E+03 -0.24594970974E+03 -0.23890810233E+03  0.38170642037E+03  0.94787017932E+02 0.  0.
         23    2    4    4    0    0  0.15575477029E+03  0.57741869737E+03 -0.12572408336E+04  0.13950220422E+04  0.88091340076E+02 0.  0.
          4    1    3    3  502    0  0.12432806857E+02 -0.55556751295E+02 -0.47550936658E+02  0.74176943034E+02  0.00000000000E+00 0. -1.
         -3    1    3    3    0  502 -0.29815356287E+02 -0.27591223633E+03 -0.46594035628E+03  0.54232548644E+03  0.00000000000E+00 0.  1.
         11    1    5    5    0    0 -0.10295590443E+03 -0.10461089851E+03 -0.84323465095E+02  0.16927434864E+03  0.00000000000E+00 0. -1.
        -11    1    5    5    0    0 -0.35416316431E+02 -0.14133881123E+03 -0.15458463723E+03  0.21243207173E+03  0.00000000000E+00 0.  1.
          3    1    6    6  503    0  0.11618141503E+03  0.29727425310E+03 -0.72830923515E+03  0.79517573200E+03  0.00000000000E+00 0. -1.
         -3    1    6    6    0  503  0.39573355260E+02  0.28014444427E+03 -0.52893159841E+03  0.59984631024E+03  0.00000000000E+00 0.  1.
<mgrwt>
<rscale>  0 0.12995770E+04</rscale>
<asrwt>0</asrwt>
<pdfrwt beam="1">  1        2 0.29506975E-01 0.12995770E+04</pdfrwt>
<pdfrwt beam="2">  1       -1 0.33868239E+00 0.12995770E+04</pdfrwt>
<totfact> 0.37961685E+00</totfact>
</mgrwt>
</event>
<event>
12    6  0.1402540E-007  0.2954344E+04  0.7818608E-02  0.8256890E-01
         -1   -1    0    0    0  501 -0.00000000000E+00  0.00000000000E+00  0.92607578426E+03  0.92607578426E+03  0.00000000000E+00 0.  1.
          2   -1    0    0  501    0  0.00000000000E+00 -0.00000000000E+00 -0.23562184336E+04  0.23562184336E+04  0.00000000000E+00 0. -1.
         24    2    1    2    0    0  0.79992871413E+03  0.10437530417E+04 -0.37014596436E+03  0.13686344792E+04  0.82740213611E+02 0.  0.
        254    2    1    2    0    0 -0.79992871413E+03 -0.10437530417E+04 -0.10599966850E+04  0.19136597386E+04  0.89955225719E+03 0.  0.
         23    2    4    4    0    0 -0.79708356402E+03 -0.32055053065E+03 -0.58409658007E+03  0.10429550477E+04  0.92149693151E+02 0.  0.
         23    2    4    4    0    0 -0.28451501122E+01 -0.72320251107E+03 -0.47590010489E+03  0.87070469095E+03  0.92821237368E+02 0.  0.
          4    1    3    3  502    0  0.57837945645E+03  0.77377670087E+03 -0.30755606042E+03  0.10138263701E+04  0.00000000000E+00 0. -1.
         -3    1    3    3    0  502  0.22154925768E+03  0.26997634085E+03 -0.62589903950E+02  0.35480810908E+03  0.00000000000E+00 0.  1.
         11    1    5    5    0    0 -0.12270416602E+02 -0.16252331554E+02 -0.25907551995E+02  0.32953037112E+02  0.00000000000E+00 0. -1.
        -11    1    5    5    0    0 -0.78481314742E+03 -0.30429819909E+03 -0.55818902807E+03  0.10100020106E+04  0.00000000000E+00 0.  1.
          3    1    6    6  503    0 -0.41774603293E+01 -0.67111013012E+03 -0.40909686929E+03  0.78598123794E+03  0.00000000000E+00 0. -1.
         -3    1    6    6    0  503  0.13323102171E+01 -0.52092380949E+02 -0.66803235600E+02  0.84723453011E+02  0.00000000000E+00 0.  1.
<mgrwt>
<rscale>  0 0.29543438E+04</rscale>
<asrwt>0</asrwt>
<pdfrwt beam="1">  1        2 0.36249514E+00 0.29543438E+04</pdfrwt>
<pdfrwt beam="2">  1       -1 0.14247320E+00 0.29543438E+04</pdfrwt>
<totfact> 0.16465634E+00</totfact>
</mgrwt>
</event>
<event>
12    6  0.1402540E-007  0.1672244E+04  0.7818608E-02  0.8777355E-01
         -1   -1    0    0    0  501 -0.00000000000E+00  0.00000000000E+00  0.21685542907E+03  0.21685542907E+03  0.00000000000E+00 0.  1.
          2   -1    0    0  501    0  0.00000000000E+00 -0.00000000000E+00 -0.32238050526E+04  0.32238050526E+04  0.00000000000E+00 0. -1.
         24    2    1    2    0    0  0.19215225979E+02  0.38468491653E+03 -0.19932007277E+04  0.20316198563E+04  0.79236290929E+02 0.  0.
        254    2    1    2    0    0 -0.19215225979E+02 -0.38468491653E+03 -0.10137488958E+04  0.14090406253E+04  0.89964267915E+03 0.  0.
         23    2    4    4    0    0  0.19113873934E+03 -0.22417923436E+03 -0.10782031624E+04  0.11216598544E+04  0.93853197094E+02 0.  0.
         23    2    4    4    0    0 -0.21035396531E+03 -0.16050568217E+03  0.64454266621E+02  0.28738077097E+03  0.91774126541E+02 0.  0.
          4    1    3    3  502    0  0.44728989725E+02  0.14194722524E+03 -0.71517842182E+03  0.73049974148E+03  0.00000000000E+00 0. -1.
         -3    1    3    3    0  502 -0.25513763746E+02  0.24273769129E+03 -0.12780223059E+04  0.13011201148E+04  0.00000000000E+00 0.  1.
         11    1    5    5    0    0  0.71540066391E+02 -0.10073053294E+03 -0.29517756478E+03  0.31999127506E+03  0.00000000000E+00 0.  1.
        -11    1    5    5    0    0  0.11959867295E+03 -0.12344870142E+03 -0.78302559766E+03  0.80166857930E+03  0.00000000000E+00 0. -1.
          1    1    6    6  503    0 -0.20417460652E+03 -0.16963866468E+03  0.70703203898E+02  0.27470618767E+03  0.00000000000E+00 0. -1.
         -1    1    6    6    0  503 -0.61793587900E+01  0.91329825093E+01 -0.62489372767E+01  0.12674583293E+02  0.00000000000E+00 0.  1.
<mgrwt>
<rscale>  0 0.16722436E+04</rscale>
<asrwt>0</asrwt>
<pdfrwt beam="1">  1        2 0.49596999E+00 0.16722436E+04</pdfrwt>
<pdfrwt beam="2">  1       -1 0.33362375E-01 0.16722436E+04</pdfrwt>
<totfact> 0.11567897E+01</totfact>
</mgrwt>
</event>
<event>
12    6  0.1402540E-007  0.2774658E+04  0.7818608E-02  0.8311179E-01
          2   -1    0    0  501    0  0.00000000000E+00  0.00000000000E+00  0.23262294567E+04  0.23262294567E+04  0.00000000000E+00 0. -1.
         -1   -1    0    0    0  501 -0.00000000000E+00 -0.00000000000E+00 -0.82738271636E+03  0.82738271636E+03  0.00000000000E+00 0.  1.
         24    2    1    2    0    0 -0.66630472781E+03  0.94096286964E+03  0.15963197986E+03  0.11666200754E+04  0.78402289033E+02 0.  0.
        254    2    1    2    0    0  0.66630472781E+03 -0.94096286964E+03  0.13392147605E+04  0.19869920977E+04  0.90844279360E+03 0.  0.
         23    2    4    4    0    0  0.95493438139E+02 -0.54500478901E+03  0.10873531196E+03  0.57104543046E+03  0.90112700591E+02 0.  0.
         23    2    4    4    0    0  0.57081128967E+03 -0.39595808063E+03  0.12304794485E+04  0.14159466672E+04  0.90647455429E+02 0.  0.
          2    1    3    3  502    0 -0.44178009663E+03  0.67742116168E+03  0.13015266650E+03  0.81915126849E+03  0.00000000000E+00 0. -1.
         -1    1    3    3    0  502 -0.22452463118E+03  0.26354170796E+03  0.29479313362E+02  0.34746880688E+03  0.00000000000E+00 0.  1.
         11    1    5    5    0    0  0.60915103029E+02 -0.12979180023E+03  0.16637442563E+02  0.14433767934E+03  0.00000000000E+00 0.  1.
        -11    1    5    5    0    0  0.34578335110E+02 -0.41521298879E+03  0.92097869402E+02  0.42670775112E+03  0.00000000000E+00 0. -1.
          3    1    6    6  503    0  0.53049623564E+03 -0.39166437159E+03  0.11441365919E+04  0.13205588881E+04  0.00000000000E+00 0. -1.
         -3    1    6    6    0  503  0.40315054037E+02 -0.42937090439E+01  0.86342856658E+02  0.95387779171E+02  0.00000000000E+00 0.  1.
<mgrwt>
<rscale>  0 0.27746582E+04</rscale>
<asrwt>0</asrwt>
<pdfrwt beam="1">  1        2 0.35788145E+00 0.27746582E+04</pdfrwt>
<pdfrwt beam="2">  1       -1 0.12728965E+00 0.27746582E+04</pdfrwt>
<totfact> 0.23224119E+00</totfact>
</mgrwt>
</event>
<event>
12    6  0.1402540E-007  0.1303396E+04  0.7818608E-02  0.9026876E-01
         -1   -1    0    0    0  501 -0.00000000000E+00  0.00000000000E+00  0.27559953061E+03  0.27559953061E+03  0.00000000000E+00 0.  1.
          2   -1    0    0  501    0  0.00000000000E+00 -0.00000000000E+00 -0.15410415049E+04  0.15410415049E+04  0.00000000000E+00 0. -1.
         24    2    1    2    0    0 -0.28351496131E+03  0.17306034797E+03 -0.28715913617E+03  0.44616786804E+03  0.79213506768E+02 0.  0.
        254    2    1    2    0    0  0.28351496131E+03 -0.17306034797E+03 -0.97828283815E+03  0.13704731675E+04  0.90046031232E+03 0.  0.
         23    2    4    4    0    0  0.43300737166E+03 -0.22955007550E+03 -0.14865285958E+03  0.52060420190E+03  0.93501023019E+02 0.  0.
         23    2    4    4    0    0 -0.14949241034E+03  0.56489727533E+02 -0.82962997856E+03  0.84986896559E+03  0.91936321835E+02 0.  0.
          2    1    3    3  502    0 -0.24581784176E+03  0.13301929942E+03 -0.26986170223E+03  0.38851754617E+03  0.00000000000E+00 0. -1.
         -3    1    3    3    0  502 -0.37697119552E+02  0.40041048548E+02 -0.17297433945E+02  0.57650321876E+02  0.00000000000E+00 0.  1.
         11    1    5    5    0    0  0.40009420513E+03 -0.17831553043E+03 -0.13107327366E+03  0.45722205157E+03  0.00000000000E+00 0.  1.
        -11    1    5    5    0    0  0.32913166522E+02 -0.51234545079E+02 -0.17579585929E+02  0.63382150337E+02  0.00000000000E+00 0. -1.
          2    1    6    6  503    0  0.10212223675E+02  0.70586149256E+01 -0.23408978195E+02  0.26497052991E+02  0.00000000000E+00 0. -1.
         -2    1    6    6    0  503 -0.15970463402E+03  0.49431112607E+02 -0.80622100037E+03  0.82337191260E+03  0.00000000000E+00 0.  1.
<mgrwt>
<rscale>  0 0.13033960E+04</rscale>
<asrwt>0</asrwt>
<pdfrwt beam="1">  1        2 0.23708331E+00 0.13033960E+04</pdfrwt>
<pdfrwt beam="2">  1       -1 0.42399928E-01 0.13033960E+04</pdfrwt>
<totfact> 0.73498064E+01</totfact>
</mgrwt>
</event>
<event>
12    6  0.1402540E-007  0.1610607E+04  0.7818608E-02  0.8814058E-01
          2   -1    0    0  501    0  0.00000000000E+00  0.00000000000E+00  0.11559443758E+04  0.11559443758E+04  0.00000000000E+00 0. -1.
         -1   -1    0    0    0  501 -0.00000000000E+00 -0.00000000000E+00 -0.56102499567E+03  0.56102499567E+03  0.00000000000E+00 0.  1.
         24    2    1    2    0    0  0.29509276577E+03 -0.37570519096E+03 -0.87271291085E+02  0.49176424289E+03  0.77341201215E+02 0.  0.
        254    2    1    2    0    0 -0.29509276577E+03  0.37570519096E+03  0.68219067126E+03  0.12252051286E+04  0.89861524822E+03 0.  0.
         23    2    4    4    0    0 -0.46486623056E+03  0.34133741924E+03  0.76749581312E+02  0.58889127476E+03  0.91052672498E+02 0.  0.
         23    2    4    4    0    0  0.16977346478E+03  0.34367771727E+02  0.60544108995E+03  0.63631385387E+03  0.91281072258E+02 0.  0.
          2    1    3    3  502    0  0.19062506921E+03 -0.25090294232E+03 -0.20260488581E+02  0.31575416209E+03  0.00000000000E+00 0. -1.
         -1    1    3    3    0  502  0.10446769656E+03 -0.12480224864E+03 -0.67010802503E+02  0.17601008080E+03  0.00000000000E+00 0.  1.
         11    1    5    5    0    0 -0.41627166922E+03  0.29401207687E+03  0.38658976903E+02  0.51109658621E+03  0.00000000000E+00 0.  1.
        -11    1    5    5    0    0 -0.48594561336E+02  0.47325342367E+02  0.38090604409E+02  0.77794688545E+02  0.00000000000E+00 0. -1.
          3    1    6    6  503    0 -0.10073891536E+02  0.37339479443E+01  0.15898025037E+02  0.19187830987E+02  0.00000000000E+00 0. -1.
         -3    1    6    6    0  503  0.17984735632E+03  0.30633823783E+02  0.58954306491E+03  0.61712602288E+03  0.00000000000E+00 0.  1.
<mgrwt>
<rscale>  0 0.16106070E+04</rscale>
<asrwt>0</asrwt>
<pdfrwt beam="1">  1        2 0.17783760E+00 0.16106070E+04</pdfrwt>
<pdfrwt beam="2">  1       -1 0.86311538E-01 0.16106070E+04</pdfrwt>
<totfact> 0.29137671E+01</totfact>
</mgrwt>
</event>
<event>
12    6  0.1402540E-007  0.2094999E+04  0.7818608E-02  0.8563450E-01
         -1   -1    0    0    0  501 -0.00000000000E+00  0.00000000000E+00  0.15878427750E+04  0.15878427750E+04  0.00000000000E+00 0.  1.
          2   -1    0    0  501    0  0.00000000000E+00 -0.00000000000E+00 -0.69103522329E+03  0.69103522329E+03  0.00000000000E+00 0. -1.
         24    2    1    2    0    0 -0.54218851966E+03  0.25737716970E+03 -0.29146785308E+03  0.67200730209E+03  0.80180461181E+02 0.  0.
        254    2    1    2    0    0  0.54218851966E+03 -0.25737716970E+03  0.11882754048E+04  0.16068706962E+04  0.89990199377E+03 0.  0.
         23    2    4    4    0    0  0.56102138239E+03 -0.20039586561E+03  0.13105769416E+04  0.14424581831E+04  0.90389134327E+02 0.  0.
         23    2    4    4    0    0 -0.18832862730E+02 -0.56981304089E+02 -0.12230153678E+03  0.16441251316E+03  0.92044895838E+02 0.  0.
          4    1    3    3  502    0 -0.52372220412E+03  0.23260189021E+03 -0.28660469275E+03  0.64072680319E+03  0.00000000000E+00 0. -1.
         -3    1    3    3    0  502 -0.18466315531E+02  0.24775279487E+02 -0.48631603338E+01  0.31280498900E+02  0.00000000000E+00 0.  1.
         11    1    5    5    0    0  0.47150524568E+03 -0.19570957188E+03  0.10650621651E+04  0.11810913803E+04  0.00000000000E+00 0. -1.
        -11    1    5    5    0    0  0.89516136709E+02 -0.46862937321E+01  0.24551477653E+03  0.26136680274E+03  0.00000000000E+00 0.  1.
          1    1    6    6  503    0 -0.27740110493E+02  0.18539631648E+02 -0.30491847528E+02  0.45199385367E+02  0.00000000000E+00 0. -1.
         -1    1    6    6    0  503  0.89072477629E+01 -0.75520935737E+02 -0.91809689255E+02  0.11921312779E+03  0.00000000000E+00 0.  1.
<mgrwt>
<rscale>  0 0.20949991E+04</rscale>
<asrwt>0</asrwt>
<pdfrwt beam="1">  1        2 0.10631311E+00 0.20949991E+04</pdfrwt>
<pdfrwt beam="2">  1       -1 0.24428350E+00 0.20949991E+04</pdfrwt>
<totfact> 0.33302910E+00</totfact>
</mgrwt>
</event>
<event>
12    6  0.1402540E-007  0.3335383E+04  0.7818608E-02  0.8153950E-01
          2   -1    0    0  501    0  0.00000000000E+00  0.00000000000E+00  0.11045280887E+04  0.11045280887E+04  0.00000000000E+00 0. -1.
         -1   -1    0    0    0  501 -0.00000000000E+00 -0.00000000000E+00 -0.25179936838E+04  0.25179936838E+04  0.00000000000E+00 0.  1.
         24    2    1    2    0    0 -0.48998707151E+03 -0.84865198914E+03 -0.19527409196E+04  0.21862075714E+04  0.77517204680E+02 0.  0.
        254    2    1    2    0    0  0.48998707151E+03  0.84865198914E+03  0.53927532449E+03  0.14363142011E+04  0.90104554815E+03 0.  0.
         23    2    4    4    0    0  0.34611299817E+03  0.10249042421E+04  0.40853473131E+03  0.11598639182E+04  0.90336975445E+02 0.  0.
         23    2    4    4    0    0  0.14387407333E+03 -0.17625225298E+03  0.13074059318E+03  0.27645028288E+03  0.86988795523E+02 0.  0.
          2    1    3    3  502    0 -0.36926291891E+03 -0.62175991548E+03 -0.13647551345E+04  0.15445054460E+04  0.00000000000E+00 0. -1.
         -1    1    3    3    0  502 -0.12072415259E+03 -0.22689207366E+03 -0.58798578517E+03  0.64170212534E+03  0.00000000000E+00 0.  1.
         11    1    5    5    0    0  0.31171976673E+03  0.87716280174E+03  0.38017881160E+03  0.10055444906E+04  0.00000000000E+00 0.  1.
        -11    1    5    5    0    0  0.34393231439E+02  0.14774144038E+03  0.28355919718E+02  0.15431942767E+03  0.00000000000E+00 0. -1.
          1    1    6    6  503    0  0.19135991574E+02 -0.60590423317E+02  0.73065242641E+02  0.96829309888E+02  0.00000000000E+00 0. -1.
         -1    1    6    6    0  503  0.12473808176E+03 -0.11566182966E+03  0.57675350534E+02  0.17962097300E+03  0.00000000000E+00 0.  1.
<mgrwt>
<rscale>  0 0.33353829E+04</rscale>
<asrwt>0</asrwt>
<pdfrwt beam="1">  1        2 0.16992740E+00 0.33353829E+04</pdfrwt>
<pdfrwt beam="2">  1       -1 0.38738364E+00 0.33353829E+04</pdfrwt>
<totfact> 0.17895648E-01</totfact>
</mgrwt>
</event>
<event>
12    6  0.1402540E-007  0.1886147E+04  0.7818608E-02  0.8661783E-01
         -1   -1    0    0    0  501 -0.00000000000E+00  0.00000000000E+00  0.80554496190E+03  0.80554496190E+03  0.00000000000E+00 0.  1.
          2   -1    0    0  501    0  0.00000000000E+00 -0.00000000000E+00 -0.11040823707E+04  0.11040823707E+04  0.00000000000E+00 0. -1.
         24    2    1    2    0    0  0.62928891973E+03  0.32419884774E+03 -0.27569662249E+03  0.76384185619E+03  0.79600981425E+02 0.  0.
        254    2    1    2    0    0 -0.62928891973E+03 -0.32419884774E+03 -0.22840786275E+02  0.11457854764E+04  0.90066265548E+03 0.  0.
         23    2    4    4    0    0 -0.38221323496E+03 -0.26235463093E+03 -0.44208764045E+03  0.64694934575E+03  0.90471347787E+02 0.  0.
         23    2    4    4    0    0 -0.24707568477E+03 -0.61844216809E+02  0.41924685418E+03  0.49883613063E+03  0.90545344024E+02 0.  0.
          4    1    3    3  502    0  0.40459687075E+03  0.17487631527E+03 -0.19715804620E+03  0.48285779340E+03  0.00000000000E+00 0. -1.
         -3    1    3    3    0  502  0.22469204898E+03  0.14932253247E+03 -0.78538576294E+02  0.28098406280E+03  0.00000000000E+00 0.  1.
         11    1    5    5    0    0 -0.82112641338E+01  0.61041534859E+01 -0.19527564189E+02  0.22045664236E+02  0.00000000000E+00 0. -1.
        -11    1    5    5    0    0 -0.37400197083E+03 -0.26845878442E+03 -0.42256007626E+03  0.62490368151E+03  0.00000000000E+00 0.  1.
          1    1    6    6  503    0 -0.30633933328E+02 -0.21148324638E+02  0.18519109882E+02  0.41577000095E+02  0.00000000000E+00 0. -1.
         -1    1    6    6    0  503 -0.21644175144E+03 -0.40695892172E+02  0.40072774429E+03  0.45725913053E+03  0.00000000000E+00 0.  1.
<mgrwt>
<rscale>  0 0.18861474E+04</rscale>
<asrwt>0</asrwt>
<pdfrwt beam="1">  1        2 0.16985883E+00 0.18861474E+04</pdfrwt>
<pdfrwt beam="2">  1       -1 0.12392999E+00 0.18861474E+04</pdfrwt>
<totfact> 0.13243730E+01</totfact>
</mgrwt>
</event>
<event>
12    6  0.1402540E-007  0.1227771E+04  0.7818608E-02  0.9088890E-01
          2   -1    0    0  501    0  0.00000000000E+00  0.00000000000E+00  0.15244701991E+04  0.15244701991E+04  0.00000000000E+00 0. -1.
         -1   -1    0    0    0  501 -0.00000000000E+00 -0.00000000000E+00 -0.24720428996E+03  0.24720428996E+03  0.00000000000E+00 0.  1.
         24    2    1    2    0    0 -0.10564260200E+03  0.24763482942E+03  0.20623555722E+03  0.34874572038E+03  0.81284096341E+02 0.  0.
        254    2    1    2    0    0  0.10564260200E+03 -0.24763482942E+03  0.10710303519E+04  0.14229287686E+04  0.89729420920E+03 0.  0.
         23    2    4    4    0    0  0.10612851169E+03  0.24790319763E+03  0.80444166066E+03  0.85295631594E+03  0.87686002862E+02 0.  0.
         23    2    4    4    0    0 -0.48590969095E+00 -0.49553802706E+03  0.26658869121E+03  0.56997245270E+03  0.90779370908E+02 0.  0.
          2    1    3    3  502    0 -0.84527437811E+02  0.24548160667E+03  0.19521314305E+03  0.32482961407E+03  0.00000000000E+00 0. -1.
         -1    1    3    3    0  502 -0.21115164186E+02  0.21532227542E+01  0.11022414177E+02  0.23916106312E+02  0.00000000000E+00 0.  1.
         11    1    5    5    0    0  0.13982472576E+02  0.55579922580E+02  0.84568224046E+02  0.10215880702E+03  0.00000000000E+00 0.  1.
        -11    1    5    5    0    0  0.92146039112E+02  0.19232327505E+03  0.71987343662E+03  0.75079750892E+03  0.00000000000E+00 0. -1.
          3    1    6    6  503    0 -0.56333575492E+01 -0.46885034248E+03  0.22446960167E+03  0.51984515044E+03  0.00000000000E+00 0. -1.
         -3    1    6    6    0  503  0.51474478582E+01 -0.26687684572E+02  0.42119089542E+02  0.50127302253E+02  0.00000000000E+00 0.  1.
<mgrwt>
<rscale>  0 0.12277713E+04</rscale>
<asrwt>0</asrwt>
<pdfrwt beam="1">  1        2 0.23453387E+00 0.12277713E+04</pdfrwt>
<pdfrwt beam="2">  1       -1 0.38031430E-01 0.12277713E+04</pdfrwt>
<totfact> 0.92126071E+01</totfact>
</mgrwt>
</event>
<event>
12    6  0.1402540E-007  0.1176146E+04  0.7818608E-02  0.9133996E-01
          2   -1    0    0  501    0  0.00000000000E+00  0.00000000000E+00  0.21157620671E+04  0.21157620671E+04  0.00000000000E+00 0. -1.
         -1   -1    0    0    0  501 -0.00000000000E+00 -0.00000000000E+00 -0.16345412290E+03  0.16345412290E+03  0.00000000000E+00 0.  1.
         24    2    1    2    0    0 -0.21480753880E+03  0.87899926470E+02  0.42464032747E+03  0.49083011203E+03  0.82012897521E+02 0.  0.
        254    2    1    2    0    0  0.21480753880E+03 -0.87899926470E+02  0.15276676168E+04  0.17883860780E+04  0.90038199722E+03 0.  0.
         23    2    4    4    0    0 -0.17275520741E+03  0.12523258381E+03  0.12189044060E+04  0.12411451560E+04  0.95842504381E+02 0.  0.
         23    2    4    4    0    0  0.38756274622E+03 -0.21313251028E+03  0.30876321075E+03  0.54724092196E+03  0.92236419951E+02 0.  0.
          2    1    3    3  502    0 -0.12041419650E+03  0.65810321507E+01  0.23070920606E+03  0.26032600036E+03  0.00000000000E+00 0. -1.
         -1    1    3    3    0  502 -0.94393342307E+02  0.81318894319E+02  0.19393112141E+03  0.23050411167E+03  0.00000000000E+00 0.  1.
         11    1    5    5    0    0 -0.12724971428E+03  0.12944095911E+03  0.83317498664E+03  0.85271801321E+03  0.00000000000E+00 0. -1.
        -11    1    5    5    0    0 -0.45505493129E+02 -0.42083752993E+01  0.38572941937E+03  0.38842714284E+03  0.00000000000E+00 0.  1.
          4    1    6    6  503    0  0.95904220173E+02 -0.10098413341E+03  0.99708277208E+02  0.17128092477E+03  0.00000000000E+00 0. -1.
         -4    1    6    6    0  503  0.29165852604E+03 -0.11214837687E+03  0.20905493354E+03  0.37595999719E+03  0.00000000000E+00 0.  1.
<mgrwt>
<rscale>  0 0.11761463E+04</rscale>
<asrwt>0</asrwt>
<pdfrwt beam="1">  1        2 0.32550184E+00 0.11761463E+04</pdfrwt>
<pdfrwt beam="2">  1       -1 0.25146790E-01 0.11761463E+04</pdfrwt>
<totfact> 0.90103134E+01</totfact>
</mgrwt>
</event>
<event>
12    6  0.1402540E-007  0.1798115E+04  0.7818608E-02  0.8707302E-01
          4   -1    0    0  501    0  0.00000000000E+00  0.00000000000E+00  0.18214752623E+04  0.18214752623E+04  0.00000000000E+00 0. -1.
         -3   -1    0    0    0  501 -0.00000000000E+00 -0.00000000000E+00 -0.44376377054E+03  0.44376377054E+03  0.00000000000E+00 0.  1.
         24    2    1    2    0    0  0.52925925459E+03 -0.12882598953E+02  0.10360194834E+04  0.11661897365E+04  0.79879981564E+02 0.  0.
        254    2    1    2    0    0 -0.52925925459E+03  0.12882598953E+02  0.34169200830E+03  0.10990492964E+04  0.90048576188E+03 0.  0.
         23    2    4    4    0    0 -0.36617050828E+03 -0.31811189182E+03  0.48578593375E+03  0.69254929064E+03  0.91435932111E+02 0.  0.
         23    2    4    4    0    0 -0.16308874631E+03  0.33099449078E+03 -0.14409392545E+03  0.40650000572E+03  0.91235427328E+02 0.  0.
          4    1    3    3  502    0  0.33060207980E+03 -0.30076925658E+02  0.71458023452E+03  0.78792592811E+03  0.00000000000E+00 0. -1.
         -3    1    3    3    0  502  0.19865717479E+03  0.17194326705E+02  0.32143924892E+03  0.37826380836E+03  0.00000000000E+00 0.  1.
         11    1    5    5    0    0 -0.28669646350E+03 -0.19405794392E+03  0.34604878175E+03  0.48949270386E+03  0.00000000000E+00 0.  1.
        -11    1    5    5    0    0 -0.79474044773E+02 -0.12405394791E+03  0.13973715200E+03  0.20305658677E+03  0.00000000000E+00 0. -1.
          4    1    6    6  503    0 -0.86582520026E+02  0.26371974429E+03 -0.11588490829E+03  0.30078887658E+03  0.00000000000E+00 0.  1.
         -4    1    6    6    0  503 -0.76506226287E+02  0.67274746485E+02 -0.28209017161E+02  0.10571112914E+03  0.00000000000E+00 0. -1.
<mgrwt>
<rscale>  0 0.17981154E+04</rscale>
<asrwt>0</asrwt>
<pdfrwt beam="1">  1        4 0.28022696E+00 0.17981154E+04</pdfrwt>
<pdfrwt beam="2">  1       -3 0.68271350E-01 0.17981154E+04</pdfrwt>
<totfact> 0.18246951E-01</totfact>
</mgrwt>
</event>
<event>
12    6  0.1402540E-007  0.2380925E+04  0.7818608E-02  0.8446680E-01
         -1   -1    0    0    0  501 -0.00000000000E+00  0.00000000000E+00  0.20713255791E+04  0.20713255791E+04  0.00000000000E+00 0.  1.
          2   -1    0    0  501    0  0.00000000000E+00 -0.00000000000E+00 -0.68420001620E+03  0.68420001620E+03  0.00000000000E+00 0. -1.
         24    2    1    2    0    0  0.23977354000E+03  0.96768605479E+03  0.82547007872E+03  0.12967854968E+04  0.79650001812E+02 0.  0.
        254    2    1    2    0    0 -0.23977354000E+03 -0.96768605479E+03  0.56165548414E+03  0.14587400984E+04  0.90474202998E+03 0.  0.
         23    2    4    4    0    0 -0.39922276833E+03 -0.53875616085E+02  0.15747654802E+03  0.44277398002E+03  0.94702341292E+02 0.  0.
         23    2    4    4    0    0  0.15944922833E+03 -0.91381043871E+03  0.40417893612E+03  0.10159661184E+04  0.91394567965E+02 0.  0.
          2    1    3    3  502    0  0.17795951184E+03  0.79965042952E+03  0.64599499491E+03  0.10432736605E+04  0.00000000000E+00 0. -1.
         -1    1    3    3    0  502  0.61814028157E+02  0.16803562527E+03  0.17947508381E+03  0.25351183630E+03  0.00000000000E+00 0.  1.
         11    1    5    5    0    0 -0.12384484401E+03  0.81631529550E+01  0.87777695099E+02  0.15201679582E+03  0.00000000000E+00 0.  1.
        -11    1    5    5    0    0 -0.27537792433E+03 -0.62038769040E+02  0.69698852919E+02  0.29075718421E+03  0.00000000000E+00 0. -1.
          3    1    6    6  503    0  0.65707873166E+02 -0.49353615141E+03  0.26120577267E+03  0.56224897779E+03  0.00000000000E+00 0. -1.
         -3    1    6    6    0  503  0.93741355168E+02 -0.42027428729E+03  0.14297316345E+03  0.45371714062E+03  0.00000000000E+00 0.  1.
<mgrwt>
<rscale>  0 0.23809250E+04</rscale>
<asrwt>0</asrwt>
<pdfrwt beam="1">  1        2 0.10526154E+00 0.23809250E+04</pdfrwt>
<pdfrwt beam="2">  1       -1 0.31866547E+00 0.23809250E+04</pdfrwt>
<totfact> 0.10825427E+00</totfact>
</mgrwt>
</event>
<event>
12    6  0.1402540E-007  0.2349880E+04  0.7818608E-02  0.8458510E-01
          2   -1    0    0  501    0  0.00000000000E+00  0.00000000000E+00  0.12121881533E+04  0.12121881533E+04  0.00000000000E+00 0. -1.
         -1   -1    0    0    0  501 -0.00000000000E+00 -0.00000000000E+00 -0.11388359289E+04  0.11388359289E+04  0.00000000000E+00 0.  1.
         24    2    1    2    0    0  0.54979610715E+03  0.50972099501E+03  0.69395607229E+03  0.10246603793E+04  0.79136656500E+02 0.  0.
        254    2    1    2    0    0 -0.54979610715E+03 -0.50972099501E+03 -0.62060384789E+03  0.13263637029E+04  0.90111058372E+03 0.  0.
         23    2    4    4    0    0 -0.24062042359E+02  0.83518913556E+02  0.16738409626E+03  0.20493673124E+03  0.80170052557E+02 0.  0.
         23    2    4    4    0    0 -0.52573406479E+03 -0.59323990857E+03 -0.78798794414E+03  0.11214269716E+04  0.91343070853E+02 0.  0.
          2    1    3    3  502    0  0.33329331869E+03  0.35606813159E+03  0.47008740556E+03  0.67738550286E+03  0.00000000000E+00 0. -1.
         -1    1    3    3    0  502  0.21650278846E+03  0.15365286342E+03  0.22386866673E+03  0.34727487642E+03  0.00000000000E+00 0.  1.
         11    1    5    5    0    0 -0.39957175789E+02  0.71578355211E+02  0.77260462118E+02  0.11264641955E+03  0.00000000000E+00 0. -1.
        -11    1    5    5    0    0  0.15895133430E+02  0.11940558346E+02  0.90123634141E+02  0.92290311686E+02  0.00000000000E+00 0.  1.
          3    1    6    6  503    0 -0.45504732049E+03 -0.54697873148E+03 -0.67879747411E+03  0.98337165276E+03  0.00000000000E+00 0. -1.
         -3    1    6    6    0  503 -0.70686744298E+02 -0.46261177083E+02 -0.10919047003E+03  0.13805531888E+03  0.00000000000E+00 0.  1.
<mgrwt>
<rscale>  0 0.23498795E+04</rscale>
<asrwt>0</asrwt>
<pdfrwt beam="1">  1        2 0.18649048E+00 0.23498795E+04</pdfrwt>
<pdfrwt beam="2">  1       -1 0.17520553E+00 0.23498795E+04</pdfrwt>
<totfact> 0.43210623E+00</totfact>
</mgrwt>
</event>
<event>
12    6  0.1402540E-007  0.2559285E+04  0.7818608E-02  0.8382164E-01
          2   -1    0    0  501    0  0.00000000000E+00  0.00000000000E+00  0.11469511875E+04  0.11469511875E+04  0.00000000000E+00 0. -1.
         -1   -1    0    0    0  501 -0.00000000000E+00 -0.00000000000E+00 -0.14276854818E+04  0.14276854818E+04  0.00000000000E+00 0.  1.
         24    2    1    2    0    0 -0.86679119186E+03  0.61336793590E+03  0.24460516276E+03  0.10928204013E+04  0.82930988311E+02 0.  0.
        254    2    1    2    0    0  0.86679119186E+03 -0.61336793590E+03 -0.52533945709E+03  0.14818162680E+04  0.89008466561E+03 0.  0.
         23    2    4    4    0    0 -0.10838889495E+03 -0.25956132662E+03 -0.28739174422E+03  0.41360032168E+03  0.96700447893E+02 0.  0.
         23    2    4    4    0    0  0.97518008681E+03 -0.35380660928E+03 -0.23794771288E+03  0.10682159464E+04  0.91164003326E+02 0.  0.
          4    1    3    3  502    0 -0.29038341579E+03  0.20481097939E+03  0.12226269515E+03  0.37579014366E+03  0.00000000000E+00 0. -1.
         -3    1    3    3    0  502 -0.57640777606E+03  0.40855695651E+03  0.12234246760E+03  0.71703025766E+03  0.00000000000E+00 0.  1.
         11    1    5    5    0    0  0.67038737352E+01  0.50384491334E+01 -0.12636841992E+02  0.15166333383E+02  0.00000000000E+00 0. -1.
        -11    1    5    5    0    0 -0.11509276869E+03 -0.26459977576E+03 -0.27475490222E+03  0.39843398830E+03  0.00000000000E+00 0.  1.
          1    1    6    6  503    0  0.35357188113E+02 -0.11705593938E+02  0.83859225319E+01  0.38176895859E+02  0.00000000000E+00 0. -1.
         -1    1    6    6    0  503  0.93982289870E+03 -0.34210101534E+03 -0.24633363541E+03  0.10300390505E+04  0.00000000000E+00 0.  1.
<mgrwt>
<rscale>  0 0.25592855E+04</rscale>
<asrwt>0</asrwt>
<pdfrwt beam="1">  1        2 0.17645403E+00 0.25592855E+04</pdfrwt>
<pdfrwt beam="2">  1       -1 0.21964392E+00 0.25592855E+04</pdfrwt>
<totfact> 0.22822566E+00</totfact>
</mgrwt>
</event>
<event>
12    6  0.1402540E-007  0.3100753E+04  0.7818608E-02  0.8215531E-01
         -1   -1    0    0    0  501 -0.00000000000E+00  0.00000000000E+00  0.11496182734E+04  0.11496182734E+04  0.00000000000E+00 0.  1.
          2   -1    0    0  501    0  0.00000000000E+00 -0.00000000000E+00 -0.20908392797E+04  0.20908392797E+04  0.00000000000E+00 0. -1.
         24    2    1    2    0    0 -0.71444982826E+03  0.11251931173E+04  0.76426186554E+02  0.13375458485E+04  0.81791360388E+02 0.  0.
        254    2    1    2    0    0  0.71444982826E+03 -0.11251931173E+04 -0.10176471929E+04  0.19029117046E+04  0.89942706086E+03 0.  0.
         23    2    4    4    0    0  0.15076266053E+03 -0.77612374840E+03 -0.93516504473E+03  0.12280493664E+04  0.92055052417E+02 0.  0.
         23    2    4    4    0    0  0.56368716773E+03 -0.34906936888E+03 -0.82482148199E+02  0.67486233821E+03  0.95095864306E+02 0.  0.
          2    1    3    3  502    0 -0.47112926322E+03  0.67638228198E+03  0.28630925863E+02  0.82478815702E+03  0.00000000000E+00 0. -1.
         -1    1    3    3    0  502 -0.24332056504E+03  0.44881083530E+03  0.47795260691E+02  0.51275769151E+03  0.00000000000E+00 0.  1.
         11    1    5    5    0    0  0.15083637390E+02 -0.13282461685E+03 -0.11084948923E+03  0.17365916106E+03  0.00000000000E+00 0.  1.
        -11    1    5    5    0    0  0.13567902314E+03 -0.64329913155E+03 -0.82431555551E+03  0.10543902053E+04  0.00000000000E+00 0. -1.
          4    1    6    6  503    0  0.15242968365E+03 -0.84661482849E+02  0.19399224996E+02  0.17543860768E+03  0.00000000000E+00 0. -1.
         -4    1    6    6    0  503  0.41125748408E+03 -0.26440788603E+03 -0.10188137320E+03  0.49942373052E+03  0.00000000000E+00 0.  1.
<mgrwt>
<rscale>  0 0.31007528E+04</rscale>
<asrwt>0</asrwt>
<pdfrwt beam="1">  1        2 0.32166758E+00 0.31007528E+04</pdfrwt>
<pdfrwt beam="2">  1       -1 0.17686435E+00 0.31007528E+04</pdfrwt>
<totfact> 0.12585664E+00</totfact>
</mgrwt>
</event>
<event>
12    6  0.1402540E-007  0.1512271E+04  0.7818608E-02  0.8876334E-01
          2   -1    0    0  501    0  0.00000000000E+00  0.00000000000E+00  0.12398449822E+04  0.12398449822E+04  0.00000000000E+00 0. -1.
         -1   -1    0    0    0  501 -0.00000000000E+00 -0.00000000000E+00 -0.46113903279E+03  0.46113903279E+03  0.00000000000E+00 0.  1.
         24    2    1    2    0    0  0.17984820511E+03  0.42618519329E+03  0.41281304302E+03  0.62515064472E+03  0.80121933654E+02 0.  0.
        254    2    1    2    0    0 -0.17984820511E+03 -0.42618519329E+03  0.36589290644E+03  0.10758333703E+04  0.89975587014E+03 0.  0.
         23    2    4    4    0    0  0.89748545084E+02 -0.59210422619E+03  0.42642690482E+03  0.74025390754E+03  0.86566312550E+02 0.  0.
         23    2    4    4    0    0 -0.26959675019E+03  0.16591903290E+03 -0.60533998382E+02  0.33557946277E+03  0.93475545913E+02 0.  0.
          2    1    3    3  502    0  0.15421125829E+03  0.35015983414E+03  0.37749341431E+03  0.53748888311E+03  0.00000000000E+00 0. -1.
         -1    1    3    3    0  502  0.25636946815E+02  0.76025359151E+02  0.35319628716E+02  0.87661761610E+02  0.00000000000E+00 0.  1.
         11    1    5    5    0    0  0.66088308183E+02 -0.36428351190E+03  0.31226397313E+03  0.48433349093E+03  0.00000000000E+00 0.  1.
        -11    1    5    5    0    0  0.23660236901E+02 -0.22782071429E+03  0.11416293169E+03  0.25592041662E+03  0.00000000000E+00 0. -1.
          3    1    6    6  503    0 -0.10833350745E+03  0.68126506571E+02  0.21756538153E+02  0.12981031040E+03  0.00000000000E+00 0. -1.
         -3    1    6    6    0  503 -0.16126324274E+03  0.97792526328E+02 -0.82290536535E+02  0.20576915237E+03  0.00000000000E+00 0.  1.
<mgrwt>
<rscale>  0 0.15122710E+04</rscale>
<asrwt>0</asrwt>
<pdfrwt beam="1">  1        2 0.19074538E+00 0.15122710E+04</pdfrwt>
<pdfrwt beam="2">  1       -1 0.70944467E-01 0.15122710E+04</pdfrwt>
<totfact> 0.39616668E+01</totfact>
</mgrwt>
</event>
<event>
12    6  0.1402540E-007  0.1483131E+04  0.7818608E-02  0.8895748E-01
         -1   -1    0    0    0  501 -0.00000000000E+00  0.00000000000E+00  0.41860534836E+03  0.41860534836E+03  0.00000000000E+00 0.  1.
          2   -1    0    0  501    0  0.00000000000E+00 -0.00000000000E+00 -0.13136948189E+04  0.13136948189E+04  0.00000000000E+00 0. -1.
         24    2    1    2    0    0 -0.22143030140E+03 -0.39889415002E+03 -0.17734693498E+03  0.49407448284E+03  0.67154582498E+02 0.  0.
        254    2    1    2    0    0  0.22143030140E+03  0.39889415002E+03 -0.71774253553E+03  0.12382256844E+04  0.89994476325E+03 0.  0.
         23    2    4    4    0    0  0.50554303901E+03  0.41969208602E+01 -0.38851778513E+03  0.64392284025E+03  0.89995424278E+02 0.  0.
         23    2    4    4    0    0 -0.28411273761E+03  0.39469722916E+03 -0.32922475040E+03  0.59430284415E+03  0.91109735577E+02 0.  0.
          2    1    3    3  502    0 -0.14927980086E+03 -0.32398119629E+03 -0.14605573106E+03  0.38546147806E+03  0.00000000000E+00 0. -1.
         -1    1    3    3    0  502 -0.72150500538E+02 -0.74912953731E+02 -0.31291203924E+02  0.10861300478E+03  0.00000000000E+00 0.  1.
         11    1    5    5    0    0  0.25451838757E+02 -0.64841557034E+01 -0.59666844639E-01  0.26264880191E+02  0.00000000000E+00 0. -1.
        -11    1    5    5    0    0  0.48009120025E+03  0.10681076564E+02 -0.38845811829E+03  0.61765796005E+03  0.00000000000E+00 0.  1.
          3    1    6    6  503    0  0.69460864616E+01  0.65289435940E+01 -0.78364917792E+01  0.12340414296E+02  0.00000000000E+00 0. -1.
         -3    1    6    6    0  503 -0.29105882407E+03  0.38816828556E+03 -0.32138825862E+03  0.58196242986E+03  0.00000000000E+00 0.  1.
<mgrwt>
<rscale>  0 0.14831314E+04</rscale>
<asrwt>0</asrwt>
<pdfrwt beam="1">  1        2 0.20210689E+00 0.14831314E+04</pdfrwt>
<pdfrwt beam="2">  1       -1 0.64400823E-01 0.14831314E+04</pdfrwt>
<totfact> 0.43760054E+01</totfact>
</mgrwt>
</event>
<event>
12    6  0.1402540E-007  0.1349747E+04  0.7818608E-02  0.8991020E-01
          2   -1    0    0  501    0  0.00000000000E+00  0.00000000000E+00  0.22503115011E+04  0.22503115011E+04  0.00000000000E+00 0. -1.
         -1   -1    0    0    0  501 -0.00000000000E+00 -0.00000000000E+00 -0.20239614110E+03  0.20239614110E+03  0.00000000000E+00 0.  1.
         24    2    1    2    0    0 -0.33646308208E+03  0.76260952139E+02  0.80289651263E+03  0.87781491531E+03  0.83024557390E+02 0.  0.
        254    2    1    2    0    0  0.33646308208E+03 -0.76260952139E+02  0.12450188473E+04  0.15748927269E+04  0.90066199677E+03 0.  0.
         23    2    4    4    0    0 -0.28298976233E+03  0.13225683931E+02  0.61243234345E+03  0.68035988416E+03  0.86937174822E+02 0.  0.
         23    2    4    4    0    0  0.61945284441E+03 -0.89486636070E+02  0.63258650389E+03  0.89453284269E+03  0.91069409061E+02 0.  0.
          2    1    3    3  502    0 -0.16512057771E+03  0.79615909541E+02  0.40182383473E+03  0.44166264546E+03  0.00000000000E+00 0. -1.
         -1    1    3    3    0  502 -0.17134250437E+03 -0.33549574017E+01  0.40107267790E+03  0.43615226985E+03  0.00000000000E+00 0.  1.
         11    1    5    5    0    0 -0.18729972573E+03 -0.28268772275E+02  0.43661151083E+03  0.47593058542E+03  0.00000000000E+00 0. -1.
        -11    1    5    5    0    0 -0.95690036601E+02  0.41494456206E+02  0.17582083262E+03  0.20442929874E+03  0.00000000000E+00 0.  1.
          2    1    6    6  503    0  0.23314848256E+03 -0.10332215201E+02  0.28941057802E+03  0.37178414740E+03  0.00000000000E+00 0.  1.
         -2    1    6    6    0  503  0.38630436185E+03 -0.79154420869E+02  0.34317592587E+03  0.52274869529E+03  0.00000000000E+00 0. -1.
<mgrwt>
<rscale>  0 0.13497472E+04</rscale>
<asrwt>0</asrwt>
<pdfrwt beam="1">  1        2 0.34620175E+00 0.13497472E+04</pdfrwt>
<pdfrwt beam="2">  1       -1 0.31137869E-01 0.13497472E+04</pdfrwt>
<totfact> 0.51537902E+01</totfact>
</mgrwt>
</event>
<event>
12    6  0.1402540E-007  0.1292834E+04  0.7818608E-02  0.9035267E-01
          2   -1    0    0  501    0  0.00000000000E+00  0.00000000000E+00  0.82443391557E+03  0.82443391557E+03  0.00000000000E+00 0. -1.
         -1   -1    0    0    0  501 -0.00000000000E+00 -0.00000000000E+00 -0.50683842590E+03  0.50683842590E+03  0.00000000000E+00 0.  1.
         24    2    1    2    0    0  0.32898051888E+03  0.39127540429E+01  0.60589134406E+02  0.34423549910E+03  0.81139042294E+02 0.  0.
        254    2    1    2    0    0 -0.32898051888E+03 -0.39127540429E+01  0.25700635526E+03  0.98703684237E+03  0.89439698686E+03 0.  0.
         23    2    4    4    0    0  0.26049335106E+03  0.93082072176E+02  0.24771088029E+03  0.38190465871E+03  0.89271664140E+02 0.  0.
         23    2    4    4    0    0 -0.58947386994E+03 -0.96994826218E+02  0.92954749710E+01  0.60513218366E+03  0.95974549704E+02 0.  0.
          2    1    3    3  502    0  0.24941948680E+03  0.27892080784E+02  0.70143393217E+02  0.26059191119E+03  0.00000000000E+00 0. -1.
         -1    1    3    3    0  502  0.79561032084E+02 -0.23979326741E+02 -0.95542588108E+01  0.83643587911E+02  0.00000000000E+00 0.  1.
         11    1    5    5    0    0  0.33461644007E+02  0.47087730106E+02  0.35842137744E+02  0.67982312290E+02  0.00000000000E+00 0. -1.
        -11    1    5    5    0    0  0.22703170706E+03  0.45994342069E+02  0.21186874255E+03  0.31392234642E+03  0.00000000000E+00 0.  1.
          3    1    6    6  503    0 -0.15981955440E+03 -0.59053299644E+02  0.31356487671E+02  0.17324206039E+03  0.00000000000E+00 0. -1.
         -3    1    6    6    0  503 -0.42965431554E+03 -0.37941526574E+02 -0.22061012700E+02  0.43189012328E+03  0.00000000000E+00 0.  1.
<mgrwt>
<rscale>  0 0.12928338E+04</rscale>
<asrwt>0</asrwt>
<pdfrwt beam="1">  1        2 0.12683599E+00 0.12928338E+04</pdfrwt>
<pdfrwt beam="2">  1       -1 0.77975142E-01 0.12928338E+04</pdfrwt>
<totfact> 0.61031788E+01</totfact>
</mgrwt>
</event>
<event>
12    6  0.1402540E-007  0.2750268E+04  0.7818608E-02  0.8318877E-01
         -1   -1    0    0    0  501 -0.00000000000E+00  0.00000000000E+00  0.15942800185E+04  0.15942800185E+04  0.00000000000E+00 0.  1.
          2   -1    0    0  501    0  0.00000000000E+00 -0.00000000000E+00 -0.11861113261E+04  0.11861113261E+04  0.00000000000E+00 0. -1.
         24    2    1    2    0    0 -0.52405595849E+03  0.97044661616E+03  0.72478568268E+03  0.13222354443E+04  0.81184986373E+02 0.  0.
        254    2    1    2    0    0  0.52405595849E+03 -0.97044661616E+03 -0.31661699026E+03  0.14581559002E+04  0.89976165089E+03 0.  0.
         23    2    4    4    0    0  0.63894687400E+03 -0.66234311638E+03  0.88567866039E+02  0.92909253727E+03  0.91745105041E+02 0.  0.
         23    2    4    4    0    0 -0.11489091551E+03 -0.30810349978E+03 -0.40518485630E+03  0.52906336296E+03  0.87210006360E+02 0.  0.
          4    1    3    3  502    0 -0.16745269288E+03  0.25690745951E+03  0.17045316527E+03  0.35085057881E+03  0.00000000000E+00 0. -1.
         -3    1    3    3    0  502 -0.35660326561E+03  0.71353915665E+03  0.55433251741E+03  0.97138486553E+03  0.00000000000E+00 0.  1.
         11    1    5    5    0    0  0.11316575054E+03 -0.14427480404E+03 -0.13865622888E+02  0.18388572994E+03  0.00000000000E+00 0.  1.
        -11    1    5    5    0    0  0.52578112346E+03 -0.51806831234E+03  0.10243348893E+03  0.74520680733E+03  0.00000000000E+00 0. -1.
          2    1    6    6  503    0 -0.80378219481E+02 -0.14863361279E+03 -0.14874326350E+03  0.22511589783E+03  0.00000000000E+00 0.  1.
         -2    1    6    6    0  503 -0.34512696033E+02 -0.15946988699E+03 -0.25644159280E+03  0.30394746513E+03  0.00000000000E+00 0. -1.
<mgrwt>
<rscale>  0 0.27502681E+04</rscale>
<asrwt>0</asrwt>
<pdfrwt beam="1">  1        2 0.18247867E+00 0.27502681E+04</pdfrwt>
<pdfrwt beam="2">  1       -1 0.24527385E+00 0.27502681E+04</pdfrwt>
<totfact> 0.14390056E+00</totfact>
</mgrwt>
</event>
<event>
12    6  0.1402540E-007  0.1674157E+04  0.7818608E-02  0.8776242E-01
          2   -1    0    0  501    0  0.00000000000E+00  0.00000000000E+00  0.93178593661E+03  0.93178593661E+03  0.00000000000E+00 0. -1.
         -1   -1    0    0    0  501 -0.00000000000E+00 -0.00000000000E+00 -0.75199759215E+03  0.75199759215E+03  0.00000000000E+00 0.  1.
         24    2    1    2    0    0 -0.28721164834E+03 -0.30033227287E+03 -0.35845155811E+03  0.55463685815E+03  0.80277766754E+02 0.  0.
        254    2    1    2    0    0  0.28721164834E+03  0.30033227287E+03  0.53823990258E+03  0.11291466706E+04  0.90143219708E+03 0.  0.
         23    2    4    4    0    0 -0.44911686955E+02  0.13086440830E+03  0.69477717430E+03  0.71458314461E+03  0.93654661657E+02 0.  0.
         23    2    4    4    0    0  0.33212333530E+03  0.16946786458E+03 -0.15653727172E+03  0.41456352599E+03  0.91289280166E+02 0.  0.
          2    1    3    3  502    0 -0.13120717456E+03 -0.88649045540E+02 -0.10945308816E+03  0.19249403741E+03  0.00000000000E+00 0. -1.
         -1    1    3    3    0  502 -0.15600447378E+03 -0.21168322733E+03 -0.24899846996E+03  0.36214282074E+03  0.00000000000E+00 0.  1.
         11    1    5    5    0    0  0.22841232943E+02  0.55730490096E+02  0.35465602682E+03  0.35973393892E+03  0.00000000000E+00 0. -1.
        -11    1    5    5    0    0 -0.67752919898E+02  0.75133918200E+02  0.34012114748E+03  0.35484920569E+03  0.00000000000E+00 0.  1.
          3    1    6    6  503    0  0.64436558130E+02  0.76483357514E+02 -0.50109810428E+02  0.11186048052E+03  0.00000000000E+00 0. -1.
         -3    1    6    6    0  503  0.26768677717E+03  0.92984507064E+02 -0.10642746129E+03  0.30270304548E+03  0.00000000000E+00 0.  1.
<mgrwt>
<rscale>  0 0.16741574E+04</rscale>
<asrwt>0</asrwt>
<pdfrwt beam="1">  1        2 0.14335168E+00 0.16741574E+04</pdfrwt>
<pdfrwt beam="2">  1       -1 0.11569194E+00 0.16741574E+04</pdfrwt>
<totfact> 0.20553484E+01</totfact>
</mgrwt>
</event>
<event>
12    6  0.1402540E-007  0.2544850E+04  0.7818608E-02  0.8387180E-01
          2   -1    0    0  501    0  0.00000000000E+00  0.00000000000E+00  0.30458246495E+04  0.30458246495E+04  0.00000000000E+00 0. -1.
         -1   -1    0    0    0  501 -0.00000000000E+00 -0.00000000000E+00 -0.53156861279E+03  0.53156861279E+03  0.00000000000E+00 0.  1.
         24    2    1    2    0    0 -0.10812723765E+04  0.20352955032E+03  0.88351015790E+03  0.14134849321E+04  0.82311750244E+02 0.  0.
        254    2    1    2    0    0  0.10812723765E+04 -0.20352955032E+03  0.16307458788E+04  0.21639083302E+04  0.90143935469E+03 0.  0.
         23    2    4    4    0    0  0.45874281849E+03 -0.29984348312E+03  0.13666356659E+04  0.14751332844E+04  0.89297679264E+02 0.  0.
         23    2    4    4    0    0  0.62252955799E+03  0.96313932805E+02  0.26411021295E+03  0.68877504582E+03  0.88529288573E+02 0.  0.
          4    1    3    3  502    0 -0.83800783577E+03  0.15898924179E+03  0.72761347110E+03  0.11211405243E+04  0.00000000000E+00 0. -1.
         -3    1    3    3    0  502 -0.24326454071E+03  0.44540308529E+02  0.15589668680E+03  0.29234440786E+03  0.00000000000E+00 0.  1.
         11    1    5    5    0    0  0.13686784723E+03 -0.13225404193E+03  0.41150566904E+03  0.45338819445E+03  0.00000000000E+00 0.  1.
        -11    1    5    5    0    0  0.32187497126E+03 -0.16758944119E+03  0.95512999685E+03  0.10217450899E+04  0.00000000000E+00 0. -1.
          4    1    6    6  503    0  0.25658998356E+03  0.10668341363E+02  0.72112442052E+02  0.26674414233E+03  0.00000000000E+00 0. -1.
         -4    1    6    6    0  503  0.36593957444E+03  0.85645591441E+02  0.19199777090E+03  0.42203090349E+03  0.00000000000E+00 0.  1.
<mgrwt>
<rscale>  0 0.25448495E+04</rscale>
<asrwt>0</asrwt>
<pdfrwt beam="1">  1        2 0.46858840E+00 0.25448495E+04</pdfrwt>
<pdfrwt beam="2">  1       -1 0.81779788E-01 0.25448495E+04</pdfrwt>
<totfact> 0.24500099E+00</totfact>
</mgrwt>
</event>
<event>
12    6  0.1402540E-007  0.3642862E+04  0.7818608E-02  0.8080743E-01
         -1   -1    0    0    0  501 -0.00000000000E+00  0.00000000000E+00  0.97295278989E+03  0.97295278989E+03  0.00000000000E+00 0.  1.
          2   -1    0    0  501    0  0.00000000000E+00 -0.00000000000E+00 -0.34098383896E+04  0.34098383896E+04  0.00000000000E+00 0. -1.
         24    2    1    2    0    0 -0.48767094282E+03  0.15681368096E+04 -0.17153673537E+04  0.23758277339E+04  0.72085094434E+02 0.  0.
        254    2    1    2    0    0  0.48767094282E+03 -0.15681368096E+04 -0.72151824599E+03  0.20069634456E+04  0.90024312857E+03 0.  0.
         23    2    4    4    0    0 -0.70153118698E+02 -0.10616526784E+04 -0.19982538814E+03  0.10862669418E+04  0.89542243669E+02 0.  0.
         23    2    4    4    0    0  0.55782406152E+03 -0.50648413118E+03 -0.52169285785E+03  0.92069650380E+03  0.88457647709E+02 0.  0.
          4    1    3    3  502    0 -0.12230321199E+03  0.33720144372E+03 -0.33950497565E+03  0.49388917563E+03  0.00000000000E+00 0. -1.
         -3    1    3    3    0  502 -0.36536773083E+03  0.12309353659E+04 -0.13758623781E+04  0.18819385583E+04  0.00000000000E+00 0.  1.
         11    1    5    5    0    0 -0.65672664031E+02 -0.60584268275E+03 -0.15104800251E+03  0.62783258446E+03  0.00000000000E+00 0. -1.
        -11    1    5    5    0    0 -0.44804546676E+01 -0.45580999567E+03 -0.48777385629E+02  0.45843435733E+03  0.00000000000E+00 0.  1.
          3    1    6    6  503    0  0.30335348399E+03 -0.27597381474E+03 -0.23017471909E+03  0.47028213231E+03  0.00000000000E+00 0. -1.
         -3    1    6    6    0  503  0.25447057754E+03 -0.23051031644E+03 -0.29151813877E+03  0.45041437149E+03  0.00000000000E+00 0.  1.
<mgrwt>
<rscale>  0 0.36428625E+04</rscale>
<asrwt>0</asrwt>
<pdfrwt beam="1">  1        2 0.52459052E+00 0.36428625E+04</pdfrwt>
<pdfrwt beam="2">  1       -1 0.14968504E+00 0.36428625E+04</pdfrwt>
<totfact> 0.30321380E-01</totfact>
</mgrwt>
</event>
<event>
12    6  0.1402540E-007  0.2700729E+04  0.7818608E-02  0.8334768E-01
         -1   -1    0    0    0  501 -0.00000000000E+00  0.00000000000E+00  0.19334111162E+04  0.19334111162E+04  0.00000000000E+00 0.  1.
          2   -1    0    0  501    0  0.00000000000E+00 -0.00000000000E+00 -0.94314373194E+03  0.94314373194E+03  0.00000000000E+00 0. -1.
         24    2    1    2    0    0  0.80843477400E+03 -0.33455234016E+02 -0.50238715359E+03  0.95577745086E+03  0.80197549755E+02 0.  0.
        254    2    1    2    0    0 -0.80843477400E+03  0.33455234016E+02  0.14926545379E+04  0.19207773973E+04  0.89815488868E+03 0.  0.
         23    2    4    4    0    0 -0.87336608899E+03  0.28771103810E+03  0.12198606618E+04  0.15303788756E+04  0.91942926375E+02 0.  0.
         23    2    4    4    0    0  0.64931314993E+02 -0.25425580408E+03  0.27279387609E+03  0.39039852176E+03  0.95563682326E+02 0.  0.
          2    1    3    3  502    0  0.23774765709E+03 -0.11009832329E+02 -0.19175604178E+03  0.30563956619E+03  0.00000000000E+00 0. -1.
         -1    1    3    3    0  502  0.57068711691E+03 -0.22445401687E+02 -0.31063111180E+03  0.65013788467E+03  0.00000000000E+00 0.  1.
         11    1    5    5    0    0 -0.14639761832E+03  0.13079240982E+02  0.19828244987E+03  0.24681827144E+03  0.00000000000E+00 0. -1.
        -11    1    5    5    0    0 -0.72696847067E+03  0.27463179712E+03  0.10215782119E+04  0.12835606041E+04  0.00000000000E+00 0.  1.
          4    1    6    6  503    0  0.76381809938E+02 -0.13326812806E+03  0.11856105447E+03  0.19403942507E+03  0.00000000000E+00 0. -1.
         -4    1    6    6    0  503 -0.11450494945E+02 -0.12098767602E+03  0.15423282163E+03  0.19635909668E+03  0.00000000000E+00 0.  1.
<mgrwt>
<rscale>  0 0.27007292E+04</rscale>
<asrwt>0</asrwt>
<pdfrwt beam="1">  1        2 0.14509904E+00 0.27007292E+04</pdfrwt>
<pdfrwt beam="2">  1       -1 0.29744786E+00 0.27007292E+04</pdfrwt>
<totfact> 0.94124708E-01</totfact>
</mgrwt>
</event>
<event>
12    6  0.1402540E-007  0.4379636E+04  0.7818608E-02  0.7932054E-01
         -1   -1    0    0    0  501 -0.00000000000E+00  0.00000000000E+00  0.21118769716E+04  0.21118769716E+04  0.00000000000E+00 0.  1.
          2   -1    0    0  501    0  0.00000000000E+00 -0.00000000000E+00 -0.22706357993E+04  0.22706357993E+04  0.00000000000E+00 0. -1.
         24    2    1    2    0    0 -0.20193133263E+04 -0.36505573576E+03 -0.50705693750E+03  0.21150834932E+04  0.74695684084E+02 0.  0.
        254    2    1    2    0    0  0.20193133263E+04  0.36505573576E+03  0.34829810980E+03  0.22674292777E+04  0.89946203710E+03 0.  0.
         23    2    4    4    0    0  0.17442166495E+04  0.31711738102E+03  0.60553346546E+03  0.18762301431E+04  0.10350661047E+03 0.  0.
         23    2    4    4    0    0  0.27509667683E+03  0.47938354740E+02 -0.25723535566E+03  0.39119913463E+03  0.94289274445E+02 0.  0.
          4    1    3    3  502    0 -0.90958014993E+03 -0.13829872610E+03 -0.19967726868E+03  0.94145291885E+03  0.00000000000E+00 0. -1.
         -3    1    3    3    0  502 -0.11097331764E+04 -0.22675700966E+03 -0.30737966882E+03  0.11736305743E+04  0.00000000000E+00 0.  1.
         11    1    5    5    0    0  0.54563931240E+03  0.10139861120E+03  0.24062235528E+03  0.60489921098E+03  0.00000000000E+00 0. -1.
        -11    1    5    5    0    0  0.11985773371E+04  0.21571876982E+03  0.36491111018E+03  0.12713309321E+04  0.00000000000E+00 0.  1.
          1    1    6    6  503    0  0.97501368829E+02  0.63968422439E+01 -0.35202170299E+02  0.10385869876E+03  0.00000000000E+00 0. -1.
         -1    1    6    6    0  503  0.17759530800E+03  0.41541512496E+02 -0.22203318536E+03  0.28734043587E+03  0.00000000000E+00 0.  1.
<mgrwt>
<rscale>  0 0.43796363E+04</rscale>
<asrwt>0</asrwt>
<pdfrwt beam="1">  1        2 0.34932858E+00 0.43796363E+04</pdfrwt>
<pdfrwt beam="2">  1       -1 0.32490415E+00 0.43796363E+04</pdfrwt>
<totfact> 0.93199314E-02</totfact>
</mgrwt>
</event>
<event>
12    6  0.1402540E-007  0.1444811E+04  0.7818608E-02  0.8922006E-01
          2   -1    0    0  501    0  0.00000000000E+00  0.00000000000E+00  0.29647313172E+04  0.29647313172E+04  0.00000000000E+00 0. -1.
         -1   -1    0    0    0  501 -0.00000000000E+00 -0.00000000000E+00 -0.17602598610E+03  0.17602598610E+03  0.00000000000E+00 0.  1.
         24    2    1    2    0    0  0.93694199425E+02  0.40420990737E+03  0.54322296109E+03  0.68617897056E+03  0.59884405050E+02 0.  0.
        254    2    1    2    0    0 -0.93694199425E+02 -0.40420990737E+03  0.22454823701E+04  0.24545783328E+04  0.90033297469E+03 0.  0.
         23    2    4    4    0    0 -0.77511165865E+02  0.20854867302E+03  0.17750834468E+03  0.29567265649E+03  0.80078570860E+02 0.  0.
         23    2    4    4    0    0 -0.16183033559E+02 -0.61275858039E+03  0.20679740254E+04  0.21589056763E+04  0.92855700321E+02 0.  0.
          2    1    3    3  502    0  0.41794467715E+02  0.22641991847E+03  0.34617286064E+03  0.41575041365E+03  0.00000000000E+00 0. -1.
         -1    1    3    3    0  502  0.51899731710E+02  0.17778998890E+03  0.19705010045E+03  0.27042855691E+03  0.00000000000E+00 0.  1.
         11    1    5    5    0    0 -0.85661014854E+02  0.18061781820E+03  0.17632319704E+03  0.26655295071E+03  0.00000000000E+00 0. -1.
        -11    1    5    5    0    0  0.81498489887E+01  0.27930854818E+02  0.11851476336E+01  0.29119705773E+02  0.00000000000E+00 0.  1.
          1    1    6    6  503    0 -0.48852873338E+01 -0.57126739741E+03  0.18307407564E+04  0.19178065654E+04  0.00000000000E+00 0. -1.
         -1    1    6    6    0  503 -0.11297746225E+02 -0.41491182983E+02  0.23723326903E+03  0.24109911089E+03  0.00000000000E+00 0.  1.
<mgrwt>
<rscale>  0 0.14448111E+04</rscale>
<asrwt>0</asrwt>
<pdfrwt beam="1">  1        2 0.45611247E+00 0.14448111E+04</pdfrwt>
<pdfrwt beam="2">  1       -1 0.27080923E-01 0.14448111E+04</pdfrwt>
<totfact> 0.24888693E+01</totfact>
</mgrwt>
</event>
<event>
12    6  0.1402540E-007  0.1630188E+04  0.7818608E-02  0.8802214E-01
         -1   -1    0    0    0  501 -0.00000000000E+00  0.00000000000E+00  0.71458029740E+03  0.71458029740E+03  0.00000000000E+00 0.  1.
          2   -1    0    0  501    0  0.00000000000E+00 -0.00000000000E+00 -0.92974633352E+03  0.92974633352E+03  0.00000000000E+00 0. -1.
         24    2    1    2    0    0 -0.36459224186E+03 -0.40270481158E+03  0.77888207869E+02  0.55379696105E+03  0.74335947232E+02 0.  0.
        254    2    1    2    0    0  0.36459224186E+03  0.40270481158E+03 -0.29305424399E+03  0.10905296699E+04  0.89904143557E+03 0.  0.
         23    2    4    4    0    0 -0.25755235552E+03  0.13267325991E+02  0.46681929456E+02  0.27730896842E+03  0.90619113069E+02 0.  0.
         23    2    4    4    0    0  0.62214459738E+03  0.38943748558E+03 -0.33973617344E+03  0.81322070145E+03  0.84745421711E+02 0.  0.
          4    1    3    3  502    0 -0.12548203784E+03 -0.19324139507E+03  0.31886169033E+02  0.23260418389E+03  0.00000000000E+00 0. -1.
         -3    1    3    3    0  502 -0.23911020401E+03 -0.20946341651E+03  0.46002038836E+02  0.32119277715E+03  0.00000000000E+00 0.  1.
         11    1    5    5    0    0 -0.13402453302E+03 -0.20946817032E+02  0.60219750614E+02  0.14841752915E+03  0.00000000000E+00 0. -1.
        -11    1    5    5    0    0 -0.12352782250E+03  0.34214143023E+02 -0.13537821157E+02  0.12889143927E+03  0.00000000000E+00 0.  1.
          1    1    6    6  503    0  0.45230877688E+03  0.31848176838E+03 -0.27777234929E+03  0.61900835573E+03  0.00000000000E+00 0. -1.
         -1    1    6    6    0  503  0.16983582049E+03  0.70955717208E+02 -0.61963824156E+02  0.19421234572E+03  0.00000000000E+00 0.  1.
<mgrwt>
<rscale>  0 0.16301882E+04</rscale>
<asrwt>0</asrwt>
<pdfrwt beam="1">  1        2 0.14303790E+00 0.16301882E+04</pdfrwt>
<pdfrwt beam="2">  1       -1 0.10993543E+00 0.16301882E+04</pdfrwt>
<totfact> 0.23370110E+01</totfact>
</mgrwt>
</event>
<event>
12    6  0.1402540E-007  0.2223114E+04  0.7818608E-02  0.8508869E-01
          4   -1    0    0  501    0  0.00000000000E+00  0.00000000000E+00  0.10295664215E+04  0.10295664215E+04  0.00000000000E+00 0. -1.
         -1   -1    0    0    0  501 -0.00000000000E+00 -0.00000000000E+00 -0.12000770513E+04  0.12000770513E+04  0.00000000000E+00 0.  1.
         24    2    1    2    0    0  0.10005798782E+03  0.41895586649E+03  0.75323639610E+03  0.87135855125E+03  0.79781184733E+02 0.  0.
        254    2    1    2    0    0 -0.10005798782E+03 -0.41895586649E+03 -0.92374702589E+03  0.13582849215E+04  0.89782723341E+03 0.  0.
         23    2    4    4    0    0 -0.42658332076E+03  0.21905454547E+02 -0.36529702409E+03  0.57010321327E+03  0.95512195445E+02 0.  0.
         23    2    4    4    0    0  0.32652533294E+03 -0.44086132104E+03 -0.55845000180E+03  0.78818170820E+03  0.91577853144E+02 0.  0.
          2    1    3    3  502    0  0.23614765471E+01  0.13937969999E+03  0.28611664026E+03  0.31826876877E+03  0.00000000000E+00 0. -1.
         -1    1    3    3    0  502  0.97696511271E+02  0.27957616651E+03  0.46711975584E+03  0.55308978248E+03  0.00000000000E+00 0.  1.
         11    1    5    5    0    0 -0.11737470700E+03  0.47842769403E+02 -0.12024980455E+03  0.17471624974E+03  0.00000000000E+00 0. -1.
        -11    1    5    5    0    0 -0.30920861377E+03 -0.25937314856E+02 -0.24504721954E+03  0.39538696353E+03  0.00000000000E+00 0.  1.
          2    1    6    6  503    0  0.26768955939E+03 -0.39731622114E+03 -0.44958195982E+03  0.65699453451E+03  0.00000000000E+00 0. -1.
         -2    1    6    6    0  503  0.58835773555E+02 -0.43545099905E+02 -0.10886804198E+03  0.13118717369E+03  0.00000000000E+00 0.  1.
<mgrwt>
<rscale>  0 0.22231141E+04</rscale>
<asrwt>0</asrwt>
<pdfrwt beam="1">  1        4 0.15839483E+00 0.22231141E+04</pdfrwt>
<pdfrwt beam="2">  1       -1 0.18462724E+00 0.22231141E+04</pdfrwt>
<totfact> 0.18695948E-01</totfact>
</mgrwt>
</event>
<event>
12    6  0.1402540E-007  0.2564974E+04  0.7818608E-02  0.8380197E-01
         -1   -1    0    0    0  501 -0.00000000000E+00  0.00000000000E+00  0.11065330856E+04  0.11065330856E+04  0.00000000000E+00 0.  1.
          2   -1    0    0  501    0  0.00000000000E+00 -0.00000000000E+00 -0.14864203502E+04  0.14864203502E+04  0.00000000000E+00 0. -1.
         24    2    1    2    0    0  0.20823934050E+03 -0.63603171964E+03 -0.10777388679E+04  0.12712095614E+04  0.80948812020E+02 0.  0.
        254    2    1    2    0    0 -0.20823934050E+03  0.63603171964E+03  0.69785160325E+03  0.13217438744E+04  0.90117148095E+03 0.  0.
         23    2    4    4    0    0  0.17054667041E+03  0.42694461917E+03  0.74167559066E+03  0.87734365107E+03  0.91001789294E+02 0.  0.
         23    2    4    4    0    0 -0.37878601091E+03  0.20908710047E+03 -0.43823987414E+02  0.44440022335E+03  0.91513709316E+02 0.  0.
          4    1    3    3  502    0  0.14851121679E+03 -0.54112357651E+03 -0.92125349344E+03  0.10786928690E+04  0.00000000000E+00 0. -1.
         -3    1    3    3    0  502  0.59728123711E+02 -0.94908143139E+02 -0.15648537449E+03  0.19251669233E+03  0.00000000000E+00 0.  1.
         11    1    5    5    0    0  0.48944804984E+02  0.49525896767E+02  0.14606968897E+03  0.16181706468E+03  0.00000000000E+00 0. -1.
        -11    1    5    5    0    0  0.12160186543E+03  0.37741872241E+03  0.59560590169E+03  0.71552658639E+03  0.00000000000E+00 0.  1.
          2    1    6    6  503    0 -0.27633231130E+02  0.48369343423E+02 -0.11367102141E+02  0.56854198234E+02  0.00000000000E+00 0. -1.
         -2    1    6    6    0  503 -0.35115277978E+03  0.16071775705E+03 -0.32456885273E+02  0.38754602512E+03  0.00000000000E+00 0.  1.
<mgrwt>
<rscale>  0 0.25649743E+04</rscale>
<asrwt>0</asrwt>
<pdfrwt beam="1">  1        2 0.22868005E+00 0.25649743E+04</pdfrwt>
<pdfrwt beam="2">  1       -1 0.17023586E+00 0.25649743E+04</pdfrwt>
<totfact> 0.31996494E+00</totfact>
</mgrwt>
</event>
<event>
12    6  0.1402540E-007  0.2661768E+04  0.7818608E-02  0.8347518E-01
         -1   -1    0    0    0  501 -0.00000000000E+00  0.00000000000E+00  0.17404065362E+04  0.17404065362E+04  0.00000000000E+00 0.  1.
          2   -1    0    0  501    0  0.00000000000E+00 -0.00000000000E+00 -0.10177229790E+04  0.10177229790E+04  0.00000000000E+00 0. -1.
         24    2    1    2    0    0 -0.74719165270E+03  0.19621312158E+03  0.12403826196E+04  0.14631908671E+04  0.74722924777E+02 0.  0.
        254    2    1    2    0    0  0.74719165270E+03 -0.19621312158E+03 -0.51769906241E+03  0.12949386481E+04  0.90114306757E+03 0.  0.
         23    2    4    4    0    0  0.71988458968E+03 -0.24106901155E+03  0.14682110015E+01  0.76548011709E+03  0.98028379688E+02 0.  0.
         23    2    4    4    0    0  0.27307063018E+02  0.44855889971E+02 -0.51916727341E+03  0.52945853103E+03  0.89632314169E+02 0.  0.
          4    1    3    3  502    0 -0.40470158710E+03  0.10635420620E+03  0.60118959446E+03  0.73247765854E+03  0.00000000000E+00 0. -1.
         -3    1    3    3    0  502 -0.34249006560E+03  0.89858915374E+02  0.63919302516E+03  0.73071320853E+03  0.00000000000E+00 0.  1.
         11    1    5    5    0    0  0.82735084008E+02  0.30044684254E+01 -0.74413054534E+01  0.83123366048E+02  0.00000000000E+00 0.  1.
        -11    1    5    5    0    0  0.63714950567E+03 -0.24407347998E+03  0.89095164549E+01  0.68235675104E+03  0.00000000000E+00 0. -1.
          3    1    6    6  503    0 -0.96125764436E+01  0.41385219376E+02 -0.43989123926E+03  0.44193827667E+03  0.00000000000E+00 0. -1.
         -3    1    6    6    0  503  0.36919639461E+02  0.34706705944E+01 -0.79276034147E+02  0.87520254355E+02  0.00000000000E+00 0.  1.
<mgrwt>
<rscale>  0 0.26617676E+04</rscale>
<asrwt>0</asrwt>
<pdfrwt beam="1">  1        2 0.15657277E+00 0.26617676E+04</pdfrwt>
<pdfrwt beam="2">  1       -1 0.26775485E+00 0.26617676E+04</pdfrwt>
<totfact> 0.13152106E+00</totfact>
</mgrwt>
</event>
<event>
12    6  0.1402540E-007  0.3745182E+04  0.7818608E-02  0.8058022E-01
          2   -1    0    0  501    0  0.00000000000E+00  0.00000000000E+00  0.32712036290E+04  0.32712036290E+04  0.00000000000E+00 0. -1.
         -1   -1    0    0    0  501 -0.00000000000E+00 -0.00000000000E+00 -0.10719592389E+04  0.10719592389E+04  0.00000000000E+00 0.  1.
         24    2    1    2    0    0  0.14904847391E+04 -0.94211612839E+03  0.11107955959E+04  0.20853992356E+04  0.76782545232E+02 0.  0.
        254    2    1    2    0    0 -0.14904847391E+04  0.94211612839E+03  0.10884487942E+04  0.22577636323E+04  0.89646432459E+03 0.  0.
         23    2    4    4    0    0 -0.31568624450E+03  0.46445090084E+03  0.75110592307E+03  0.94227772480E+03  0.91404369270E+02 0.  0.
         23    2    4    4    0    0 -0.11747984946E+04  0.47766522755E+03  0.33734287108E+03  0.13154859075E+04  0.91582683003E+02 0.  0.
          4    1    3    3  502    0  0.12100037412E+04 -0.77387420679E+03  0.87004310381E+03  0.16792752437E+04  0.00000000000E+00 0. -1.
         -3    1    3    3    0  502  0.28048099785E+03 -0.16824192160E+03  0.24075249210E+03  0.40612399189E+03  0.00000000000E+00 0.  1.
         11    1    5    5    0    0 -0.26425124396E+03  0.42662789152E+03  0.69526922498E+03  0.85746100375E+03  0.00000000000E+00 0.  1.
        -11    1    5    5    0    0 -0.51435000548E+02  0.37823009327E+02  0.55836698096E+02  0.84816721053E+02  0.00000000000E+00 0. -1.
          1    1    6    6  503    0 -0.23776227537E+03  0.10991272070E+03  0.33876928974E+02  0.26411995774E+03  0.00000000000E+00 0. -1.
         -1    1    6    6    0  503 -0.93703621919E+03  0.36775250685E+03  0.30346594211E+03  0.10513659498E+04  0.00000000000E+00 0.  1.
<mgrwt>
<rscale>  0 0.37451819E+04</rscale>
<asrwt>0</asrwt>
<pdfrwt beam="1">  1        2 0.50326209E+00 0.37451819E+04</pdfrwt>
<pdfrwt beam="2">  1       -1 0.16491681E+00 0.37451819E+04</pdfrwt>
<totfact> 0.28529968E-01</totfact>
</mgrwt>
</event>
<event>
12    6  0.1402540E-007  0.2636968E+04  0.7818608E-02  0.8355751E-01
          2   -1    0    0  501    0  0.00000000000E+00  0.00000000000E+00  0.13788445481E+04  0.13788445481E+04  0.00000000000E+00 0. -1.
         -1   -1    0    0    0  501 -0.00000000000E+00 -0.00000000000E+00 -0.12607658721E+04  0.12607658721E+04  0.00000000000E+00 0.  1.
         24    2    1    2    0    0  0.76552879855E+03  0.86572282188E+03  0.95538661450E+02  0.11623930239E+04  0.80743794796E+02 0.  0.
        254    2    1    2    0    0 -0.76552879855E+03 -0.86572282188E+03  0.22540014592E+02  0.14772173963E+04  0.91986566299E+03 0.  0.
         23    2    4    4    0    0 -0.78467960607E+03 -0.97228578731E+03 -0.14443662365E+03  0.12610951193E+04  0.91854369514E+02 0.  0.
         23    2    4    4    0    0  0.19150807525E+02  0.10656296543E+03  0.16697663824E+03  0.21612227703E+03  0.84292478203E+02 0.  0.
          2    1    3    3  502    0  0.49566106339E+03  0.51478585543E+03  0.83984290111E+02  0.71953994170E+03  0.00000000000E+00 0. -1.
         -1    1    3    3    0  502  0.26986773516E+03  0.35093696645E+03  0.11554371339E+02  0.44285308218E+03  0.00000000000E+00 0.  1.
         11    1    5    5    0    0 -0.10013276947E+03 -0.15233676657E+03 -0.48594085630E+02  0.18866490699E+03  0.00000000000E+00 0. -1.
        -11    1    5    5    0    0 -0.68454683661E+03 -0.81994902074E+03 -0.95842538020E+02  0.10724302123E+04  0.00000000000E+00 0.  1.
          1    1    6    6  503    0 -0.77333625679E+01  0.30185839653E+02  0.11675438816E+03  0.12084112283E+03  0.00000000000E+00 0. -1.
         -1    1    6    6    0  503  0.26884170093E+02  0.76377125775E+02  0.50222250084E+02  0.95281154205E+02  0.00000000000E+00 0.  1.
<mgrwt>
<rscale>  0 0.26369681E+04</rscale>
<asrwt>0</asrwt>
<pdfrwt beam="1">  1        2 0.21212993E+00 0.26369681E+04</pdfrwt>
<pdfrwt beam="2">  1       -1 0.19396398E+00 0.26369681E+04</pdfrwt>
<totfact> 0.24779878E+00</totfact>
</mgrwt>
</event>
<event>
12    6  0.1402540E-007  0.1545277E+04  0.7818608E-02  0.8854890E-01
         -1   -1    0    0    0  501 -0.00000000000E+00  0.00000000000E+00  0.56311823614E+03  0.56311823614E+03  0.00000000000E+00 0.  1.
          2   -1    0    0  501    0  0.00000000000E+00 -0.00000000000E+00 -0.10601150700E+04  0.10601150700E+04  0.00000000000E+00 0. -1.
         24    2    1    2    0    0  0.28076971076E+03 -0.37100501032E+03 -0.37460396586E+03  0.60262679015E+03  0.79715549329E+02 0.  0.
        254    2    1    2    0    0 -0.28076971076E+03  0.37100501032E+03 -0.12239286800E+03  0.10206065160E+04  0.90010071559E+03 0.  0.
         23    2    4    4    0    0  0.19343550600E+03 -0.17050505845E+03  0.41904720052E+02  0.27657167748E+03  0.90810887452E+02 0.  0.
         23    2    4    4    0    0 -0.47420521676E+03  0.54151006878E+03 -0.16429758805E+03  0.74403483852E+03  0.92143373607E+02 0.  0.
          4    1    3    3  502    0  0.86402822750E+02 -0.74403906390E+02 -0.12364565749E+03  0.16819523680E+03  0.00000000000E+00 0. -1.
         -3    1    3    3    0  502  0.19436688801E+03 -0.29660110393E+03 -0.25095830837E+03  0.43443155335E+03  0.00000000000E+00 0.  1.
         11    1    5    5    0    0  0.83288600533E+02 -0.36983215345E+02  0.48740506448E+02  0.10334595379E+03  0.00000000000E+00 0. -1.
        -11    1    5    5    0    0  0.11014690547E+03 -0.13352184311E+03 -0.68357863962E+01  0.17322572369E+03  0.00000000000E+00 0.  1.
          4    1    6    6  503    0 -0.32576063786E+02  0.24301422500E+02 -0.30699439035E+02  0.50933433267E+02  0.00000000000E+00 0. -1.
         -4    1    6    6    0  503 -0.44162915298E+03  0.51720864628E+03 -0.13359814902E+03  0.69310140525E+03  0.00000000000E+00 0.  1.
<mgrwt>
<rscale>  0 0.15452768E+04</rscale>
<asrwt>0</asrwt>
<pdfrwt beam="1">  1        2 0.16309462E+00 0.15452768E+04</pdfrwt>
<pdfrwt beam="2">  1       -1 0.86633576E-01 0.15452768E+04</pdfrwt>
<totfact> 0.33288258E+01</totfact>
</mgrwt>
</event>
<event>
12    6  0.1402540E-007  0.1929343E+04  0.7818608E-02  0.8640387E-01
         -3   -1    0    0    0  501 -0.00000000000E+00  0.00000000000E+00  0.98649963672E+03  0.98649963672E+03  0.00000000000E+00 0.  1.
          4   -1    0    0  501    0  0.00000000000E+00 -0.00000000000E+00 -0.94332596585E+03  0.94332596585E+03  0.00000000000E+00 0. -1.
         24    2    1    2    0    0  0.26668805541E+03 -0.70241999538E+03  0.57893998845E+02  0.75777885052E+03  0.79754011780E+02 0.  0.
        254    2    1    2    0    0 -0.26668805541E+03  0.70241999538E+03 -0.14720327971E+02  0.11720467520E+04  0.89942233246E+03 0.  0.
         23    2    4    4    0    0  0.21376766776E+03  0.34295305704E+03 -0.28999601652E+03  0.50583135965E+03  0.91947048309E+02 0.  0.
         23    2    4    4    0    0 -0.48045572317E+03  0.35946693833E+03  0.27527568855E+03  0.66621539239E+03  0.89510126121E+02 0.  0.
          2    1    3    3  502    0  0.18254398406E+03 -0.39020456323E+03  0.56009598745E+02  0.43441798125E+03  0.00000000000E+00 0. -1.
         -1    1    3    3    0  502  0.84144071355E+02 -0.31221543214E+03  0.18844000997E+01  0.32336086927E+03  0.00000000000E+00 0.  1.
         11    1    5    5    0    0  0.97564327599E+02  0.17949844308E+03 -0.92167115727E+02  0.22412779013E+03  0.00000000000E+00 0.  1.
        -11    1    5    5    0    0  0.11620334016E+03  0.16345461397E+03 -0.19782890080E+03  0.28170356952E+03  0.00000000000E+00 0. -1.
          3    1    6    6  503    0 -0.23255096440E+03  0.14863036509E+03  0.17013031670E+03  0.32421483792E+03  0.00000000000E+00 0. -1.
         -3    1    6    6    0  503 -0.24790475877E+03  0.21083657325E+03  0.10514537185E+03  0.34200055447E+03  0.00000000000E+00 0.  1.
<mgrwt>
<rscale>  0 0.19293426E+04</rscale>
<asrwt>0</asrwt>
<pdfrwt beam="1">  1        4 0.14512707E+00 0.19293426E+04</pdfrwt>
<pdfrwt beam="2">  1       -3 0.15176918E+00 0.19293426E+04</pdfrwt>
<totfact> 0.21727499E-01</totfact>
</mgrwt>
</event>
<event>
12    6  0.1402540E-007  0.3342396E+04  0.7818608E-02  0.8152191E-01
         -1   -1    0    0    0  501 -0.00000000000E+00  0.00000000000E+00  0.10932504388E+04  0.10932504388E+04  0.00000000000E+00 0.  1.
          2   -1    0    0  501    0  0.00000000000E+00 -0.00000000000E+00 -0.25546772725E+04  0.25546772725E+04  0.00000000000E+00 0. -1.
         24    2    1    2    0    0  0.47391794850E+02  0.15377828900E+04 -0.47022587652E+03  0.16106840086E+04  0.78539173152E+02 0.  0.
        254    2    1    2    0    0 -0.47391794850E+02 -0.15377828900E+04 -0.99120095715E+03  0.20372437026E+04  0.89490802177E+03 0.  0.
         23    2    4    4    0    0 -0.27654370032E+03 -0.49289447081E+03  0.65655161087E+01  0.57145481706E+03  0.84238497145E+02 0.  0.
         23    2    4    4    0    0  0.22915190547E+03 -0.10448884192E+04 -0.99776647326E+03  0.14657888856E+04  0.93256193062E+02 0.  0.
          4    1    3    3  502    0  0.33102032210E+02  0.12756289021E+04 -0.41983362903E+03  0.13433484717E+04  0.00000000000E+00 0. -1.
         -3    1    3    3    0  502  0.14289762640E+02  0.26215398794E+03 -0.50392247487E+02  0.26733553695E+03  0.00000000000E+00 0.  1.
         11    1    5    5    0    0 -0.11599109868E+03 -0.16041806802E+03 -0.30861154957E+02  0.20035044897E+03  0.00000000000E+00 0. -1.
        -11    1    5    5    0    0 -0.16055260164E+03 -0.33247640279E+03  0.37426671066E+02  0.37110436808E+03  0.00000000000E+00 0.  1.
          1    1    6    6  503    0  0.18214632115E+03 -0.67294906389E+03 -0.60886192993E+03  0.92560821875E+03  0.00000000000E+00 0. -1.
         -1    1    6    6    0  503  0.47005584320E+02 -0.37193935532E+03 -0.38890454333E+03  0.54018066683E+03  0.00000000000E+00 0.  1.
<mgrwt>
<rscale>  0 0.33423956E+04</rscale>
<asrwt>0</asrwt>
<pdfrwt beam="1">  1        2 0.39302727E+00 0.33423956E+04</pdfrwt>
<pdfrwt beam="2">  1       -1 0.16819238E+00 0.33423956E+04</pdfrwt>
<totfact> 0.77621201E-01</totfact>
</mgrwt>
</event>
<event>
12    6  0.1402540E-007  0.3356956E+04  0.7818608E-02  0.8148552E-01
         -1   -1    0    0    0  501 -0.00000000000E+00  0.00000000000E+00  0.14285212426E+04  0.14285212426E+04  0.00000000000E+00 0.  1.
          2   -1    0    0  501    0  0.00000000000E+00 -0.00000000000E+00 -0.19721708139E+04  0.19721708139E+04  0.00000000000E+00 0. -1.
         24    2    1    2    0    0  0.75891472344E+03 -0.87069788709E+03 -0.13098755966E+04  0.17481540831E+04  0.78754374738E+02 0.  0.
        254    2    1    2    0    0 -0.75891472344E+03  0.87069788709E+03  0.76622602525E+03  0.16525379734E+04  0.89984057693E+03 0.  0.
         23    2    4    4    0    0 -0.53107886814E+03  0.78371915068E+02  0.59295116314E+03  0.80521146727E+03  0.92668786015E+02 0.  0.
         23    2    4    4    0    0 -0.22783585530E+03  0.79232597202E+03  0.17327486211E+03  0.84732650618E+03  0.90820742865E+02 0.  0.
          4    1    3    3  502    0  0.38987221433E+03 -0.47654786557E+03 -0.74947190695E+03  0.96995172611E+03  0.00000000000E+00 0. -1.
         -3    1    3    3    0  502  0.36904250911E+03 -0.39415002152E+03 -0.56040368967E+03  0.77820235697E+03  0.00000000000E+00 0.  1.
         11    1    5    5    0    0 -0.16721773749E+03  0.58511940930E+01  0.24413889126E+03  0.29597264473E+03  0.00000000000E+00 0. -1.
        -11    1    5    5    0    0 -0.36386113065E+03  0.72520720975E+02  0.34881227188E+03  0.50923882254E+03  0.00000000000E+00 0.  1.
          1    1    6    6  503    0 -0.23383369004E+03  0.77292850540E+03  0.17697050634E+03  0.82668931840E+03  0.00000000000E+00 0. -1.
         -1    1    6    6    0  503  0.59978347307E+01  0.19397466625E+02 -0.36956442362E+01  0.20637187774E+02  0.00000000000E+00 0.  1.
<mgrwt>
<rscale>  0 0.33569557E+04</rscale>
<asrwt>0</asrwt>
<pdfrwt beam="1">  1        2 0.30341089E+00 0.33569557E+04</pdfrwt>
<pdfrwt beam="2">  1       -1 0.21977250E+00 0.33569557E+04</pdfrwt>
<totfact> 0.72311245E-01</totfact>
</mgrwt>
</event>
<event>
12    6  0.1402540E-007  0.2087744E+04  0.7818608E-02  0.8566662E-01
          2   -1    0    0  501    0  0.00000000000E+00  0.00000000000E+00  0.14465479320E+04  0.14465479320E+04  0.00000000000E+00 0. -1.
         -1   -1    0    0    0  501 -0.00000000000E+00 -0.00000000000E+00 -0.75328888380E+03  0.75328888380E+03  0.00000000000E+00 0.  1.
         24    2    1    2    0    0 -0.53742787251E+03 -0.62791430435E+03  0.48234217585E+03  0.96008292538E+03  0.77460681867E+02 0.  0.
        254    2    1    2    0    0  0.53742787251E+03  0.62791430435E+03  0.21091687235E+03  0.12397538904E+04  0.89966587688E+03 0.  0.
         23    2    4    4    0    0  0.76120567189E+03  0.57355538725E+03  0.83064970219E+02  0.96111756989E+03  0.91909394020E+02 0.  0.
         23    2    4    4    0    0 -0.22377779938E+03  0.54358917105E+02  0.12785190213E+03  0.27863632054E+03  0.90888364942E+02 0.  0.
          2    1    3    3  502    0 -0.32144207641E+03 -0.37865516197E+03  0.33325923914E+03  0.59813582124E+03  0.00000000000E+00 0. -1.
         -1    1    3    3    0  502 -0.21598579610E+03 -0.24925914238E+03  0.14908293671E+03  0.36194710414E+03  0.00000000000E+00 0.  1.
         11    1    5    5    0    0  0.28100871081E+02  0.46451112960E+02 -0.85785505681E+00  0.54296415775E+02  0.00000000000E+00 0.  1.
        -11    1    5    5    0    0  0.73310480081E+03  0.52710427429E+03  0.83922825276E+02  0.90682115411E+03  0.00000000000E+00 0. -1.
          4    1    6    6  503    0 -0.21050710406E+03  0.59403280723E+02  0.14021399399E+03  0.25981138299E+03  0.00000000000E+00 0. -1.
         -4    1    6    6    0  503 -0.13270695319E+02 -0.50443636175E+01 -0.12362091861E+02  0.18824937550E+02  0.00000000000E+00 0.  1.
<mgrwt>
<rscale>  0 0.20877437E+04</rscale>
<asrwt>0</asrwt>
<pdfrwt beam="1">  1        2 0.22254584E+00 0.20877437E+04</pdfrwt>
<pdfrwt beam="2">  1       -1 0.11589060E+00 0.20877437E+04</pdfrwt>
<totfact> 0.96402477E+00</totfact>
</mgrwt>
</event>
<event>
12    6  0.1402540E-007  0.2472818E+04  0.7818608E-02  0.8412734E-01
          2   -1    0    0  501    0  0.00000000000E+00  0.00000000000E+00  0.23357459660E+04  0.23357459660E+04  0.00000000000E+00 0. -1.
         -1   -1    0    0    0  501 -0.00000000000E+00 -0.00000000000E+00 -0.65448369291E+03  0.65448369291E+03  0.00000000000E+00 0.  1.
         24    2    1    2    0    0 -0.39539025818E+02  0.49296222987E+03  0.18785161389E+04  0.19441749190E+04  0.80113276866E+02 0.  0.
        254    2    1    2    0    0  0.39539025818E+02 -0.49296222987E+03 -0.19725386578E+03  0.10460547399E+04  0.90041453602E+03 0.  0.
         23    2    4    4    0    0 -0.79125841504E+02  0.16728339002E+03 -0.29693114490E+03  0.36182018313E+03  0.92201457361E+02 0.  0.
         23    2    4    4    0    0  0.11866486732E+03 -0.66024561989E+03  0.99677279125E+02  0.68423455677E+03  0.90750974563E+02 0.  0.
          2    1    3    3  502    0 -0.26415658663E+01  0.39134109117E+03  0.15312642884E+04  0.15804825682E+04  0.00000000000E+00 0. -1.
         -1    1    3    3    0  502 -0.36897459952E+02  0.10162113869E+03  0.34725185046E+03  0.36369235080E+03  0.00000000000E+00 0.  1.
         11    1    5    5    0    0  0.11134549561E+02  0.15484921636E+02 -0.79227024598E+02  0.81490382369E+02  0.00000000000E+00 0. -1.
        -11    1    5    5    0    0 -0.90260391065E+02  0.15179846839E+03 -0.21770412030E+03  0.28032980076E+03  0.00000000000E+00 0.  1.
          1    1    6    6  503    0 -0.12157480718E+02 -0.26634068083E+02  0.10685928960E+02  0.31166761105E+02  0.00000000000E+00 0. -1.
         -1    1    6    6    0  503  0.13082234804E+03 -0.63361155180E+03  0.88991350165E+02  0.65306779566E+03  0.00000000000E+00 0.  1.
<mgrwt>
<rscale>  0 0.24728183E+04</rscale>
<asrwt>0</asrwt>
<pdfrwt beam="1">  1        2 0.35934553E+00 0.24728183E+04</pdfrwt>
<pdfrwt beam="2">  1       -1 0.10068980E+00 0.24728183E+04</pdfrwt>
<totfact> 0.41263954E+00</totfact>
</mgrwt>
</event>
<event>
12    6  0.1402540E-007  0.3393449E+04  0.7818608E-02  0.8139516E-01
          2   -1    0    0  501    0  0.00000000000E+00  0.00000000000E+00  0.22985762968E+04  0.22985762968E+04  0.00000000000E+00 0. -1.
         -1   -1    0    0    0  501 -0.00000000000E+00 -0.00000000000E+00 -0.12524595696E+04  0.12524595696E+04  0.00000000000E+00 0.  1.
         24    2    1    2    0    0  0.85456268566E+03 -0.49634270680E+03 -0.79822155464E+03  0.12731907008E+04  0.84990846400E+02 0.  0.
        254    2    1    2    0    0 -0.85456268566E+03  0.49634270680E+03  0.18443382818E+04  0.22778451656E+04  0.90020077457E+03 0.  0.
         23    2    4    4    0    0 -0.80619643156E+03 -0.17905549346E+02  0.10826462048E+04  0.13529615759E+04  0.90049576477E+02 0.  0.
         23    2    4    4    0    0 -0.48366254106E+02  0.51424825615E+03  0.76169207702E+03  0.92488358971E+03  0.91892713735E+02 0.  0.
          2    1    3    3  502    0  0.75911282465E+03 -0.44866078661E+03 -0.67699540899E+03  0.11116976054E+04  0.00000000000E+00 0. -1.
         -1    1    3    3    0  502  0.95449861008E+02 -0.47681920194E+02 -0.12122614565E+03  0.16149309542E+03  0.00000000000E+00 0.  1.
         11    1    5    5    0    0 -0.33325259204E+03  0.16402653915E+02  0.51036722590E+03  0.60975490357E+03  0.00000000000E+00 0. -1.
        -11    1    5    5    0    0 -0.47294383952E+03 -0.34308203260E+02  0.57227897891E+03  0.74320667237E+03  0.00000000000E+00 0.  1.
          3    1    6    6  503    0 -0.38558956113E+01  0.21265630357E+03  0.24031106846E+03  0.32091584723E+03  0.00000000000E+00 0. -1.
         -3    1    6    6    0  503 -0.44510358495E+02  0.30159195258E+03  0.52138100855E+03  0.60396774248E+03  0.00000000000E+00 0.  1.
<mgrwt>
<rscale>  0 0.33934489E+04</rscale>
<asrwt>0</asrwt>
<pdfrwt beam="1">  1        2 0.35362712E+00 0.33934489E+04</pdfrwt>
<pdfrwt beam="2">  1       -1 0.19268609E+00 0.33934489E+04</pdfrwt>
<totfact> 0.72412180E-01</totfact>
</mgrwt>
</event>
<event>
12    6  0.1402540E-007  0.3562858E+04  0.7818608E-02  0.8099053E-01
         -1   -1    0    0    0  501 -0.00000000000E+00  0.00000000000E+00  0.17144498555E+04  0.17144498555E+04  0.00000000000E+00 0.  1.
          2   -1    0    0  501    0  0.00000000000E+00 -0.00000000000E+00 -0.18510246305E+04  0.18510246305E+04  0.00000000000E+00 0. -1.
         24    2    1    2    0    0  0.10147847302E+04  0.20019974518E+02  0.12597754904E+04  0.16197589393E+04  0.79974290797E+02 0.  0.
        254    2    1    2    0    0 -0.10147847302E+04 -0.20019974518E+02 -0.13963502653E+04  0.19457155467E+04  0.89767815888E+03 0.  0.
         23    2    4    4    0    0 -0.84386614669E+03 -0.34226079233E+03 -0.69263023016E+03  0.11478408186E+04  0.92462888383E+02 0.  0.
         23    2    4    4    0    0 -0.17091858355E+03  0.32224081781E+03 -0.70372003517E+03  0.79787472802E+03  0.91268213742E+02 0.  0.
          4    1    3    3  502    0  0.52211196007E+03  0.50145657519E+02  0.64387250034E+03  0.83047413115E+03  0.00000000000E+00 0. -1.
         -1    1    3    3    0  502  0.49267277017E+03 -0.30125683001E+02  0.61590299007E+03  0.78928480818E+03  0.00000000000E+00 0.  1.
         11    1    5    5    0    0 -0.89250801701E+02 -0.24327673056E+02 -0.40265779129E+02  0.10089040712E+03  0.00000000000E+00 0. -1.
        -11    1    5    5    0    0 -0.75461534499E+03 -0.31793311927E+03 -0.65236445103E+03  0.10469504115E+04  0.00000000000E+00 0.  1.
          4    1    6    6  503    0 -0.10657777453E+01  0.40940110718E+01  0.24876934952E+01  0.49076906774E+01  0.00000000000E+00 0. -1.
         -4    1    6    6    0  503 -0.16985280580E+03  0.31814680674E+03 -0.70620772867E+03  0.79296703734E+03  0.00000000000E+00 0.  1.
<mgrwt>
<rscale>  0 0.35628578E+04</rscale>
<asrwt>0</asrwt>
<pdfrwt beam="1">  1        2 0.28477302E+00 0.35628578E+04</pdfrwt>
<pdfrwt beam="2">  1       -1 0.26376152E+00 0.35628578E+04</pdfrwt>
<totfact> 0.42649601E-01</totfact>
</mgrwt>
</event>
<event>
12    6  0.1402540E-007  0.2371619E+04  0.7818608E-02  0.8450206E-01
          2   -1    0    0  501    0  0.00000000000E+00  0.00000000000E+00  0.11049317458E+04  0.11049317458E+04  0.00000000000E+00 0. -1.
         -1   -1    0    0    0  501 -0.00000000000E+00 -0.00000000000E+00 -0.12726077747E+04  0.12726077747E+04  0.00000000000E+00 0.  1.
         24    2    1    2    0    0  0.44849451541E+03 -0.12655029865E+03 -0.97426399897E+03  0.10834512330E+04  0.86682906224E+02 0.  0.
        254    2    1    2    0    0 -0.44849451541E+03  0.12655029865E+03  0.80658797000E+03  0.12940882875E+04  0.89828616486E+03 0.  0.
         23    2    4    4    0    0 -0.10317071488E+03 -0.13804132582E+03  0.82673019940E+03  0.84948058051E+03  0.91841330686E+02 0.  0.
         23    2    4    4    0    0 -0.34532380053E+03  0.26459162448E+03 -0.20142229396E+02  0.44460770696E+03  0.89515633985E+02 0.  0.
          4    1    3    3  502    0  0.82432035784E+02  0.10542349112E+02 -0.16886340905E+03  0.18820476234E+03  0.00000000000E+00 0. -1.
         -3    1    3    3    0  502  0.36606247962E+03 -0.13709264777E+03 -0.80540058991E+03  0.89524647070E+03  0.00000000000E+00 0.  1.
         11    1    5    5    0    0 -0.65806723208E+02 -0.13309594494E+03  0.53131537052E+03  0.55167116866E+03  0.00000000000E+00 0. -1.
        -11    1    5    5    0    0 -0.37363991670E+02 -0.49453808846E+01  0.29541482888E+03  0.29780941185E+03  0.00000000000E+00 0.  1.
          1    1    6    6  503    0 -0.11288508947E+02  0.45567590606E+01  0.15595674612E+02  0.19784325968E+02  0.00000000000E+00 0. -1.
         -1    1    6    6    0  503 -0.33403529158E+03  0.26003486542E+03 -0.35737904009E+02  0.42482338099E+03  0.00000000000E+00 0.  1.
<mgrwt>
<rscale>  0 0.23716195E+04</rscale>
<asrwt>0</asrwt>
<pdfrwt beam="1">  1        2 0.16998950E+00 0.23716195E+04</pdfrwt>
<pdfrwt beam="2">  1       -1 0.19578581E+00 0.23716195E+04</pdfrwt>
<totfact> 0.35784196E+00</totfact>
</mgrwt>
</event>
<event>
12    6  0.1402540E-007  0.1901109E+04  0.7818608E-02  0.8654304E-01
          2   -1    0    0  501    0  0.00000000000E+00  0.00000000000E+00  0.15727200534E+04  0.15727200534E+04  0.00000000000E+00 0. -1.
         -1   -1    0    0    0  501 -0.00000000000E+00 -0.00000000000E+00 -0.57451688537E+03  0.57451688537E+03  0.00000000000E+00 0.  1.
         24    2    1    2    0    0  0.11301047138E+03 -0.25348473825E+03 -0.37952546700E+03  0.47807835161E+03  0.86564721496E+02 0.  0.
        254    2    1    2    0    0 -0.11301047138E+03  0.25348473825E+03  0.13777286351E+04  0.16691585872E+04  0.90051558465E+03 0.  0.
         23    2    4    4    0    0 -0.17696830285E+03  0.23969459259E+03  0.14837294376E+04  0.15155850544E+04  0.82302704873E+02 0.  0.
         23    2    4    4    0    0  0.63957831473E+02  0.13790145663E+02 -0.10600080255E+03  0.15357353277E+03  0.89821420068E+02 0.  0.
          4    1    3    3  502    0  0.81750705485E+01 -0.35050317726E+02 -0.12123561756E+02  0.37978116078E+02  0.00000000000E+00 0. -1.
         -3    1    3    3    0  502  0.10483540083E+03 -0.21843442053E+03 -0.36740190524E+03  0.44010023553E+03  0.00000000000E+00 0.  1.
         11    1    5    5    0    0 -0.58309850574E+02  0.66719310863E+02  0.64329822621E+03  0.64937209130E+03  0.00000000000E+00 0. -1.
        -11    1    5    5    0    0 -0.11865845228E+03  0.17297528173E+03  0.84043121141E+03  0.86621296313E+03  0.00000000000E+00 0.  1.
          2    1    6    6  503    0 -0.19895359904E+02  0.16941855938E+02 -0.16584825191E+02  0.30950092971E+02  0.00000000000E+00 0. -1.
         -2    1    6    6    0  503  0.83853191377E+02 -0.31517102753E+01 -0.89415977361E+02  0.12262343980E+03  0.00000000000E+00 0.  1.
<mgrwt>
<rscale>  0 0.19011094E+04</rscale>
<asrwt>0</asrwt>
<pdfrwt beam="1">  1        2 0.24195693E+00 0.19011094E+04</pdfrwt>
<pdfrwt beam="2">  1       -1 0.88387214E-01 0.19011094E+04</pdfrwt>
<totfact> 0.15492283E+01</totfact>
</mgrwt>
</event>
<event>
12    6  0.1402540E-007  0.1546043E+04  0.7818608E-02  0.8854399E-01
          2   -1    0    0  501    0  0.00000000000E+00  0.00000000000E+00  0.21021309419E+04  0.21021309419E+04  0.00000000000E+00 0. -1.
         -1   -1    0    0    0  501 -0.00000000000E+00 -0.00000000000E+00 -0.28426492356E+03  0.28426492356E+03  0.00000000000E+00 0.  1.
         24    2    1    2    0    0 -0.17715394029E+03  0.36737002164E+03  0.10696227545E+04  0.11474941727E+04  0.79408993145E+02 0.  0.
        254    2    1    2    0    0  0.17715394029E+03 -0.36737002164E+03  0.74824326388E+03  0.12389016927E+04  0.89925812256E+03 0.  0.
         23    2    4    4    0    0 -0.20256996572E+03 -0.19541534183E+03 -0.81542184933E+02  0.30582717668E+03  0.87517925231E+02 0.  0.
         23    2    4    4    0    0  0.37972390601E+03 -0.17195467981E+03  0.82978544881E+03  0.93307451607E+03  0.91244204023E+02 0.  0.
          4    1    3    3  502    0 -0.72918406715E+01  0.23774222846E+01  0.61243787792E+02  0.61722156639E+02  0.00000000000E+00 0. -1.
         -3    1    3    3    0  502 -0.16986209962E+03  0.36499259936E+03  0.10083789667E+04  0.10857720161E+04  0.00000000000E+00 0.  1.
         11    1    5    5    0    0 -0.54133695973E+02 -0.69902501328E+01 -0.97732196480E+01  0.55451207912E+02  0.00000000000E+00 0. -1.
        -11    1    5    5    0    0 -0.14843626975E+03 -0.18842509169E+03 -0.71768965285E+02  0.25037596877E+03  0.00000000000E+00 0.  1.
          3    1    6    6  503    0  0.81504769397E+02 -0.77818581103E+02  0.25314096794E+03  0.27709043406E+03  0.00000000000E+00 0. -1.
         -3    1    6    6    0  503  0.29821913662E+03 -0.94136098712E+02  0.57664448087E+03  0.65598408200E+03  0.00000000000E+00 0.  1.
<mgrwt>
<rscale>  0 0.15460428E+04</rscale>
<asrwt>0</asrwt>
<pdfrwt beam="1">  1        2 0.32340475E+00 0.15460428E+04</pdfrwt>
<pdfrwt beam="2">  1       -1 0.43733066E-01 0.15460428E+04</pdfrwt>
<totfact> 0.33214388E+01</totfact>
</mgrwt>
</event>
<event>
12    6  0.1402540E-007  0.3379297E+04  0.7818608E-02  0.8143006E-01
          2   -1    0    0  501    0  0.00000000000E+00  0.00000000000E+00  0.21532138520E+04  0.21532138520E+04  0.00000000000E+00 0. -1.
         -1   -1    0    0    0  501 -0.00000000000E+00 -0.00000000000E+00 -0.13258843262E+04  0.13258843262E+04  0.00000000000E+00 0.  1.
         24    2    1    2    0    0  0.13231045159E+04 -0.46776298755E+03 -0.33762980647E+03  0.14456175561E+04  0.80052856024E+02 0.  0.
        254    2    1    2    0    0 -0.13231045159E+04  0.46776298755E+03  0.11649593322E+04  0.20334806221E+04  0.89916929553E+03 0.  0.
         23    2    4    4    0    0 -0.13382937317E+04  0.56614130180E+03  0.83833930409E+03  0.16801546913E+04  0.92525196081E+02 0.  0.
         23    2    4    4    0    0  0.15189215815E+02 -0.98378314247E+02  0.32662002813E+03  0.35332593077E+03  0.90827119233E+02 0.  0.
          2    1    3    3  502    0  0.11569710316E+04 -0.38235265154E+03 -0.28220399739E+03  0.12507656113E+04  0.00000000000E+00 0. -1.
         -1    1    3    3    0  502  0.16613348427E+03 -0.85410336018E+02 -0.55425809081E+02  0.19485194484E+03  0.00000000000E+00 0.  1.
         11    1    5    5    0    0 -0.11519443343E+04  0.47095321062E+03  0.68346976805E+03  0.14198252004E+04  0.00000000000E+00 0.  1.
        -11    1    5    5    0    0 -0.18634939744E+03  0.95188091181E+02  0.15486953605E+03  0.26032949089E+03  0.00000000000E+00 0. -1.
          2    1    6    6  503    0 -0.32940454170E+02 -0.68894944667E+02  0.15751488530E+03  0.17505006716E+03  0.00000000000E+00 0. -1.
         -2    1    6    6    0  503  0.48129669985E+02 -0.29483369580E+02  0.16910514283E+03  0.17827586361E+03  0.00000000000E+00 0.  1.
<mgrwt>
<rscale>  0 0.33792973E+04</rscale>
<asrwt>0</asrwt>
<pdfrwt beam="1">  1        2 0.33126367E+00 0.33792973E+04</pdfrwt>
<pdfrwt beam="2">  1       -1 0.20398220E+00 0.33792973E+04</pdfrwt>
<totfact> 0.73149690E-01</totfact>
</mgrwt>
</event>
<event>
12    6  0.1402540E-007  0.2741126E+04  0.7818608E-02  0.8321783E-01
         -1   -1    0    0    0  501 -0.00000000000E+00  0.00000000000E+00  0.89113267696E+03  0.89113267696E+03  0.00000000000E+00 0.  1.
          2   -1    0    0  501    0  0.00000000000E+00 -0.00000000000E+00 -0.21079278546E+04  0.21079278546E+04  0.00000000000E+00 0. -1.
         24    2    1    2    0    0 -0.65657767991E+03  0.76788024082E+03  0.20755092545E+03  0.10343359513E+04  0.77712029185E+02 0.  0.
        254    2    1    2    0    0  0.65657767991E+03 -0.76788024082E+03 -0.14243461031E+04  0.19647245803E+04  0.90035911778E+03 0.  0.
         23    2    4    4    0    0  0.36631876136E+03 -0.91923860120E+03 -0.11968528374E+04  0.15556742391E+04  0.92068359973E+02 0.  0.
         23    2    4    4    0    0  0.29025891855E+03  0.15135836038E+03 -0.22749326572E+03  0.40905034121E+03  0.91702795163E+02 0.  0.
          2    1    3    3  502    0 -0.47733677890E+03  0.51058932893E+03  0.12464739970E+03  0.70999213908E+03  0.00000000000E+00 0. -1.
         -1    1    3    3    0  502 -0.17924090102E+03  0.25729091189E+03  0.82903525755E+02  0.32434381221E+03  0.00000000000E+00 0.  1.
         11    1    5    5    0    0  0.16316628596E+03 -0.43499014925E+03 -0.63250290608E+03  0.78479270704E+03  0.00000000000E+00 0. -1.
        -11    1    5    5    0    0  0.20315247540E+03 -0.48424845195E+03 -0.56434993133E+03  0.77088153206E+03  0.00000000000E+00 0.  1.
          3    1    6    6  503    0  0.24898056809E+03  0.89211234692E+02 -0.18922438090E+03  0.32520122080E+03  0.00000000000E+00 0. -1.
         -3    1    6    6    0  503  0.41278350457E+02  0.62147125691E+02 -0.38268884818E+02  0.83849120408E+02  0.00000000000E+00 0.  1.
<mgrwt>
<rscale>  0 0.27411263E+04</rscale>
<asrwt>0</asrwt>
<pdfrwt beam="1">  1        2 0.32429659E+00 0.27411263E+04</pdfrwt>
<pdfrwt beam="2">  1       -1 0.13709733E+00 0.27411263E+04</pdfrwt>
<totfact> 0.25605891E+00</totfact>
</mgrwt>
</event>
<event>
12    6  0.1402540E-007  0.2669880E+04  0.7818608E-02  0.8344845E-01
         -1   -1    0    0    0  501 -0.00000000000E+00  0.00000000000E+00  0.23959475097E+04  0.23959475097E+04  0.00000000000E+00 0.  1.
          2   -1    0    0  501    0  0.00000000000E+00 -0.00000000000E+00 -0.74378278150E+03  0.74378278150E+03  0.00000000000E+00 0. -1.
         24    2    1    2    0    0  0.47226026588E+03 -0.10551922503E+04  0.44494257247E+03  0.12413940796E+04  0.81393637408E+02 0.  0.
        254    2    1    2    0    0 -0.47226026588E+03  0.10551922503E+04  0.12072221558E+04  0.18983362117E+04  0.89990810392E+03 0.  0.
         23    2    4    4    0    0 -0.28331297925E+03  0.48751055051E+03  0.11580501321E+04  0.12914586964E+04  0.94088655715E+02 0.  0.
         23    2    4    4    0    0 -0.18894728663E+03  0.56768169976E+03  0.49172023701E+02  0.60687751527E+03  0.88987871386E+02 0.  0.
          4    1    3    3  502    0  0.16346409421E+03 -0.28029271661E+03  0.11242260034E+03  0.34339970610E+03  0.00000000000E+00 0. -1.
         -3    1    3    3    0  502  0.30879617167E+03 -0.77489953366E+03  0.33251997213E+03  0.89799437346E+03  0.00000000000E+00 0.  1.
         11    1    5    5    0    0 -0.19600174809E+03  0.36859459634E+03  0.93587890593E+03  0.10247672849E+04  0.00000000000E+00 0.  1.
        -11    1    5    5    0    0 -0.87311231160E+02  0.11891595416E+03  0.22217122613E+03  0.26669141149E+03  0.00000000000E+00 0. -1.
          3    1    6    6  503    0 -0.88140861694E+02  0.39580272270E+03  0.38760512011E+02  0.40734627050E+03  0.00000000000E+00 0. -1.
         -3    1    6    6    0  503 -0.10080642493E+03  0.17187897706E+03  0.10411511690E+02  0.19953124477E+03  0.00000000000E+00 0.  1.
<mgrwt>
<rscale>  0 0.26698798E+04</rscale>
<asrwt>0</asrwt>
<pdfrwt beam="1">  1        2 0.11442812E+00 0.26698798E+04</pdfrwt>
<pdfrwt beam="2">  1       -1 0.36860731E+00 0.26698798E+04</pdfrwt>
<totfact> 0.44385619E-01</totfact>
</mgrwt>
</event>
<event>
12    6  0.1402540E-007  0.2387533E+04  0.7818608E-02  0.8444186E-01
          2   -1    0    0  501    0  0.00000000000E+00  0.00000000000E+00  0.18565367127E+04  0.18565367127E+04  0.00000000000E+00 0. -1.
         -1   -1    0    0    0  501 -0.00000000000E+00 -0.00000000000E+00 -0.76760030857E+03  0.76760030857E+03  0.00000000000E+00 0.  1.
         24    2    1    2    0    0 -0.40332235207E+03 -0.92035913829E+03  0.25975832230E+03  0.10410854815E+04  0.81576533062E+02 0.  0.
        254    2    1    2    0    0  0.40332235207E+03  0.92035913829E+03  0.82917808182E+03  0.15830515397E+04  0.89932531539E+03 0.  0.
         23    2    4    4    0    0  0.57483597977E+03  0.95188193553E+03  0.55578845247E+03  0.12464581899E+04  0.90783216740E+02 0.  0.
         23    2    4    4    0    0 -0.17151362770E+03 -0.31522797233E+02  0.27338962936E+03  0.33659334982E+03  0.90236259199E+02 0.  0.
          4    1    3    3  502    0 -0.32585496438E+03 -0.72393550435E+03  0.23810965449E+03  0.82883067018E+03  0.00000000000E+00 0. -1.
         -3    1    3    3    0  502 -0.77467387688E+02 -0.19642363395E+03  0.21648667814E+02  0.21225481136E+03  0.00000000000E+00 0.  1.
         11    1    5    5    0    0  0.19171652268E+03  0.29008916437E+03  0.13004352756E+03  0.37123882800E+03  0.00000000000E+00 0. -1.
        -11    1    5    5    0    0  0.38311945709E+03  0.66179277115E+03  0.42574492490E+03  0.87521936189E+03  0.00000000000E+00 0.  1.
          4    1    6    6  503    0  0.67778886626E+01 -0.40256610241E+01  0.44326091709E+02  0.45021640658E+02  0.00000000000E+00 0. -1.
         -4    1    6    6    0  503 -0.17829151636E+03 -0.27497136209E+02  0.22906353765E+03  0.29157170916E+03  0.00000000000E+00 0.  1.
<mgrwt>
<rscale>  0 0.23875327E+04</rscale>
<asrwt>0</asrwt>
<pdfrwt beam="1">  1        2 0.28562103E+00 0.23875327E+04</pdfrwt>
<pdfrwt beam="2">  1       -1 0.11809236E+00 0.23875327E+04</pdfrwt>
<totfact> 0.52951295E+00</totfact>
</mgrwt>
</event>
<event>
12    6  0.1402540E-007  0.1286068E+04  0.7818608E-02  0.9040687E-01
         -1   -1    0    0    0  501 -0.00000000000E+00  0.00000000000E+00  0.87464081682E+03  0.87464081682E+03  0.00000000000E+00 0.  1.
          2   -1    0    0  501    0  0.00000000000E+00 -0.00000000000E+00 -0.47275710893E+03  0.47275710893E+03  0.00000000000E+00 0. -1.
         24    2    1    2    0    0 -0.12443023118E+02  0.31426213238E+03  0.38052520411E+02  0.32668351314E+03  0.79740872692E+02 0.  0.
        254    2    1    2    0    0  0.12443023118E+02 -0.31426213238E+03  0.36383118748E+03  0.10207144126E+04  0.90031620138E+03 0.  0.
         23    2    4    4    0    0  0.92239528844E+01  0.68029682798E+02 -0.25957405075E+03  0.28367056624E+03  0.91526953823E+02 0.  0.
         23    2    4    4    0    0  0.32190702337E+01 -0.38229181518E+03  0.62340523824E+03  0.73704384638E+03  0.91881151811E+02 0.  0.
          4    1    3    3  502    0  0.12118747117E+02  0.15017918637E+03 -0.17589410273E+02  0.15169060421E+03  0.00000000000E+00 0. -1.
         -3    1    3    3    0  502 -0.24561770235E+02  0.16408294601E+03  0.55641930683E+02  0.17499290894E+03  0.00000000000E+00 0.  1.
         11    1    5    5    0    0  0.42028066320E+02  0.67009292291E+02 -0.15420291325E+03  0.17330649747E+03  0.00000000000E+00 0.  1.
        -11    1    5    5    0    0 -0.32804113435E+02  0.10203905073E+01 -0.10537113750E+03  0.11036406876E+03  0.00000000000E+00 0. -1.
          3    1    6    6  503    0  0.46059824955E+02 -0.22864048976E+03  0.38731177976E+03  0.45211546730E+03  0.00000000000E+00 0. -1.
         -3    1    6    6    0  503 -0.42840754722E+02 -0.15365132542E+03  0.23609345848E+03  0.28492837908E+03  0.00000000000E+00 0.  1.
<mgrwt>
<rscale>  0 0.12860679E+04</rscale>
<asrwt>0</asrwt>
<pdfrwt beam="1">  1        2 0.72731863E-01 0.12860679E+04</pdfrwt>
<pdfrwt beam="2">  1       -1 0.13456013E+00 0.12860679E+04</pdfrwt>
<totfact> 0.34261313E+01</totfact>
</mgrwt>
</event>
<event>
12    6  0.1402540E-007  0.1447387E+04  0.7818608E-02  0.8920214E-01
         -1   -1    0    0    0  501 -0.00000000000E+00  0.00000000000E+00  0.73268744572E+03  0.73268744572E+03  0.00000000000E+00 0.  1.
          2   -1    0    0  501    0  0.00000000000E+00 -0.00000000000E+00 -0.71480977553E+03  0.71480977553E+03  0.00000000000E+00 0. -1.
         24    2    1    2    0    0 -0.26176635507E+03  0.19281215208E+03  0.30023196646E+03  0.44963118099E+03  0.79566416289E+02 0.  0.
        254    2    1    2    0    0  0.26176635507E+03 -0.19281215208E+03 -0.28235429628E+03  0.99786604025E+03  0.90017472472E+03 0.  0.
         23    2    4    4    0    0  0.28015199654E+03  0.11188032157E+02 -0.56447509385E+03  0.63736031656E+03  0.94793081629E+02 0.  0.
         23    2    4    4    0    0 -0.18385641470E+02 -0.20400018423E+03  0.28212079758E+03  0.36050572369E+03  0.91750342811E+02 0.  0.
          4    1    3    3  502    0 -0.96183749992E+02  0.59638486939E+02  0.57208331745E+02  0.12681031546E+03  0.00000000000E+00 0. -1.
         -3    1    3    3    0  502 -0.16558260508E+03  0.13317366514E+03  0.24302363472E+03  0.32282086553E+03  0.00000000000E+00 0.  1.
         11    1    5    5    0    0  0.25007784114E+02 -0.29014832633E+01 -0.10475503346E+02  0.27268003993E+02  0.00000000000E+00 0.  1.
        -11    1    5    5    0    0  0.25514421242E+03  0.14089515420E+02 -0.55399959051E+03  0.61009231257E+03  0.00000000000E+00 0. -1.
          4    1    6    6  503    0 -0.35079176238E+02 -0.13327570221E+03  0.23933400490E+03  0.27617698548E+03  0.00000000000E+00 0. -1.
         -4    1    6    6    0  503  0.16693534768E+02 -0.70724482021E+02  0.42786792673E+02  0.84328738206E+02  0.00000000000E+00 0.  1.
<mgrwt>
<rscale>  0 0.14473868E+04</rscale>
<asrwt>0</asrwt>
<pdfrwt beam="1">  1        2 0.10997073E+00 0.14473868E+04</pdfrwt>
<pdfrwt beam="2">  1       -1 0.11272115E+00 0.14473868E+04</pdfrwt>
<totfact> 0.31838212E+01</totfact>
</mgrwt>
</event>
<event>
12    6  0.1402540E-007  0.1565921E+04  0.7818608E-02  0.8841762E-01
         -1   -1    0    0    0  501 -0.00000000000E+00  0.00000000000E+00  0.28687020273E+03  0.28687020273E+03  0.00000000000E+00 0.  1.
          2   -1    0    0  501    0  0.00000000000E+00 -0.00000000000E+00 -0.21369508756E+04  0.21369508756E+04  0.00000000000E+00 0. -1.
         24    2    1    2    0    0  0.11576274489E+03 -0.21754070582E+03  0.87694464620E+02  0.27348468493E+03  0.79866025143E+02 0.  0.
        254    2    1    2    0    0 -0.11576274489E+03  0.21754070582E+03 -0.19377751375E+04  0.21503363934E+04  0.89902677910E+03 0.  0.
         23    2    4    4    0    0  0.20224098004E+02 -0.27835040679E+03 -0.12630666508E+04  0.12970026444E+04  0.94818417319E+02 0.  0.
         23    2    4    4    0    0 -0.13598684289E+03  0.49589111261E+03 -0.67470848672E+03  0.85333374897E+03  0.92447434152E+02 0.  0.
          2    1    3    3  502    0  0.58335109519E+02 -0.37257033389E+02  0.15227590183E+02  0.70872780688E+02  0.00000000000E+00 0. -1.
         -1    1    3    3    0  502  0.57427635371E+02 -0.18028367243E+03  0.72466874437E+02  0.20261190424E+03  0.00000000000E+00 0.  1.
         11    1    5    5    0    0  0.46116794438E+02 -0.23786681900E+03 -0.11254626495E+04  0.11512486950E+04  0.00000000000E+00 0.  1.
        -11    1    5    5    0    0 -0.25892696434E+02 -0.40483587795E+02 -0.13760400126E+03  0.14575394943E+03  0.00000000000E+00 0. -1.
          4    1    6    6  503    0  0.11390640144E+02  0.73277942020E+02 -0.11213090309E+03  0.13443490208E+03  0.00000000000E+00 0. -1.
         -4    1    6    6    0  503 -0.14737748304E+03  0.42261317059E+03 -0.56257758363E+03  0.71889884689E+03  0.00000000000E+00 0.  1.
<mgrwt>
<rscale>  0 0.15659215E+04</rscale>
<asrwt>0</asrwt>
<pdfrwt beam="1">  1        2 0.32876168E+00 0.15659215E+04</pdfrwt>
<pdfrwt beam="2">  1       -1 0.44133877E-01 0.15659215E+04</pdfrwt>
<totfact> 0.31175851E+01</totfact>
</mgrwt>
</event>
<event>
12    6  0.1402540E-007  0.2218636E+04  0.7818608E-02  0.8510711E-01
         -1   -1    0    0    0  501 -0.00000000000E+00  0.00000000000E+00  0.17133275421E+04  0.17133275421E+04  0.00000000000E+00 0.  1.
          2   -1    0    0  501    0  0.00000000000E+00 -0.00000000000E+00 -0.71824336139E+03  0.71824336139E+03  0.00000000000E+00 0. -1.
         24    2    1    2    0    0 -0.21442238290E+03  0.87448343905E+03  0.18851161896E+03  0.92337768181E+03  0.79946665526E+02 0.  0.
        254    2    1    2    0    0  0.21442238290E+03 -0.87448343905E+03  0.80657256177E+03  0.15081932217E+04  0.90188095287E+03 0.  0.
         23    2    4    4    0    0  0.26526073586E+03 -0.39555849218E+03 -0.84035134038E+02  0.49208627534E+03  0.90869246172E+02 0.  0.
         23    2    4    4    0    0 -0.50838352961E+02 -0.47892494687E+03  0.89060769581E+03  0.10161069464E+04  0.85659884171E+02 0.  0.
          2    1    3    3  502    0 -0.14797538609E+03  0.44285535023E+03  0.10917055596E+03  0.47951620036E+03  0.00000000000E+00 0. -1.
         -1    1    3    3    0  502 -0.66446996804E+02  0.43162808881E+03  0.79341063004E+02  0.44386148145E+03  0.00000000000E+00 0.  1.
         11    1    5    5    0    0  0.24496945905E+03 -0.31030920385E+03 -0.51868814018E+02  0.39873827472E+03  0.00000000000E+00 0. -1.
        -11    1    5    5    0    0  0.20291276807E+02 -0.85249288326E+02 -0.32166320020E+02  0.93348000612E+02  0.00000000000E+00 0.  1.
          1    1    6    6  503    0 -0.68744204373E+02 -0.38239267259E+03  0.74933072304E+03  0.84406543240E+03  0.00000000000E+00 0. -1.
         -1    1    6    6    0  503  0.17905851412E+02 -0.96532274285E+02  0.14127697277E+03  0.17204151397E+03  0.00000000000E+00 0.  1.
<mgrwt>
<rscale>  0 0.22186357E+04</rscale>
<asrwt>0</asrwt>
<pdfrwt beam="1">  1        2 0.11049898E+00 0.22186357E+04</pdfrwt>
<pdfrwt beam="2">  1       -1 0.26358885E+00 0.22186357E+04</pdfrwt>
<totfact> 0.23483698E+00</totfact>
</mgrwt>
</event>
<event>
12    6  0.1402540E-007  0.1555775E+04  0.7818608E-02  0.8848188E-01
         -1   -1    0    0    0  501 -0.00000000000E+00  0.00000000000E+00  0.41491321011E+03  0.41491321011E+03  0.00000000000E+00 0.  1.
          2   -1    0    0  501    0  0.00000000000E+00 -0.00000000000E+00 -0.14583983189E+04  0.14583983189E+04  0.00000000000E+00 0. -1.
         24    2    1    2    0    0 -0.46751427413E+03 -0.12930437820E+03 -0.15658228987E+03  0.51808770246E+03  0.92777342069E+02 0.  0.
        254    2    1    2    0    0  0.46751427413E+03  0.12930437820E+03 -0.88690281890E+03  0.13552238265E+04  0.90263269999E+03 0.  0.
         23    2    4    4    0    0  0.15663164873E+03 -0.16447344804E+03 -0.88563802276E+03  0.91820427230E+03  0.84613177601E+02 0.  0.
         23    2    4    4    0    0  0.31088262540E+03  0.29377782624E+03 -0.12647961422E+01  0.43701955423E+03  0.89616254692E+02 0.  0.
          4    1    3    3  502    0 -0.16589017102E+03 -0.46637081113E+02 -0.10307514385E+03  0.20079604442E+03  0.00000000000E+00 0. -1.
         -3    1    3    3    0  502 -0.30162410311E+03 -0.82667297085E+02 -0.53507146019E+02  0.31729165804E+03  0.00000000000E+00 0.  1.
         11    1    5    5    0    0  0.79044877071E+02 -0.13862788861E+03 -0.62410103363E+03  0.64418000921E+03  0.00000000000E+00 0. -1.
        -11    1    5    5    0    0  0.77586771662E+02 -0.25845559430E+02 -0.26153698913E+03  0.27402426309E+03  0.00000000000E+00 0.  1.
          3    1    6    6  503    0  0.22849427158E+03  0.25364029946E+03 -0.25161268027E+02  0.34230998095E+03  0.00000000000E+00 0. -1.
         -3    1    6    6    0  503  0.82388353821E+02  0.40137526786E+02  0.23896471885E+02  0.94709573277E+02  0.00000000000E+00 0.  1.
<mgrwt>
<rscale>  0 0.15557747E+04</rscale>
<asrwt>0</asrwt>
<pdfrwt beam="1">  1        2 0.22436897E+00 0.15557747E+04</pdfrwt>
<pdfrwt beam="2">  1       -1 0.63832801E-01 0.15557747E+04</pdfrwt>
<totfact> 0.36573413E+01</totfact>
</mgrwt>
</event>
<event>
12    6  0.1402540E-007  0.5507279E+04  0.7818608E-02  0.7754688E-01
          2   -1    0    0  501    0  0.00000000000E+00  0.00000000000E+00  0.41727255276E+04  0.41727255276E+04  0.00000000000E+00 0. -1.
         -1   -1    0    0    0  501 -0.00000000000E+00 -0.00000000000E+00 -0.18171648276E+04  0.18171648276E+04  0.00000000000E+00 0.  1.
         24    2    1    2    0    0  0.13264010495E+04  0.11380379714E+04  0.33555748048E+04  0.37842903977E+04  0.80631107235E+02 0.  0.
        254    2    1    2    0    0 -0.13264010495E+04 -0.11380379714E+04 -0.10000141048E+04  0.22055999575E+04  0.90009599179E+03 0.  0.
         23    2    4    4    0    0 -0.11590574014E+04 -0.48119677505E+03 -0.81335120271E+03  0.14981229291E+04  0.88700256760E+02 0.  0.
         23    2    4    4    0    0 -0.16734364807E+03 -0.65684119631E+03 -0.18666290205E+03  0.70747702842E+03  0.78971216464E+02 0.  0.
          4    1    3    3  502    0  0.48706285965E+03  0.36863784085E+03  0.11523797204E+04  0.13042634347E+04  0.00000000000E+00 0. -1.
         -3    1    3    3    0  502  0.83933818983E+03  0.76940013051E+03  0.22031950844E+04  0.24800269631E+04  0.00000000000E+00 0.  1.
         11    1    5    5    0    0 -0.45508374528E+03 -0.14346556710E+03 -0.29734217611E+03  0.56222411355E+03  0.00000000000E+00 0. -1.
        -11    1    5    5    0    0 -0.70397365613E+03 -0.33773120794E+03 -0.51600902660E+03  0.93589881551E+03  0.00000000000E+00 0.  1.
          1    1    6    6  503    0 -0.54119583966E+02 -0.11408464939E+03 -0.15504294542E+02  0.12721878692E+03  0.00000000000E+00 0. -1.
         -1    1    6    6    0  503 -0.11322406410E+03 -0.54275654691E+03 -0.17115860751E+03  0.58025824151E+03  0.00000000000E+00 0.  1.
<mgrwt>
<rscale>  0 0.55072788E+04</rscale>
<asrwt>0</asrwt>
<pdfrwt beam="1">  1        2 0.64195777E+00 0.55072788E+04</pdfrwt>
<pdfrwt beam="2">  1       -1 0.27956382E+00 0.55072788E+04</pdfrwt>
<totfact> 0.86736877E-03</totfact>
</mgrwt>
</event>
<event>
12    6  0.1402540E-007  0.2497342E+04  0.7818608E-02  0.8403933E-01
         -1   -1    0    0    0  501 -0.00000000000E+00  0.00000000000E+00  0.66340880049E+03  0.66340880049E+03  0.00000000000E+00 0.  1.
          2   -1    0    0  501    0  0.00000000000E+00 -0.00000000000E+00 -0.23502545513E+04  0.23502545513E+04  0.00000000000E+00 0. -1.
         24    2    1    2    0    0 -0.32638384754E+02  0.10795446936E+04 -0.85757400442E+03  0.13815178808E+04  0.81709682859E+02 0.  0.
        254    2    1    2    0    0  0.32638384754E+02 -0.10795446936E+04 -0.82927174643E+03  0.16321454711E+04  0.89984732026E+03 0.  0.
         23    2    4    4    0    0 -0.16225446877E+03  0.77195839759E+01  0.76544026786E+02  0.20075000286E+03  0.89752275745E+02 0.  0.
         23    2    4    4    0    0  0.19489285352E+03 -0.10872642775E+04 -0.90581577321E+03  0.14313954682E+04  0.90906203654E+02 0.  0.
          4    1    3    3  502    0  0.57121050433E+00  0.56118071425E+03 -0.49230484611E+03  0.74651736874E+03  0.00000000000E+00 0. -1.
         -3    1    3    3    0  502 -0.33209595258E+02  0.51836397931E+03 -0.36526915831E+03  0.63500051202E+03  0.00000000000E+00 0.  1.
         11    1    5    5    0    0 -0.84409554716E+02 -0.31451383073E+02  0.68634939666E+02  0.11324715170E+03  0.00000000000E+00 0. -1.
        -11    1    5    5    0    0 -0.77844914052E+02  0.39170967049E+02  0.79090871203E+01  0.87502851167E+02  0.00000000000E+00 0.  1.
          3    1    6    6  503    0  0.13580489178E+03 -0.89169507226E+03 -0.77128797907E+03  0.11867806104E+04  0.00000000000E+00 0. -1.
         -3    1    6    6    0  503  0.59087961740E+02 -0.19556920527E+03 -0.13452779415E+03  0.24461485782E+03  0.00000000000E+00 0.  1.
<mgrwt>
<rscale>  0 0.24973422E+04</rscale>
<asrwt>0</asrwt>
<pdfrwt beam="1">  1        2 0.36157762E+00 0.24973422E+04</pdfrwt>
<pdfrwt beam="2">  1       -1 0.10206289E+00 0.24973422E+04</pdfrwt>
<totfact> 0.39159265E+00</totfact>
</mgrwt>
</event>
<event>
12    6  0.1402540E-007  0.1589196E+04  0.7818608E-02  0.8827213E-01
          2   -1    0    0  501    0  0.00000000000E+00  0.00000000000E+00  0.15502859648E+04  0.15502859648E+04  0.00000000000E+00 0. -1.
         -1   -1    0    0    0  501 -0.00000000000E+00 -0.00000000000E+00 -0.40727046132E+03  0.40727046132E+03  0.00000000000E+00 0.  1.
         24    2    1    2    0    0 -0.32469805408E+03  0.25294020552E+03 -0.31656142980E+02  0.42062250030E+03  0.80706892403E+02 0.  0.
        254    2    1    2    0    0  0.32469805408E+03 -0.25294020552E+03  0.11746716465E+04  0.15369339259E+04  0.90161235655E+03 0.  0.
         23    2    4    4    0    0  0.30616274289E+03 -0.68978975665E+02 -0.17529812641E+02  0.32711419011E+03  0.90568619446E+02 0.  0.
         23    2    4    4    0    0  0.18535311199E+02 -0.18396122985E+03  0.11922014591E+04  0.12098197357E+04  0.90189699943E+02 0.  0.
          2    1    3    3  502    0 -0.16290811446E+03  0.88526028233E+02  0.12253147749E+02  0.18581187008E+03  0.00000000000E+00 0. -1.
         -1    1    3    3    0  502 -0.16178993962E+03  0.16441417728E+03 -0.43909290729E+02  0.23481063022E+03  0.00000000000E+00 0.  1.
         11    1    5    5    0    0  0.27308820320E+03 -0.49234534196E+02  0.13250407538E+02  0.27780709023E+03  0.00000000000E+00 0.  1.
        -11    1    5    5    0    0  0.33074539686E+02 -0.19744441469E+02 -0.30780220180E+02  0.49307099881E+02  0.00000000000E+00 0. -1.
          2    1    6    6  503    0  0.32272450768E+02 -0.25566118928E+02  0.14946295531E+03  0.15503003750E+03  0.00000000000E+00 0. -1.
         -2    1    6    6    0  503 -0.13737139569E+02 -0.15839511092E+03  0.10427385038E+04  0.10547896983E+04  0.00000000000E+00 0.  1.
<mgrwt>
<rscale>  0 0.15891956E+04</rscale>
<asrwt>0</asrwt>
<pdfrwt beam="1">  1        2 0.23850553E+00 0.15891956E+04</pdfrwt>
<pdfrwt beam="2">  1       -1 0.62656995E-01 0.15891956E+04</pdfrwt>
<totfact> 0.33595058E+01</totfact>
</mgrwt>
</event>
<event>
12    6  0.1402540E-007  0.1824586E+04  0.7818608E-02  0.8693333E-01
         -1   -1    0    0    0  501 -0.00000000000E+00  0.00000000000E+00  0.95033162816E+03  0.95033162816E+03  0.00000000000E+00 0.  1.
          2   -1    0    0  501    0  0.00000000000E+00 -0.00000000000E+00 -0.87577657925E+03  0.87577657925E+03  0.00000000000E+00 0. -1.
         24    2    1    2    0    0 -0.62957258952E+03  0.12967124114E+03 -0.21641939417E+03  0.68259236010E+03  0.76933085484E+02 0.  0.
        254    2    1    2    0    0  0.62957258952E+03 -0.12967124114E+03  0.29097444308E+03  0.11435158473E+04  0.89988115340E+03 0.  0.
         23    2    4    4    0    0 -0.58870142640E+02  0.11715951632E+02  0.41036468268E+03  0.42461007408E+03  0.91058140745E+02 0.  0.
         23    2    4    4    0    0  0.68844273216E+03 -0.14138719278E+03 -0.11939023960E+03  0.71890577323E+03  0.92885670158E+02 0.  0.
          2    1    3    3  502    0 -0.12160295728E+03  0.51831523014E+02 -0.61913189285E+02  0.14596927418E+03  0.00000000000E+00 0. -1.
         -3    1    3    3    0  502 -0.50796963224E+03  0.77839718130E+02 -0.15450620489E+03  0.53662308593E+03  0.00000000000E+00 0.  1.
         11    1    5    5    0    0 -0.38774484830E+01  0.29007098075E+02  0.28646631688E+03  0.28795728338E+03  0.00000000000E+00 0.  1.
        -11    1    5    5    0    0 -0.54992694157E+02 -0.17291146444E+02  0.12389836580E+03  0.13665279070E+03  0.00000000000E+00 0. -1.
          3    1    6    6  503    0  0.59673353977E+03 -0.91426416961E+02 -0.11374148722E+03  0.61431818556E+03  0.00000000000E+00 0. -1.
         -3    1    6    6    0  503  0.91709192395E+02 -0.49960775815E+02 -0.56487523869E+01  0.10458758766E+03  0.00000000000E+00 0.  1.
<mgrwt>
<rscale>  0 0.18245856E+04</rscale>
<asrwt>0</asrwt>
<pdfrwt beam="1">  1        2 0.13473486E+00 0.18245856E+04</pdfrwt>
<pdfrwt beam="2">  1       -1 0.14620487E+00 0.18245856E+04</pdfrwt>
<totfact> 0.12242116E+01</totfact>
</mgrwt>
</event>
<event>
12    6  0.1402540E-007  0.3250873E+04  0.7818608E-02  0.8175509E-01
          2   -1    0    0  501    0  0.00000000000E+00  0.00000000000E+00  0.20817807220E+04  0.20817807220E+04  0.00000000000E+00 0. -1.
         -1   -1    0    0    0  501 -0.00000000000E+00 -0.00000000000E+00 -0.12691267818E+04  0.12691267818E+04  0.00000000000E+00 0.  1.
         24    2    1    2    0    0  0.54349338937E+03  0.12631905369E+04  0.98847009508E+03  0.16960062450E+04  0.91261477948E+02 0.  0.
        254    2    1    2    0    0 -0.54349338937E+03 -0.12631905369E+04 -0.17581615485E+03  0.16549012588E+04  0.90374302726E+03 0.  0.
         23    2    4    4    0    0  0.15145302724E+03 -0.62643786739E+03  0.11879894166E+03  0.66323608367E+03  0.10201221975E+03 0.  0.
         23    2    4    4    0    0 -0.69494641661E+03 -0.63675266947E+03 -0.29461509651E+03  0.99166517512E+03  0.90538833775E+02 0.  0.
          4    1    3    3  502    0  0.27963916003E+03  0.55789313802E+03  0.48150299150E+03  0.78821820843E+03  0.00000000000E+00 0. -1.
         -3    1    3    3    0  502  0.26385422934E+03  0.70529739884E+03  0.50696710357E+03  0.90778803652E+03  0.00000000000E+00 0.  1.
         11    1    5    5    0    0 -0.14568950357E+02 -0.29932478164E+02  0.44220149187E+01  0.33582164604E+02  0.00000000000E+00 0. -1.
        -11    1    5    5    0    0  0.16602197759E+03 -0.59650538923E+03  0.11437692674E+03  0.62965391906E+03  0.00000000000E+00 0.  1.
          1    1    6    6  503    0 -0.79215705002E+02 -0.40434648273E+02 -0.16026940851E+02  0.90371187516E+02  0.00000000000E+00 0. -1.
         -1    1    6    6    0  503 -0.61573071160E+03 -0.59631802120E+03 -0.27858815566E+03  0.90129398760E+03  0.00000000000E+00 0.  1.
<mgrwt>
<rscale>  0 0.32508729E+04</rscale>
<asrwt>0</asrwt>
<pdfrwt beam="1">  1        2 0.32027396E+00 0.32508729E+04</pdfrwt>
<pdfrwt beam="2">  1       -1 0.19525027E+00 0.32508729E+04</pdfrwt>
<totfact> 0.93141080E-01</totfact>
</mgrwt>
</event>
<event>
12    6  0.1402540E-007  0.2607726E+04  0.7818608E-02  0.8365582E-01
         -1   -1    0    0    0  501 -0.00000000000E+00  0.00000000000E+00  0.49757660748E+03  0.49757660748E+03  0.00000000000E+00 0.  1.
          2   -1    0    0  501    0  0.00000000000E+00 -0.00000000000E+00 -0.34166775179E+04  0.34166775179E+04  0.00000000000E+00 0. -1.
         24    2    1    2    0    0 -0.13630754040E+03 -0.11324582108E+04 -0.14605232492E+04  0.18548578333E+04  0.79549203881E+02 0.  0.
        254    2    1    2    0    0  0.13630754040E+03  0.11324582108E+04 -0.14585776613E+04  0.20593962921E+04  0.90145601620E+03 0.  0.
         23    2    4    4    0    0  0.30848231506E+03  0.10024403174E+04 -0.14886812331E+04  0.18233079184E+04  0.90730494779E+02 0.  0.
         23    2    4    4    0    0 -0.17217477465E+03  0.13001789338E+03  0.30103571895E+02  0.23608837368E+03  0.91009282602E+02 0.  0.
          4    1    3    3  502    0 -0.12427865058E+03 -0.10287256733E+04 -0.13613116076E+04  0.17108158834E+04  0.00000000000E+00 0. -1.
         -3    1    3    3    0  502 -0.12028889820E+02 -0.10373253747E+03 -0.99211641536E+02  0.14404194992E+03  0.00000000000E+00 0.  1.
         11    1    5    5    0    0  0.12303144321E+03  0.36600053283E+03 -0.47550962522E+03  0.61253777820E+03  0.00000000000E+00 0.  1.
        -11    1    5    5    0    0  0.18545087185E+03  0.63643978455E+03 -0.10131716079E+04  0.12107701402E+04  0.00000000000E+00 0. -1.
          3    1    6    6  503    0 -0.18077771700E+03  0.12248534380E+03  0.17491381191E+02  0.21906435316E+03  0.00000000000E+00 0. -1.
         -3    1    6    6    0  503  0.86029423483E+01  0.75325495775E+01  0.12612190704E+02  0.17024020516E+02  0.00000000000E+00 0.  1.
<mgrwt>
<rscale>  0 0.26077261E+04</rscale>
<asrwt>0</asrwt>
<pdfrwt beam="1">  1        2 0.52564271E+00 0.26077261E+04</pdfrwt>
<pdfrwt beam="2">  1       -1 0.76550245E-01 0.26077261E+04</pdfrwt>
<totfact> 0.15993468E+00</totfact>
</mgrwt>
</event>
<event>
12    6  0.1402540E-007  0.2710223E+04  0.7818608E-02  0.8331695E-01
          2   -1    0    0  501    0  0.00000000000E+00  0.00000000000E+00  0.95161284640E+03  0.95161284640E+03  0.00000000000E+00 0. -1.
         -1   -1    0    0    0  501 -0.00000000000E+00 -0.00000000000E+00 -0.19297004960E+04  0.19297004960E+04  0.00000000000E+00 0.  1.
         24    2    1    2    0    0 -0.87849750930E+03  0.22462889088E+03 -0.12774843461E+04  0.15686783882E+04  0.81053184191E+02 0.  0.
        254    2    1    2    0    0  0.87849750930E+03 -0.22462889088E+03  0.29939669646E+03  0.13126349542E+04  0.90064206470E+03 0.  0.
         23    2    4    4    0    0 -0.58129982409E+02 -0.19436318209E+03 -0.14843637528E+03  0.27016280207E+03  0.98987073446E+02 0.  0.
         23    2    4    4    0    0  0.93662749171E+03 -0.30265708791E+02  0.44783307174E+03  0.10424721521E+04  0.89479922371E+02 0.  0.
          2    1    3    3  502    0 -0.28683009068E+03  0.51162523363E+02 -0.35749604387E+03  0.46118599946E+03  0.00000000000E+00 0. -1.
         -1    1    3    3    0  502 -0.59166741862E+03  0.17346636751E+03 -0.91998830219E+03  0.11074923887E+04  0.00000000000E+00 0.  1.
         11    1    5    5    0    0 -0.49563430301E+02 -0.18334218746E+03 -0.90158721839E+02  0.21023673906E+03  0.00000000000E+00 0. -1.
        -11    1    5    5    0    0 -0.85665521074E+01 -0.11020994628E+02 -0.58277653439E+02  0.59926063011E+02  0.00000000000E+00 0.  1.
          4    1    6    6  503    0  0.83437749258E+03 -0.49769347428E+02  0.37967851504E+03  0.91805150338E+03  0.00000000000E+00 0.  1.
         -4    1    6    6    0  503  0.10224999912E+03  0.19503638637E+02  0.68154556701E+02  0.12442064877E+03  0.00000000000E+00 0. -1.
<mgrwt>
<rscale>  0 0.27102234E+04</rscale>
<asrwt>0</asrwt>
<pdfrwt beam="1">  1        2 0.14640198E+00 0.27102234E+04</pdfrwt>
<pdfrwt beam="2">  1       -1 0.29687700E+00 0.27102234E+04</pdfrwt>
<totfact> 0.93640411E-01</totfact>
</mgrwt>
</event>
<event>
12    6  0.1402540E-007  0.2470503E+04  0.7818608E-02  0.8413570E-01
          2   -1    0    0  501    0  0.00000000000E+00  0.00000000000E+00  0.18658133565E+04  0.18658133565E+04  0.00000000000E+00 0. -1.
         -1   -1    0    0    0  501 -0.00000000000E+00 -0.00000000000E+00 -0.81779178742E+03  0.81779178742E+03  0.00000000000E+00 0.  1.
         24    2    1    2    0    0 -0.66014188153E+03  0.83872343571E+03  0.38243486551E+03  0.11363244489E+04  0.75713416983E+02 0.  0.
        254    2    1    2    0    0  0.66014188153E+03 -0.83872343571E+03  0.66558670353E+03  0.15472806950E+04  0.90101475221E+03 0.  0.
         23    2    4    4    0    0  0.43686220319E+03 -0.86590980199E+03  0.16068318126E+03  0.98687197249E+03  0.86306636974E+02 0.  0.
         23    2    4    4    0    0  0.22327967834E+03  0.27186366279E+02  0.50490352226E+03  0.56040872247E+03  0.92398355779E+02 0.  0.
          2    1    3    3  502    0 -0.48815133730E+03  0.56405953678E+03  0.26855328579E+03  0.79282769657E+03  0.00000000000E+00 0. -1.
         -1    1    3    3    0  502 -0.17199054423E+03  0.27466389893E+03  0.11388157971E+03  0.34349675235E+03  0.00000000000E+00 0.  1.
         11    1    5    5    0    0  0.41732371466E+03 -0.84047466694E+03  0.16959779134E+03  0.95358280155E+03  0.00000000000E+00 0.  1.
        -11    1    5    5    0    0  0.19538488532E+02 -0.25435135045E+02 -0.89146100722E+01  0.33289170936E+02  0.00000000000E+00 0. -1.
          2    1    6    6  503    0  0.18712465239E+03 -0.12069048077E+01  0.32796003130E+03  0.37759088215E+03  0.00000000000E+00 0.  1.
         -2    1    6    6    0  503  0.36155025955E+02  0.28393271086E+02  0.17694349096E+03  0.18281784032E+03  0.00000000000E+00 0. -1.
<mgrwt>
<rscale>  0 0.24705035E+04</rscale>
<asrwt>0</asrwt>
<pdfrwt beam="1">  1        2 0.28704821E+00 0.24705035E+04</pdfrwt>
<pdfrwt beam="2">  1       -1 0.12581412E+00 0.24705035E+04</pdfrwt>
<totfact> 0.44446703E+00</totfact>
</mgrwt>
</event>
<event>
12    6  0.1402540E-007  0.1860355E+04  0.7818608E-02  0.8674846E-01
         -1   -1    0    0    0  501 -0.00000000000E+00  0.00000000000E+00  0.29152892527E+03  0.29152892527E+03  0.00000000000E+00 0.  1.
          2   -1    0    0  501    0  0.00000000000E+00 -0.00000000000E+00 -0.29679055120E+04  0.29679055120E+04  0.00000000000E+00 0. -1.
         24    2    1    2    0    0  0.56727464120E+02 -0.10790031883E+03  0.19818055280E+03  0.24644512337E+03  0.81235357666E+02 0.  0.
        254    2    1    2    0    0 -0.56727464120E+02  0.10790031883E+03 -0.28745571396E+04  0.30129893139E+04  0.89451963267E+03 0.  0.
         23    2    4    4    0    0  0.52649503727E+02  0.47835698023E+03 -0.18379082908E+04  0.19020180829E+04  0.90379930493E+02 0.  0.
         23    2    4    4    0    0 -0.10937696785E+03 -0.37045666139E+03 -0.10366488488E+04  0.11109712310E+04  0.10205283570E+03 0.  0.
          4    1    3    3  502    0  0.17609567323E+02  0.97251182408E+01  0.14289189961E+02  0.24675002246E+02  0.00000000000E+00 0. -1.
         -3    1    3    3    0  502  0.39117896798E+02 -0.11762543708E+03  0.18389136284E+03  0.22177012112E+03  0.00000000000E+00 0.  1.
         11    1    5    5    0    0 -0.22108955997E+01  0.34250619852E+03 -0.12419201394E+04  0.12882860772E+04  0.00000000000E+00 0.  1.
        -11    1    5    5    0    0  0.54860399326E+02  0.13585078171E+03 -0.59598815135E+03  0.61373200572E+03  0.00000000000E+00 0. -1.
          3    1    6    6  503    0 -0.99379413707E+02 -0.18101507309E+03 -0.46860200536E+03  0.51208452816E+03  0.00000000000E+00 0. -1.
         -3    1    6    6    0  503 -0.99975541403E+01 -0.18944158830E+03 -0.56804684345E+03  0.59888670283E+03  0.00000000000E+00 0.  1.
<mgrwt>
<rscale>  0 0.18603551E+04</rscale>
<asrwt>0</asrwt>
<pdfrwt beam="1">  1        2 0.45660088E+00 0.18603551E+04</pdfrwt>
<pdfrwt beam="2">  1       -1 0.44850601E-01 0.18603551E+04</pdfrwt>
<totfact> 0.96418132E+00</totfact>
</mgrwt>
</event>
<event>
12    6  0.1402540E-007  0.1577960E+04  0.7818608E-02  0.8834204E-01
          2   -1    0    0  501    0  0.00000000000E+00  0.00000000000E+00  0.19279793330E+04  0.19279793330E+04  0.00000000000E+00 0. -1.
         -1   -1    0    0    0  501 -0.00000000000E+00 -0.00000000000E+00 -0.32287138536E+03  0.32287138536E+03  0.00000000000E+00 0.  1.
         24    2    1    2    0    0 -0.45627672723E+03 -0.22308157124E+03  0.33231272467E+03  0.61189506501E+03  0.77652973989E+02 0.  0.
        254    2    1    2    0    0  0.45627672723E+03  0.22308157124E+03  0.12727952230E+04  0.16389556533E+04  0.89900729407E+03 0.  0.
         23    2    4    4    0    0  0.23252677191E+03 -0.18153949616E+03  0.10914010371E+04  0.11339353599E+04  0.87337782017E+02 0.  0.
         23    2    4    4    0    0  0.22374995532E+03  0.40462106740E+03  0.18139418582E+03  0.50502029347E+03  0.91429729738E+02 0.  0.
          4    1    3    3  502    0 -0.78002202953E+02 -0.72797760490E+02  0.65117437031E+02  0.12499655277E+03  0.00000000000E+00 0. -1.
         -3    1    3    3    0  502 -0.37827452428E+03 -0.15028381075E+03  0.26719528764E+03  0.48689851225E+03  0.00000000000E+00 0.  1.
         11    1    5    5    0    0  0.19572224803E+03 -0.18620433535E+03  0.93936398979E+03  0.97743744464E+03  0.00000000000E+00 0. -1.
        -11    1    5    5    0    0  0.36804523881E+02  0.46648391899E+01  0.15203704735E+03  0.15649791522E+03  0.00000000000E+00 0.  1.
          1    1    6    6  503    0  0.17882142557E+03  0.33083832756E+03  0.18383439945E+03  0.41860027191E+03  0.00000000000E+00 0. -1.
         -1    1    6    6    0  503  0.44928529746E+02  0.73782739845E+02 -0.24402136270E+01  0.86420021561E+02  0.00000000000E+00 0.  1.
<mgrwt>
<rscale>  0 0.15779599E+04</rscale>
<asrwt>0</asrwt>
<pdfrwt beam="1">  1        2 0.29661220E+00 0.15779599E+04</pdfrwt>
<pdfrwt beam="2">  1       -1 0.49672522E-01 0.15779599E+04</pdfrwt>
<totfact> 0.32586000E+01</totfact>
</mgrwt>
</event>
<event>
12    6  0.1402540E-007  0.1824723E+04  0.7818608E-02  0.8693262E-01
          2   -1    0    0  501    0  0.00000000000E+00  0.00000000000E+00  0.27167039998E+04  0.27167039998E+04  0.00000000000E+00 0. -1.
         -1   -1    0    0    0  501 -0.00000000000E+00 -0.00000000000E+00 -0.30640188326E+03  0.30640188326E+03  0.00000000000E+00 0.  1.
         24    2    1    2    0    0  0.18692056598E+03  0.66142029832E+03  0.88480816580E+03  0.11236510343E+04  0.85381775403E+02 0.  0.
        254    2    1    2    0    0 -0.18692056598E+03 -0.66142029832E+03  0.15254939508E+04  0.18994548488E+04  0.89910000545E+03 0.  0.
         23    2    4    4    0    0 -0.96884745351E+02 -0.25096164831E+03  0.14318787685E+04  0.14598675055E+04  0.92563077001E+02 0.  0.
         23    2    4    4    0    0 -0.90035820626E+02 -0.41045865001E+03  0.93615182297E+02  0.43958734330E+03  0.88828360705E+02 0.  0.
          2    1    3    3  502    0  0.13181978126E+03  0.35235595178E+03  0.52919594393E+03  0.64929155128E+03  0.00000000000E+00 0. -1.
         -1    1    3    3    0  502  0.55100784713E+02  0.30906434654E+03  0.35561222188E+03  0.47435948301E+03  0.00000000000E+00 0.  1.
         11    1    5    5    0    0 -0.13208240355E+02 -0.14097691109E+03  0.85649656506E+03  0.86812171557E+03  0.00000000000E+00 0. -1.
        -11    1    5    5    0    0 -0.83676504996E+02 -0.10998473722E+03  0.57538220340E+03  0.59174578993E+03  0.00000000000E+00 0.  1.
          2    1    6    6  503    0 -0.10027386734E+03 -0.39049690641E+03  0.10160681635E+03  0.41577232654E+03  0.00000000000E+00 0. -1.
         -2    1    6    6    0  503  0.10238046719E+02 -0.19961743605E+02 -0.79916340559E+01  0.23815016759E+02  0.00000000000E+00 0.  1.
<mgrwt>
<rscale>  0 0.18247227E+04</rscale>
<asrwt>0</asrwt>
<pdfrwt beam="1">  1        2 0.41795444E+00 0.18247227E+04</pdfrwt>
<pdfrwt beam="2">  1       -1 0.47138753E-01 0.18247227E+04</pdfrwt>
<totfact> 0.12520546E+01</totfact>
</mgrwt>
</event>
<event>
12    6  0.1402540E-007  0.2139755E+04  0.7818608E-02  0.8543930E-01
         -1   -1    0    0    0  501 -0.00000000000E+00  0.00000000000E+00  0.43019789336E+03  0.43019789336E+03  0.00000000000E+00 0.  1.
          2   -1    0    0  501    0  0.00000000000E+00 -0.00000000000E+00 -0.26607234400E+04  0.26607234400E+04  0.00000000000E+00 0. -1.
         24    2    1    2    0    0 -0.76316443982E+03 -0.43312842579E+03 -0.99407013526E+03  0.13285019360E+04  0.81986369770E+02 0.  0.
        254    2    1    2    0    0  0.76316443982E+03  0.43312842579E+03 -0.12364554114E+04  0.17624193974E+04  0.89848759164E+03 0.  0.
         23    2    4    4    0    0  0.48726965791E+03 -0.20493102896E+03 -0.38995544451E+03  0.66324747656E+03  0.91670716734E+02 0.  0.
         23    2    4    4    0    0  0.27589478191E+03  0.63805945475E+03 -0.84649996691E+03  0.10991719208E+04  0.91536435472E+02 0.  0.
          2    1    3    3  502    0 -0.27901175917E+03 -0.14643790902E+03 -0.41519263324E+03  0.52122600247E+03  0.00000000000E+00 0. -1.
         -1    1    3    3    0  502 -0.48415268065E+03 -0.28669051677E+03 -0.57887750202E+03  0.80727593357E+03  0.00000000000E+00 0.  1.
         11    1    5    5    0    0  0.45017075216E+03 -0.21373485882E+03 -0.36021400757E+03  0.61489058150E+03  0.00000000000E+00 0.  1.
        -11    1    5    5    0    0  0.37098905750E+02  0.88038298540E+01 -0.29741436943E+02  0.48356895056E+02  0.00000000000E+00 0. -1.
          4    1    6    6  503    0  0.43770382265E+01 -0.13231429763E+01 -0.61210640593E+00  0.46134417981E+01  0.00000000000E+00 0. -1.
         -4    1    6    6    0  503  0.27151774368E+03  0.63938259773E+03 -0.84588786051E+03  0.10945584790E+04  0.00000000000E+00 0.  1.
<mgrwt>
<rscale>  0 0.21397548E+04</rscale>
<asrwt>0</asrwt>
<pdfrwt beam="1">  1        2 0.40934207E+00 0.21397548E+04</pdfrwt>
<pdfrwt beam="2">  1       -1 0.66184291E-01 0.21397548E+04</pdfrwt>
<totfact> 0.67806834E+00</totfact>
</mgrwt>
</event>
<event>
12    6  0.1402540E-007  0.2063916E+04  0.7818608E-02  0.8577307E-01
         -1   -1    0    0    0  501 -0.00000000000E+00  0.00000000000E+00  0.11900325915E+04  0.11900325915E+04  0.00000000000E+00 0.  1.
          2   -1    0    0  501    0  0.00000000000E+00 -0.00000000000E+00 -0.89488077303E+03  0.89488077303E+03  0.00000000000E+00 0. -1.
         24    2    1    2    0    0 -0.62848414197E+03 -0.54416235282E+03  0.18056501648E+03  0.85448775860E+03  0.80253482682E+02 0.  0.
        254    2    1    2    0    0  0.62848414197E+03  0.54416235282E+03  0.11458680196E+03  0.12304256059E+04  0.89984001552E+03 0.  0.
         23    2    4    4    0    0  0.66584617714E+03  0.64567165901E+03 -0.13748284522E+03  0.94176055663E+03  0.88138473054E+02 0.  0.
         23    2    4    4    0    0 -0.37362035173E+02 -0.10150930619E+03  0.25206964717E+03  0.28866504927E+03  0.89935214052E+02 0.  0.
          4    1    3    3  502    0 -0.14365242256E+03 -0.15656351493E+03  0.20543591094E+02  0.21347175890E+03  0.00000000000E+00 0. -1.
         -3    1    3    3    0  502 -0.48483171941E+03 -0.38759883789E+03  0.16002142539E+03  0.64101599969E+03  0.00000000000E+00 0.  1.
         11    1    5    5    0    0  0.13792306395E+03  0.13962154513E+03 -0.65656671032E+02  0.20694865519E+03  0.00000000000E+00 0.  1.
        -11    1    5    5    0    0  0.52792311320E+03  0.50605011387E+03 -0.71826174185E+02  0.73481190144E+03  0.00000000000E+00 0. -1.
          4    1    6    6  503    0 -0.29708334541E+02 -0.91982332040E+02  0.11150136493E+03  0.14756655762E+03  0.00000000000E+00 0. -1.
         -4    1    6    6    0  503 -0.76537006321E+01 -0.95269741508E+01  0.14056828225E+03  0.14109849164E+03  0.00000000000E+00 0.  1.
<mgrwt>
<rscale>  0 0.20639160E+04</rscale>
<asrwt>0</asrwt>
<pdfrwt beam="1">  1        2 0.13767397E+00 0.20639160E+04</pdfrwt>
<pdfrwt beam="2">  1       -1 0.18308194E+00 0.20639160E+04</pdfrwt>
<totfact> 0.61646144E+00</totfact>
</mgrwt>
</event>
<event>
12    6  0.1402540E-007  0.2024715E+04  0.7818608E-02  0.8595152E-01
         -1   -1    0    0    0  501 -0.00000000000E+00  0.00000000000E+00  0.71937780318E+03  0.71937780318E+03  0.00000000000E+00 0.  1.
          2   -1    0    0  501    0  0.00000000000E+00 -0.00000000000E+00 -0.14246588308E+04  0.14246588308E+04  0.00000000000E+00 0. -1.
         24    2    1    2    0    0 -0.68908882373E+03 -0.42449275556E+03 -0.33900863358E+03  0.88099354136E+03  0.78646422401E+02 0.  0.
        254    2    1    2    0    0  0.68908882373E+03  0.42449275556E+03 -0.36627239403E+03  0.12630430926E+04  0.89782229905E+03 0.  0.
         23    2    4    4    0    0 -0.12905711124E+03  0.26125337303E+03  0.76487771426E+02  0.31426656120E+03  0.89465241458E+02 0.  0.
         23    2    4    4    0    0  0.81814593497E+03  0.16323938253E+03 -0.44276016546E+03  0.94877653142E+03  0.90169149613E+02 0.  0.
          4    1    3    3  502    0 -0.48609348706E+03 -0.28823869165E+03 -0.19829141969E+03  0.59890559244E+03  0.00000000000E+00 0. -1.
         -3    1    3    3    0  502 -0.20299533667E+03 -0.13625406391E+03 -0.14071721389E+03  0.28208794892E+03  0.00000000000E+00 0.  1.
         11    1    5    5    0    0 -0.33556648237E+02  0.14874492113E+02  0.26668905351E+02  0.45371022351E+02  0.00000000000E+00 0.  1.
        -11    1    5    5    0    0 -0.95500463003E+02  0.24637888092E+03  0.49818866076E+02  0.26889553885E+03  0.00000000000E+00 0. -1.
          1    1    6    6  503    0  0.41819686845E+03  0.37904595643E+02 -0.22860389948E+03  0.47810576446E+03  0.00000000000E+00 0. -1.
         -1    1    6    6    0  503  0.39994906652E+03  0.12533478689E+03 -0.21415626597E+03  0.47067076696E+03  0.00000000000E+00 0.  1.
<mgrwt>
<rscale>  0 0.20247152E+04</rscale>
<asrwt>0</asrwt>
<pdfrwt beam="1">  1        2 0.21917828E+00 0.20247152E+04</pdfrwt>
<pdfrwt beam="2">  1       -1 0.11067351E+00 0.20247152E+04</pdfrwt>
<totfact> 0.11133988E+01</totfact>
</mgrwt>
</event>
<event>
12    6  0.1402540E-007  0.1961218E+04  0.7818608E-02  0.8624970E-01
          2   -1    0    0  501    0  0.00000000000E+00  0.00000000000E+00  0.18692081889E+04  0.18692081889E+04  0.00000000000E+00 0. -1.
         -1   -1    0    0    0  501 -0.00000000000E+00 -0.00000000000E+00 -0.51443929023E+03  0.51443929023E+03  0.00000000000E+00 0.  1.
         24    2    1    2    0    0 -0.35081869946E+03 -0.50963712537E+03  0.10885304289E+04  0.12546106047E+04  0.79658743624E+02 0.  0.
        254    2    1    2    0    0  0.35081869946E+03  0.50963712537E+03  0.26623846973E+03  0.11290368743E+04  0.90611124120E+03 0.  0.
         23    2    4    4    0    0  0.38284013727E+02 -0.24155575854E+03  0.15416053410E+03  0.30242666052E+03  0.88778175963E+02 0.  0.
         23    2    4    4    0    0  0.31253468574E+03  0.75119288390E+03  0.11207793563E+03  0.82661021383E+03  0.93564434140E+02 0.  0.
          4    1    3    3  502    0 -0.24466634460E+03 -0.41325387861E+03  0.82515442597E+03  0.95473567812E+03  0.00000000000E+00 0. -1.
         -3    1    3    3    0  502 -0.10615235486E+03 -0.96383246756E+02  0.26337600294E+03  0.29987492663E+03  0.00000000000E+00 0.  1.
         11    1    5    5    0    0 -0.40037948894E+01 -0.16834243412E+03  0.67677211139E+02  0.18148115717E+03  0.00000000000E+00 0. -1.
        -11    1    5    5    0    0  0.42287808616E+02 -0.73213324414E+02  0.86483322963E+02  0.12094550335E+03  0.00000000000E+00 0.  1.
          1    1    6    6  503    0  0.18212591321E+03  0.35834445394E+03  0.91019254160E+02  0.41214694049E+03  0.00000000000E+00 0. -1.
         -1    1    6    6    0  503  0.13040877253E+03  0.39284842997E+03  0.21058681466E+02  0.41446327334E+03  0.00000000000E+00 0.  1.
<mgrwt>
<rscale>  0 0.19612181E+04</rscale>
<asrwt>0</asrwt>
<pdfrwt beam="1">  1        2 0.28757049E+00 0.19612181E+04</pdfrwt>
<pdfrwt beam="2">  1       -1 0.79144507E-01 0.19612181E+04</pdfrwt>
<totfact> 0.13377556E+01</totfact>
</mgrwt>
</event>
<event>
12    6  0.1402540E-007  0.1628095E+04  0.7818608E-02  0.8803472E-01
          2   -1    0    0  501    0  0.00000000000E+00  0.00000000000E+00  0.90792697909E+03  0.90792697909E+03  0.00000000000E+00 0. -1.
         -1   -1    0    0    0  501 -0.00000000000E+00 -0.00000000000E+00 -0.72987513069E+03  0.72987513069E+03  0.00000000000E+00 0.  1.
         24    2    1    2    0    0 -0.13230802251E+02 -0.46043728002E+03  0.37620656912E+03  0.60004362277E+03  0.79645612633E+02 0.  0.
        254    2    1    2    0    0  0.13230802251E+02  0.46043728002E+03 -0.19815472073E+03  0.10377584870E+04  0.90857021801E+03 0.  0.
         23    2    4    4    0    0 -0.32690475551E+03 -0.85421191189E+02 -0.16617334519E+03  0.38728342523E+03  0.90616619525E+02 0.  0.
         23    2    4    4    0    0  0.34013555776E+03  0.54585847121E+03 -0.31981375540E+02  0.65047506178E+03  0.91876707411E+02 0.  0.
          4    1    3    3  502    0 -0.45424834878E+02 -0.31575362183E+03  0.24792160907E+03  0.40401595212E+03  0.00000000000E+00 0. -1.
         -3    1    3    3    0  502  0.32194032628E+02 -0.14468365819E+03  0.12828496005E+03  0.19602767065E+03  0.00000000000E+00 0.  1.
         11    1    5    5    0    0 -0.55644590755E+02 -0.48843375725E+02 -0.18688996997E+02  0.76362781780E+02  0.00000000000E+00 0. -1.
        -11    1    5    5    0    0 -0.27126016475E+03 -0.36577815465E+02 -0.14748434819E+03  0.31092064346E+03  0.00000000000E+00 0.  1.
          2    1    6    6  503    0  0.31477218882E+03  0.53689479421E+03 -0.25942948770E+02  0.62290495864E+03  0.00000000000E+00 0. -1.
         -2    1    6    6    0  503  0.25363368936E+02  0.89636770047E+01 -0.60384267696E+01  0.27570103139E+02  0.00000000000E+00 0.  1.
<mgrwt>
<rscale>  0 0.16280950E+04</rscale>
<asrwt>0</asrwt>
<pdfrwt beam="1">  1        2 0.13968107E+00 0.16280950E+04</pdfrwt>
<pdfrwt beam="2">  1       -1 0.11228848E+00 0.16280950E+04</pdfrwt>
<totfact> 0.22990173E+01</totfact>
</mgrwt>
</event>
<event>
12    6  0.1402540E-007  0.1932896E+04  0.7818608E-02  0.8638653E-01
          2   -1    0    0  501    0  0.00000000000E+00  0.00000000000E+00  0.20530955711E+04  0.20530955711E+04  0.00000000000E+00 0. -1.
         -1   -1    0    0    0  501 -0.00000000000E+00 -0.00000000000E+00 -0.45493351986E+03  0.45493351986E+03  0.00000000000E+00 0.  1.
         24    2    1    2    0    0  0.71386345678E+03  0.22188348153E+03  0.49615658777E+03  0.90098203353E+03  0.82243242018E+02 0.  0.
        254    2    1    2    0    0 -0.71386345678E+03 -0.22188348153E+03  0.11020054635E+04  0.16070470574E+04  0.89963931049E+03 0.  0.
         23    2    4    4    0    0 -0.24759060864E+03 -0.24627160850E+02 -0.11224456657E+03  0.28841035896E+03  0.93134772762E+02 0.  0.
         23    2    4    4    0    0 -0.46627284814E+03 -0.19725632068E+03  0.12142500300E+04  0.13186366985E+04  0.89884270771E+02 0.  0.
          4    1    3    3  502    0  0.53064914581E+03  0.15566026201E+03  0.40756053298E+03  0.68696740910E+03  0.00000000000E+00 0. -1.
         -3    1    3    3    0  502  0.18321431096E+03  0.66223219517E+02  0.88596054786E+02  0.21401462443E+03  0.00000000000E+00 0.  1.
         11    1    5    5    0    0 -0.10556305713E+01  0.13775407069E+02  0.20552549324E+01  0.13967829776E+02  0.00000000000E+00 0.  1.
        -11    1    5    5    0    0 -0.24653497806E+03 -0.38402567919E+02 -0.11429982150E+03  0.27444252919E+03  0.00000000000E+00 0. -1.
          4    1    6    6  503    0 -0.33890719950E+03 -0.10701788021E+03  0.90344999121E+03  0.97084128629E+03  0.00000000000E+00 0. -1.
         -4    1    6    6    0  503 -0.12736564864E+03 -0.90238440464E+02  0.31080003883E+03  0.34779541217E+03  0.00000000000E+00 0.  1.
<mgrwt>
<rscale>  0 0.19328963E+04</rscale>
<asrwt>0</asrwt>
<pdfrwt beam="1">  1        2 0.31586085E+00 0.19328963E+04</pdfrwt>
<pdfrwt beam="2">  1       -1 0.69989773E-01 0.19328963E+04</pdfrwt>
<totfact> 0.13699792E+01</totfact>
</mgrwt>
</event>
<event>
12    6  0.1402540E-007  0.1762801E+04  0.7818608E-02  0.8726336E-01
          2   -1    0    0  501    0  0.00000000000E+00  0.00000000000E+00  0.60255426789E+03  0.60255426789E+03  0.00000000000E+00 0. -1.
         -1   -1    0    0    0  501 -0.00000000000E+00 -0.00000000000E+00 -0.12892889002E+04  0.12892889002E+04  0.00000000000E+00 0.  1.
         24    2    1    2    0    0 -0.62343388213E+03 -0.11440979689E+03 -0.40869049279E+03  0.75841414606E+03  0.80029313564E+02 0.  0.
        254    2    1    2    0    0  0.62343388213E+03  0.11440979689E+03 -0.27804413952E+03  0.11334290220E+04  0.89754854879E+03 0.  0.
         23    2    4    4    0    0  0.59231650740E+03  0.36721089412E+03  0.55339077201E+02  0.70469082119E+03  0.88566665830E+02 0.  0.
         23    2    4    4    0    0  0.31117374734E+02 -0.25280109723E+03 -0.33338321672E+03  0.42873820084E+03  0.88291505243E+02 0.  0.
          2    1    3    3  502    0 -0.43910040482E+03 -0.76480786245E+02 -0.24286449928E+03  0.50758412227E+03  0.00000000000E+00 0. -1.
         -1    1    3    3    0  502 -0.18433347732E+03 -0.37929010647E+02 -0.16582599351E+03  0.25083002379E+03  0.00000000000E+00 0.  1.
         11    1    5    5    0    0  0.37662043521E+03  0.19517044203E+03  0.62077444325E+02  0.42870509999E+03  0.00000000000E+00 0. -1.
        -11    1    5    5    0    0  0.21569607219E+03  0.17204045209E+03 -0.67383671233E+01  0.27598572120E+03  0.00000000000E+00 0.  1.
          2    1    6    6  503    0  0.59684363211E+02 -0.13651270444E+03 -0.20154804373E+03  0.25063829639E+03  0.00000000000E+00 0.  1.
         -2    1    6    6    0  503 -0.28566988477E+02 -0.11628839279E+03 -0.13183517299E+03  0.17809990445E+03  0.00000000000E+00 0. -1.
<mgrwt>
<rscale>  0 0.17628006E+04</rscale>
<asrwt>0</asrwt>
<pdfrwt beam="1">  1        2 0.92700658E-01 0.17628006E+04</pdfrwt>
<pdfrwt beam="2">  1       -1 0.19835214E+00 0.17628006E+04</pdfrwt>
<totfact> 0.82442517E+00</totfact>
</mgrwt>
</event>
<event>
12    6  0.1402540E-007  0.2017041E+04  0.7818608E-02  0.8598695E-01
         -1   -1    0    0    0  501 -0.00000000000E+00  0.00000000000E+00  0.74175007990E+03  0.74175007990E+03  0.00000000000E+00 0.  1.
          2   -1    0    0  501    0  0.00000000000E+00 -0.00000000000E+00 -0.13712342612E+04  0.13712342612E+04  0.00000000000E+00 0. -1.
         24    2    1    2    0    0  0.36199542512E+03 -0.64659873329E+03  0.77525109295E+02  0.74934609002E+03  0.79867454888E+02 0.  0.
        254    2    1    2    0    0 -0.36199542512E+03  0.64659873329E+03 -0.70700929060E+03  0.13636382511E+04  0.90028691713E+03 0.  0.
         23    2    4    4    0    0 -0.34116781054E+03  0.76490662010E+03 -0.82081018259E+03  0.11762258895E+04  0.91106393157E+02 0.  0.
         23    2    4    4    0    0 -0.20827614577E+02 -0.11830788681E+03  0.11380089199E+03  0.18741236158E+03  0.87989798528E+02 0.  0.
          2    1    3    3  502    0  0.24772038828E+03 -0.36565317754E+03  0.57447699251E+02  0.44538508638E+03  0.00000000000E+00 0. -1.
         -1    1    3    3    0  502  0.11427503683E+03 -0.28094555575E+03  0.20077410044E+02  0.30396100364E+03  0.00000000000E+00 0.  1.
         11    1    5    5    0    0 -0.25709130091E+03  0.55124679965E+03 -0.53886716180E+03  0.81261724643E+03  0.00000000000E+00 0. -1.
        -11    1    5    5    0    0 -0.84076509633E+02  0.21365982045E+03 -0.28194302079E+03  0.36360864308E+03  0.00000000000E+00 0.  1.
          1    1    6    6  503    0 -0.35217907287E+02 -0.11250055484E+03  0.61710382999E+02  0.13305956261E+03  0.00000000000E+00 0. -1.
         -1    1    6    6    0  503  0.14390292710E+02 -0.58073319763E+01  0.52090508995E+02  0.54352798975E+02  0.00000000000E+00 0.  1.
<mgrwt>
<rscale>  0 0.20170405E+04</rscale>
<asrwt>0</asrwt>
<pdfrwt beam="1">  1        2 0.21095912E+00 0.20170405E+04</pdfrwt>
<pdfrwt beam="2">  1       -1 0.11411540E+00 0.20170405E+04</pdfrwt>
<totfact> 0.11114588E+01</totfact>
</mgrwt>
</event>
<event>
12    6  0.1402540E-007  0.3000421E+04  0.7818608E-02  0.8243611E-01
          2   -1    0    0  501    0  0.00000000000E+00  0.00000000000E+00  0.13975956105E+04  0.13975956105E+04  0.00000000000E+00 0. -1.
         -1   -1    0    0    0  501 -0.00000000000E+00 -0.00000000000E+00 -0.16103597401E+04  0.16103597401E+04  0.00000000000E+00 0.  1.
         24    2    1    2    0    0 -0.45587184212E+03  0.47559276841E+03 -0.12945951756E+04  0.14548410782E+04  0.81106573856E+02 0.  0.
        254    2    1    2    0    0  0.45587184212E+03 -0.47559276841E+03  0.10818310460E+04  0.15531142723E+04  0.89877578572E+03 0.  0.
         23    2    4    4    0    0  0.46818988203E+03 -0.60216346555E+03  0.42523383709E+03  0.87810010059E+03  0.91833357597E+02 0.  0.
         23    2    4    4    0    0 -0.12318039908E+02  0.12657069714E+03  0.65659720894E+03  0.67501417175E+03  0.91391256674E+02 0.  0.
          2    1    3    3  502    0 -0.12385580222E+03  0.18149437335E+03 -0.45570804991E+03  0.50591530324E+03  0.00000000000E+00 0. -1.
         -1    1    3    3    0  502 -0.33201603990E+03  0.29409839506E+03 -0.83888712570E+03  0.94892577497E+03  0.00000000000E+00 0.  1.
         11    1    5    5    0    0  0.32198073585E+03 -0.39023209493E+03  0.32768085587E+03  0.60276647674E+03  0.00000000000E+00 0. -1.
        -11    1    5    5    0    0  0.14620914617E+03 -0.21193137062E+03  0.97552981225E+02  0.27533362385E+03  0.00000000000E+00 0.  1.
          4    1    6    6  503    0 -0.50091867510E+01  0.11906700821E+03  0.38066701414E+03  0.39888522165E+03  0.00000000000E+00 0. -1.
         -4    1    6    6    0  503 -0.73088531570E+01  0.75036889276E+01  0.27593019480E+03  0.27612895010E+03  0.00000000000E+00 0.  1.
<mgrwt>
<rscale>  0 0.30004211E+04</rscale>
<asrwt>0</asrwt>
<pdfrwt beam="1">  1        2 0.21501471E+00 0.30004211E+04</pdfrwt>
<pdfrwt beam="2">  1       -1 0.24774765E+00 0.30004211E+04</pdfrwt>
<totfact> 0.10206630E+00</totfact>
</mgrwt>
</event>
<event>
12    6  0.1402540E-007  0.2352849E+04  0.7818608E-02  0.8457370E-01
          2   -1    0    0  501    0  0.00000000000E+00  0.00000000000E+00  0.16295393290E+04  0.16295393290E+04  0.00000000000E+00 0. -1.
         -1   -1    0    0    0  501 -0.00000000000E+00 -0.00000000000E+00 -0.84930414841E+03  0.84930414841E+03  0.00000000000E+00 0.  1.
         24    2    1    2    0    0  0.17224469823E+03 -0.98852503634E+03  0.32945013536E+03  0.10589844001E+04  0.77849755783E+02 0.  0.
        254    2    1    2    0    0 -0.17224469823E+03  0.98852503634E+03  0.45078504523E+03  0.14198590773E+04  0.89774309179E+03 0.  0.
         23    2    4    4    0    0 -0.52278096354E+03  0.72237503833E+03  0.28043139473E+03  0.93930901216E+03  0.92379766845E+02 0.  0.
         23    2    4    4    0    0  0.35053626531E+03  0.26614999801E+03  0.17035365050E+03  0.48055006514E+03  0.90534546642E+02 0.  0.
          2    1    3    3  502    0  0.13581393564E+02 -0.28140219376E+03  0.92548566219E+02  0.29654154180E+03  0.00000000000E+00 0. -1.
         -3    1    3    3    0  502  0.15866330466E+03 -0.70712284258E+03  0.23690156914E+03  0.76244285832E+03  0.00000000000E+00 0.  1.
         11    1    5    5    0    0 -0.35533845357E+03  0.45730339160E+03  0.14025766468E+03  0.59587248724E+03  0.00000000000E+00 0. -1.
        -11    1    5    5    0    0 -0.16744250997E+03  0.26507164673E+03  0.14017373006E+03  0.34343652491E+03  0.00000000000E+00 0.  1.
          4    1    6    6  503    0  0.29399779056E+03  0.25255461551E+03  0.16779670637E+03  0.42234378099E+03  0.00000000000E+00 0. -1.
         -4    1    6    6    0  503  0.56538474747E+02  0.13595382500E+02  0.25569441258E+01  0.58206284156E+02  0.00000000000E+00 0.  1.
<mgrwt>
<rscale>  0 0.23528489E+04</rscale>
<asrwt>0</asrwt>
<pdfrwt beam="1">  1        2 0.25069836E+00 0.23528489E+04</pdfrwt>
<pdfrwt beam="2">  1       -1 0.13066218E+00 0.23528489E+04</pdfrwt>
<totfact> 0.55254892E+00</totfact>
</mgrwt>
</event>
<event>
12    6  0.1402540E-007  0.2307917E+04  0.7818608E-02  0.8474806E-01
          2   -1    0    0  501    0  0.00000000000E+00  0.00000000000E+00  0.14118631727E+04  0.14118631727E+04  0.00000000000E+00 0. -1.
         -1   -1    0    0    0  501 -0.00000000000E+00 -0.00000000000E+00 -0.94316516323E+03  0.94316516323E+03  0.00000000000E+00 0.  1.
         24    2    1    2    0    0  0.60913692948E+03 -0.34908213565E+03 -0.49356627782E+03  0.86199906161E+03  0.80799599792E+02 0.  0.
        254    2    1    2    0    0 -0.60913692948E+03  0.34908213565E+03  0.96226428727E+03  0.14930292743E+04  0.90015427513E+03 0.  0.
         23    2    4    4    0    0 -0.69639981815E+03  0.44088073114E+02  0.92266304147E+03  0.11605642528E+04  0.93197810537E+02 0.  0.
         23    2    4    4    0    0  0.87262888669E+02  0.30499406254E+03  0.39601245800E+02  0.33246502148E+03  0.91260845471E+02 0.  0.
          2    1    3    3  502    0  0.46132381371E+03 -0.22583464424E+03 -0.34279494020E+03  0.61751867879E+03  0.00000000000E+00 0. -1.
         -1    1    3    3    0  502  0.14781311578E+03 -0.12324749142E+03 -0.15077133762E+03  0.24448038282E+03  0.00000000000E+00 0.  1.
         11    1    5    5    0    0 -0.15700832791E+03 -0.26628262211E+02  0.23162217852E+03  0.28108630874E+03  0.00000000000E+00 0.  1.
        -11    1    5    5    0    0 -0.53939149024E+03  0.70716335326E+02  0.69104086295E+03  0.87947794407E+03  0.00000000000E+00 0. -1.
          3    1    6    6  503    0  0.98244801175E+02  0.23781106834E+03  0.53935305049E+02  0.26289762706E+03  0.00000000000E+00 0. -1.
         -3    1    6    6    0  503 -0.10981912506E+02  0.67182994200E+02 -0.14334059250E+02  0.69567394421E+02  0.00000000000E+00 0.  1.
<mgrwt>
<rscale>  0 0.23079169E+04</rscale>
<asrwt>0</asrwt>
<pdfrwt beam="1">  1        2 0.21720972E+00 0.23079169E+04</pdfrwt>
<pdfrwt beam="2">  1       -1 0.14510233E+00 0.23079169E+04</pdfrwt>
<totfact> 0.56086797E+00</totfact>
</mgrwt>
</event>
<event>
12    6  0.1402540E-007  0.1350252E+04  0.7818608E-02  0.8990637E-01
         -1   -1    0    0    0  501 -0.00000000000E+00  0.00000000000E+00  0.17154871732E+03  0.17154871732E+03  0.00000000000E+00 0.  1.
          2   -1    0    0  501    0  0.00000000000E+00 -0.00000000000E+00 -0.26569439284E+04  0.26569439284E+04  0.00000000000E+00 0. -1.
         24    2    1    2    0    0 -0.22022783623E+03  0.29441846451E+03 -0.66508917950E+03  0.76408491653E+03  0.79370088078E+02 0.  0.
        254    2    1    2    0    0  0.22022783623E+03 -0.29441846451E+03 -0.18203060315E+04  0.20644077292E+04  0.90171098010E+03 0.  0.
         23    2    4    4    0    0  0.47354843005E+03  0.10380420023E+02 -0.55327242061E+03  0.73372238043E+03  0.88782269743E+02 0.  0.
         23    2    4    4    0    0 -0.25332059382E+03 -0.30479888453E+03 -0.12670336109E+04  0.13306853487E+04  0.90970560034E+02 0.  0.
          2    1    3    3  502    0 -0.50088605648E+02  0.12000285145E+03 -0.27423632929E+03  0.30350472332E+03  0.00000000000E+00 0. -1.
         -1    1    3    3    0  502 -0.17013923058E+03  0.17441561306E+03 -0.39085285020E+03  0.46058019321E+03  0.00000000000E+00 0.  1.
         11    1    5    5    0    0  0.36613857160E+03  0.40762023636E+02 -0.45090049051E+03  0.58226304067E+03  0.00000000000E+00 0.  1.
        -11    1    5    5    0    0  0.10740985846E+03 -0.30381603613E+02 -0.10237193009E+03  0.15145933977E+03  0.00000000000E+00 0. -1.
          2    1    6    6  503    0 -0.23779446809E+03 -0.26050092274E+03 -0.11826295921E+04  0.12341068398E+04  0.00000000000E+00 0. -1.
         -2    1    6    6    0  503 -0.15526125732E+02 -0.44297961794E+02 -0.84404018806E+02  0.96578508944E+02  0.00000000000E+00 0.  1.
<mgrwt>
<rscale>  0 0.13502523E+04</rscale>
<asrwt>0</asrwt>
<pdfrwt beam="1">  1        2 0.40876056E+00 0.13502523E+04</pdfrwt>
<pdfrwt beam="2">  1       -1 0.26392113E-01 0.13502523E+04</pdfrwt>
<totfact> 0.40208722E+01</totfact>
</mgrwt>
</event>
<event>
12    6  0.1402540E-007  0.1381576E+04  0.7818608E-02  0.8967264E-01
         -1   -1    0    0    0  501 -0.00000000000E+00  0.00000000000E+00  0.19042724053E+03  0.19042724053E+03  0.00000000000E+00 0.  1.
          2   -1    0    0  501    0  0.00000000000E+00 -0.00000000000E+00 -0.25058812854E+04  0.25058812854E+04  0.00000000000E+00 0. -1.
         24    2    1    2    0    0  0.31436063677E+03 -0.96523925177E+02 -0.25963256126E+03  0.42690780734E+03  0.81864100912E+02 0.  0.
        254    2    1    2    0    0 -0.31436063677E+03  0.96523925177E+02 -0.20558214836E+04  0.22694007186E+04  0.90312688533E+03 0.  0.
         23    2    4    4    0    0  0.12934224399E+03 -0.29423928332E+03 -0.48443074223E+03  0.58857043693E+03  0.91846846913E+02 0.  0.
         23    2    4    4    0    0 -0.44370288076E+03  0.39076320849E+03 -0.15713907414E+04  0.16808302816E+04  0.79708482284E+02 0.  0.
          4    1    3    3  502    0  0.17994937946E+03 -0.96131300814E+02 -0.16724582612E+03  0.26380707443E+03  0.00000000000E+00 0. -1.
         -3    1    3    3    0  502  0.13441125731E+03 -0.39262436244E+00 -0.92386735136E+02  0.16310073291E+03  0.00000000000E+00 0.  1.
         11    1    5    5    0    0  0.13463306228E+03 -0.21651575433E+03 -0.34703324376E+03  0.43062420463E+03  0.00000000000E+00 0. -1.
        -11    1    5    5    0    0 -0.52908182830E+01 -0.77723528983E+02 -0.13739749847E+03  0.15794623231E+03  0.00000000000E+00 0.  1.
          4    1    6    6  503    0 -0.44716108141E+03  0.38778719441E+03 -0.15558010674E+04  0.16645867061E+04  0.00000000000E+00 0. -1.
         -4    1    6    6    0  503  0.34582006481E+01  0.29760140877E+01 -0.15589673936E+02  0.16243575499E+02  0.00000000000E+00 0.  1.
<mgrwt>
<rscale>  0 0.13815760E+04</rscale>
<asrwt>0</asrwt>
<pdfrwt beam="1">  1        2 0.38552022E+00 0.13815760E+04</pdfrwt>
<pdfrwt beam="2">  1       -1 0.29296497E-01 0.13815760E+04</pdfrwt>
<totfact> 0.40942526E+01</totfact>
</mgrwt>
</event>
<event>
12    6  0.1402540E-007  0.5467869E+04  0.7818608E-02  0.7760126E-01
          2   -1    0    0  501    0  0.00000000000E+00  0.00000000000E+00  0.30829735088E+04  0.30829735088E+04  0.00000000000E+00 0. -1.
         -1   -1    0    0    0  501 -0.00000000000E+00 -0.00000000000E+00 -0.24244121166E+04  0.24244121166E+04  0.00000000000E+00 0.  1.
         24    2    1    2    0    0  0.25712165501E+04  0.10791478812E+03 -0.35437079640E+03  0.25990075684E+04  0.80383643222E+02 0.  0.
        254    2    1    2    0    0 -0.25712165501E+04 -0.10791478812E+03  0.10129321886E+04  0.29083780570E+04  0.89990619228E+03 0.  0.
         23    2    4    4    0    0 -0.10914996222E+04  0.36761109635E+03  0.28706706911E+03  0.11905469174E+04  0.92114694225E+02 0.  0.
         23    2    4    4    0    0 -0.14797169279E+04 -0.47552588447E+03  0.72586511947E+03  0.17178311397E+04  0.91523762777E+02 0.  0.
          2    1    3    3  502    0  0.17552778036E+04  0.36977630463E+02 -0.23398906369E+03  0.17711912362E+04  0.00000000000E+00 0. -1.
         -1    1    3    3    0  502  0.81593874646E+03  0.70937157652E+02 -0.12038173270E+03  0.82781633222E+03  0.00000000000E+00 0.  1.
         11    1    5    5    0    0 -0.68040282518E+02  0.58329750167E+01  0.24438431861E+01  0.68333564316E+02  0.00000000000E+00 0. -1.
        -11    1    5    5    0    0 -0.10234593397E+04  0.36177812134E+03  0.28462322592E+03  0.11222133531E+04  0.00000000000E+00 0.  1.
          4    1    6    6  503    0 -0.17957884104E+03 -0.80865001898E+02  0.11548274765E+03  0.22830675348E+03  0.00000000000E+00 0. -1.
         -4    1    6    6    0  503 -0.13001380869E+04 -0.39466088257E+03  0.61038237181E+03  0.14895243862E+04  0.00000000000E+00 0.  1.
<mgrwt>
<rscale>  0 0.54678692E+04</rscale>
<asrwt>0</asrwt>
<pdfrwt beam="1">  1        2 0.47430362E+00 0.54678692E+04</pdfrwt>
<pdfrwt beam="2">  1       -1 0.37298648E+00 0.54678692E+04</pdfrwt>
<totfact> 0.13426070E-02</totfact>
</mgrwt>
</event>
<event>
12    6  0.1402540E-007  0.2116451E+04  0.7818608E-02  0.8554031E-01
         -1   -1    0    0    0  501 -0.00000000000E+00  0.00000000000E+00  0.80169627054E+03  0.80169627054E+03  0.00000000000E+00 0.  1.
          2   -1    0    0  501    0  0.00000000000E+00 -0.00000000000E+00 -0.13968391419E+04  0.13968391419E+04  0.00000000000E+00 0. -1.
         24    2    1    2    0    0 -0.24915816098E+03 -0.48213660348E+03  0.45423165185E+03  0.71236187361E+03  0.81225315262E+02 0.  0.
        254    2    1    2    0    0  0.24915816098E+03  0.48213660348E+03 -0.10493745232E+04  0.14861735388E+04  0.90165925047E+03 0.  0.
         23    2    4    4    0    0 -0.19751437192E+03 -0.15178549544E+03 -0.19492501815E+03  0.32855053769E+03  0.88875921243E+02 0.  0.
         23    2    4    4    0    0  0.44667253290E+03  0.63392209891E+03 -0.85444950508E+03  0.11576230012E+04  0.92916505159E+02 0.  0.
          4    1    3    3  502    0 -0.15523842979E+03 -0.35963883633E+03  0.35659450560E+03  0.52971568233E+03  0.00000000000E+00 0. -1.
         -3    1    3    3    0  502 -0.93919731187E+02 -0.12249776715E+03  0.97637146246E+02  0.18264619128E+03  0.00000000000E+00 0.  1.
         11    1    5    5    0    0 -0.76606060581E+02 -0.83687028980E+02 -0.13777320986E+03  0.17847538960E+03  0.00000000000E+00 0. -1.
        -11    1    5    5    0    0 -0.12090831134E+03 -0.68098466456E+02 -0.57151808293E+02  0.15007514810E+03  0.00000000000E+00 0.  1.
          4    1    6    6  503    0  0.26979607039E+03  0.45802057140E+03 -0.58064601884E+03  0.78722459478E+03  0.00000000000E+00 0. -1.
         -4    1    6    6    0  503  0.17687646250E+03  0.17590152751E+03 -0.27380348624E+03  0.37039840638E+03  0.00000000000E+00 0.  1.
<mgrwt>
<rscale>  0 0.21164505E+04</rscale>
<asrwt>0</asrwt>
<pdfrwt beam="1">  1        2 0.21489833E+00 0.21164505E+04</pdfrwt>
<pdfrwt beam="2">  1       -1 0.12333789E+00 0.21164505E+04</pdfrwt>
<totfact> 0.88174866E+00</totfact>
</mgrwt>
</event>
<event>
12    6  0.1402540E-007  0.2371872E+04  0.7818608E-02  0.8450110E-01
          2   -1    0    0  501    0  0.00000000000E+00  0.00000000000E+00  0.13715287006E+04  0.13715287006E+04  0.00000000000E+00 0. -1.
         -1   -1    0    0    0  501 -0.00000000000E+00 -0.00000000000E+00 -0.10254569872E+04  0.10254569872E+04  0.00000000000E+00 0.  1.
         24    2    1    2    0    0 -0.49493626514E+03  0.56044806646E+03  0.83980460903E+03  0.11273617566E+04  0.81294569771E+02 0.  0.
        254    2    1    2    0    0  0.49493626514E+03 -0.56044806646E+03 -0.49373289562E+03  0.12696239312E+04  0.89950475971E+03 0.  0.
         23    2    4    4    0    0  0.62290262498E+03 -0.69311355634E+03 -0.28934161538E+03  0.97980118057E+03  0.88756413095E+02 0.  0.
         23    2    4    4    0    0 -0.12796635984E+03  0.13266548988E+03 -0.20439128025E+03  0.28982275065E+03  0.90806992547E+02 0.  0.
          4    1    3    3  502    0 -0.22915130452E+03  0.23703922386E+03  0.42676351033E+03  0.53928193717E+03  0.00000000000E+00 0. -1.
         -1    1    3    3    0  502 -0.26578496062E+03  0.32340884261E+03  0.41304109870E+03  0.58807981940E+03  0.00000000000E+00 0.  1.
         11    1    5    5    0    0  0.25350890595E+02 -0.60654895557E+02 -0.14420017378E+02  0.67302458426E+02  0.00000000000E+00 0.  1.
        -11    1    5    5    0    0  0.59755173438E+03 -0.63245866079E+03 -0.27492159800E+03  0.91249872214E+03  0.00000000000E+00 0. -1.
          1    1    6    6  503    0 -0.10369671817E+03  0.59260748793E+02 -0.16315898545E+03  0.20220212719E+03  0.00000000000E+00 0. -1.
         -1    1    6    6    0  503 -0.24269641666E+02  0.73404741085E+02 -0.41232294798E+02  0.87620623455E+02  0.00000000000E+00 0.  1.
<mgrwt>
<rscale>  0 0.23718716E+04</rscale>
<asrwt>0</asrwt>
<pdfrwt beam="1">  1        2 0.21100442E+00 0.23718716E+04</pdfrwt>
<pdfrwt beam="2">  1       -1 0.15776261E+00 0.23718716E+04</pdfrwt>
<totfact> 0.46901297E+00</totfact>
</mgrwt>
</event>
<event>
12    6  0.1402540E-007  0.1646968E+04  0.7818608E-02  0.8792202E-01
         -1   -1    0    0    0  501 -0.00000000000E+00  0.00000000000E+00  0.22699501547E+04  0.22699501547E+04  0.00000000000E+00 0.  1.
          2   -1    0    0  501    0  0.00000000000E+00 -0.00000000000E+00 -0.29874046292E+03  0.29874046292E+03  0.00000000000E+00 0. -1.
         24    2    1    2    0    0 -0.46938245384E+03  0.21130207612E+03  0.30073057223E+03  0.60144833190E+03  0.79578662571E+02 0.  0.
        254    2    1    2    0    0  0.46938245384E+03 -0.21130207612E+03  0.16704791195E+04  0.19672422857E+04  0.90253712751E+03 0.  0.
         23    2    4    4    0    0  0.57205592425E+03 -0.33176432381E+03  0.65546375577E+03  0.93588771953E+03  0.94538571058E+02 0.  0.
         23    2    4    4    0    0 -0.10267347041E+03  0.12046224770E+03  0.10150153638E+04  0.10313545662E+04  0.91559040224E+02 0.  0.
          2    1    3    3  502    0 -0.26231718531E+03  0.87775477355E+02  0.12765286404E+03  0.30464749110E+03  0.00000000000E+00 0. -1.
         -1    1    3    3    0  502 -0.20706526852E+03  0.12352659876E+03  0.17307770820E+03  0.29680084081E+03  0.00000000000E+00 0.  1.
         11    1    5    5    0    0  0.44594449628E+03 -0.24097491546E+03  0.44663445764E+03  0.67558696139E+03  0.00000000000E+00 0. -1.
        -11    1    5    5    0    0  0.12611142797E+03 -0.90789408352E+02  0.20882929813E+03  0.26030075814E+03  0.00000000000E+00 0.  1.
          4    1    6    6  503    0 -0.16991958796E+02  0.69434474049E+02  0.61303865820E+03  0.61719224663E+03  0.00000000000E+00 0. -1.
         -4    1    6    6    0  503 -0.85681511618E+02  0.51027773650E+02  0.40197670556E+03  0.41416231954E+03  0.00000000000E+00 0.  1.
<mgrwt>
<rscale>  0 0.16469681E+04</rscale>
<asrwt>0</asrwt>
<pdfrwt beam="1">  1        2 0.45960073E-01 0.16469681E+04</pdfrwt>
<pdfrwt beam="2">  1       -1 0.34922309E+00 0.16469681E+04</pdfrwt>
<totfact> 0.19036759E+00</totfact>
</mgrwt>
</event>
<event>
12    6  0.1402540E-007  0.1293214E+04  0.7818608E-02  0.9034964E-01
         -1   -1    0    0    0  501 -0.00000000000E+00  0.00000000000E+00  0.19855150642E+04  0.19855150642E+04  0.00000000000E+00 0.  1.
          2   -1    0    0  501    0  0.00000000000E+00 -0.00000000000E+00 -0.21057523071E+03  0.21057523071E+03  0.00000000000E+00 0. -1.
         24    2    1    2    0    0 -0.14893781195E+03 -0.82142546068E+02  0.93509394760E+03  0.95400680719E+03  0.82452578019E+02 0.  0.
        254    2    1    2    0    0  0.14893781195E+03  0.82142546068E+02  0.83984588591E+03  0.12420834877E+04  0.89916650779E+03 0.  0.
         23    2    4    4    0    0  0.15041849422E+03 -0.25714318240E+02 -0.15555727334E+03  0.23662099551E+03  0.92219741175E+02 0.  0.
         23    2    4    4    0    0 -0.14806822737E+01  0.10785686431E+03  0.99540315925E+03  0.10054624922E+04  0.92152472750E+02 0.  0.
          2    1    3    3  502    0  0.85015180127E+01 -0.16113039816E+02  0.98456537459E+02  0.10012789636E+03  0.00000000000E+00 0. -1.
         -3    1    3    3    0  502 -0.15743932996E+03 -0.66029506252E+02  0.83663741014E+03  0.85387891083E+03  0.00000000000E+00 0.  1.
         11    1    5    5    0    0 -0.48241159601E+01  0.11879619966E+02 -0.32650571771E+02  0.35077874826E+02  0.00000000000E+00 0. -1.
        -11    1    5    5    0    0  0.15524261018E+03 -0.37593938206E+02 -0.12290670157E+03  0.20154312069E+03  0.00000000000E+00 0.  1.
          2    1    6    6  503    0  0.29938911249E+02  0.38183948792E+02  0.17803105113E+03  0.18452481546E+03  0.00000000000E+00 0. -1.
         -2    1    6    6    0  503 -0.31419593523E+02  0.69672915516E+02  0.81737210811E+03  0.82093767677E+03  0.00000000000E+00 0.  1.
<mgrwt>
<rscale>  0 0.12932135E+04</rscale>
<asrwt>0</asrwt>
<pdfrwt beam="1">  1        2 0.32396191E-01 0.12932135E+04</pdfrwt>
<pdfrwt beam="2">  1       -1 0.30546384E+00 0.12932135E+04</pdfrwt>
<totfact> 0.56171652E+00</totfact>
</mgrwt>
</event>
<event>
12    6  0.1402540E-007  0.1955722E+04  0.7818608E-02  0.8627607E-01
         -1   -1    0    0    0  501 -0.00000000000E+00  0.00000000000E+00  0.11475436553E+04  0.11475436553E+04  0.00000000000E+00 0.  1.
          2   -1    0    0  501    0  0.00000000000E+00 -0.00000000000E+00 -0.83326821141E+03  0.83326821141E+03  0.00000000000E+00 0. -1.
         24    2    1    2    0    0  0.78045183265E+02  0.73981924573E+03 -0.69800967774E+02  0.75162385509E+03  0.81502622348E+02 0.  0.
        254    2    1    2    0    0 -0.78045183265E+02 -0.73981924573E+03  0.38407641163E+03  0.12291880116E+04  0.89998050583E+03 0.  0.
         23    2    4    4    0    0 -0.44993947763E+03 -0.22949532137E+03  0.69858045322E+02  0.51812744507E+03  0.91990579853E+02 0.  0.
         23    2    4    4    0    0  0.37189429436E+03 -0.51032392436E+03  0.31421836631E+03  0.71106056652E+03  0.90211271885E+02 0.  0.
          2    1    3    3  502    0  0.82874464020E+02  0.40858223141E+03 -0.30237991500E+02  0.41799755112E+03  0.00000000000E+00 0. -1.
         -1    1    3    3    0  502 -0.48292807547E+01  0.33123701432E+03 -0.39562976274E+02  0.33362630396E+03  0.00000000000E+00 0.  1.
         11    1    5    5    0    0 -0.25373789833E+02  0.63426009070E+01  0.12794927220E+02  0.29116455130E+02  0.00000000000E+00 0.  1.
        -11    1    5    5    0    0 -0.42456568779E+03 -0.23583792227E+03  0.57063118102E+02  0.48901098994E+03  0.00000000000E+00 0. -1.
          4    1    6    6  503    0  0.23873315046E+03 -0.35032605341E+03  0.25467058400E+03  0.49454925657E+03  0.00000000000E+00 0. -1.
         -4    1    6    6    0  503  0.13316114391E+03 -0.15999787095E+03  0.59547782316E+02  0.21651130995E+03  0.00000000000E+00 0.  1.
<mgrwt>
<rscale>  0 0.19557215E+04</rscale>
<asrwt>0</asrwt>
<pdfrwt beam="1">  1        2 0.12819511E+00 0.19557215E+04</pdfrwt>
<pdfrwt beam="2">  1       -1 0.17654518E+00 0.19557215E+04</pdfrwt>
<totfact> 0.76477954E+00</totfact>
</mgrwt>
</event>
<event>
12    6  0.1402540E-007  0.2779554E+04  0.7818608E-02  0.8309644E-01
         -1   -1    0    0    0  501 -0.00000000000E+00  0.00000000000E+00  0.18509244712E+04  0.18509244712E+04  0.00000000000E+00 0.  1.
          2   -1    0    0  501    0  0.00000000000E+00 -0.00000000000E+00 -0.10435217933E+04  0.10435217933E+04  0.00000000000E+00 0. -1.
         24    2    1    2    0    0  0.30737323796E+03 -0.12038019080E+04  0.38004704251E+03  0.13017369585E+04  0.80411526738E+02 0.  0.
        254    2    1    2    0    0 -0.30737323796E+03  0.12038019080E+04  0.42735563541E+03  0.15927093059E+04  0.90026260225E+03 0.  0.
         23    2    4    4    0    0 -0.24564152638E+03  0.12068497892E+02  0.28487516395E+03  0.38743368611E+03  0.92008662468E+02 0.  0.
         23    2    4    4    0    0 -0.61731711572E+02  0.11917334101E+04  0.14248047146E+03  0.12052756198E+04  0.91374559084E+02 0.  0.
          4    1    3    3  502    0  0.88011387606E+02 -0.47948670241E+03  0.17058751303E+03  0.51648194716E+03  0.00000000000E+00 0. -1.
         -1    1    3    3    0  502  0.21936185035E+03 -0.72431520558E+03  0.20945952948E+03  0.78525501139E+03  0.00000000000E+00 0.  1.
         11    1    5    5    0    0 -0.23177016297E+03 -0.13998644408E+02  0.24202220366E+03  0.33539248285E+03  0.00000000000E+00 0.  1.
        -11    1    5    5    0    0 -0.13871363413E+02  0.26067142300E+02  0.42852960293E+02  0.52041203258E+02  0.00000000000E+00 0. -1.
          3    1    6    6  503    0 -0.25546780728E+02  0.72727207243E+03  0.43578061717E+02  0.72902424706E+03  0.00000000000E+00 0. -1.
         -3    1    6    6    0  503 -0.36184930844E+02  0.46446133767E+03  0.98902409742E+02  0.47625137277E+03  0.00000000000E+00 0.  1.
<mgrwt>
<rscale>  0 0.27795539E+04</rscale>
<asrwt>0</asrwt>
<pdfrwt beam="1">  1        2 0.16054181E+00 0.27795539E+04</pdfrwt>
<pdfrwt beam="2">  1       -1 0.28475761E+00 0.27795539E+04</pdfrwt>
<totfact> 0.97316181E-01</totfact>
</mgrwt>
</event>
<event>
12    6  0.1402540E-007  0.2908527E+04  0.7818608E-02  0.8270345E-01
         -1   -1    0    0    0  501 -0.00000000000E+00  0.00000000000E+00  0.16369042454E+04  0.16369042454E+04  0.00000000000E+00 0.  1.
          2   -1    0    0  501    0  0.00000000000E+00 -0.00000000000E+00 -0.12920010384E+04  0.12920010384E+04  0.00000000000E+00 0. -1.
         24    2    1    2    0    0 -0.45939489120E+03  0.87986229211E+03  0.10228115743E+04  0.14272149933E+04  0.74818456085E+02 0.  0.
        254    2    1    2    0    0  0.45939489120E+03 -0.87986229211E+03 -0.67790836721E+03  0.15016902906E+04  0.90017368062E+03 0.  0.
         23    2    4    4    0    0 -0.87602359073E+02 -0.76128698127E+03 -0.38757033228E+03  0.86352863251E+03  0.90768361956E+02 0.  0.
         23    2    4    4    0    0  0.54699725027E+03 -0.11857531084E+03 -0.29033803493E+03  0.63816165805E+03  0.98427796500E+02 0.  0.
          2    1    3    3  502    0 -0.65799843585E+02  0.18996520278E+03  0.19964134949E+03  0.28332501850E+03  0.00000000000E+00 0. -1.
         -1    1    3    3    0  502 -0.39359504762E+03  0.68989708932E+03  0.82317022479E+03  0.11438899748E+04  0.00000000000E+00 0.  1.
         11    1    5    5    0    0 -0.13461671926E+02 -0.11524335274E+03 -0.97196714757E+02  0.15135867442E+03  0.00000000000E+00 0.  1.
        -11    1    5    5    0    0 -0.74140687147E+02 -0.64604362853E+03 -0.29037361753E+03  0.71216995809E+03  0.00000000000E+00 0. -1.
          3    1    6    6  503    0  0.30913691446E+03 -0.81951149394E+02 -0.21732152346E+03  0.38666557557E+03  0.00000000000E+00 0. -1.
         -3    1    6    6    0  503  0.23786033581E+03 -0.36624161442E+02 -0.73016511471E+02  0.25149608248E+03  0.00000000000E+00 0.  1.
<mgrwt>
<rscale>  0 0.29085268E+04</rscale>
<asrwt>0</asrwt>
<pdfrwt beam="1">  1        2 0.19876939E+00 0.29085268E+04</pdfrwt>
<pdfrwt beam="2">  1       -1 0.25183142E+00 0.29085268E+04</pdfrwt>
<totfact> 0.11134584E+00</totfact>
</mgrwt>
</event>
<event>
12    6  0.1402540E-007  0.2908179E+04  0.7818608E-02  0.8270448E-01
         -1   -1    0    0    0  501 -0.00000000000E+00  0.00000000000E+00  0.76535727956E+03  0.76535727956E+03  0.00000000000E+00 0.  1.
          2   -1    0    0  501    0  0.00000000000E+00 -0.00000000000E+00 -0.27626009764E+04  0.27626009764E+04  0.00000000000E+00 0. -1.
         24    2    1    2    0    0 -0.65358903456E+03  0.66612275610E+03 -0.20242103720E+04  0.22303946180E+04  0.79588752867E+02 0.  0.
        254    2    1    2    0    0  0.65358903456E+03 -0.66612275610E+03  0.26966675165E+02  0.12975636380E+04  0.90113597236E+03 0.  0.
         23    2    4    4    0    0 -0.20014594410E+03 -0.23110284163E+03 -0.80484968989E+02  0.32907892368E+03  0.91368404987E+02 0.  0.
         23    2    4    4    0    0  0.85373497866E+03 -0.43501991447E+03  0.10745164415E+03  0.96848471428E+03  0.91164939428E+02 0.  0.
          4    1    3    3  502    0 -0.60241937894E+02  0.60155335764E+02 -0.24555219905E+03  0.25989158886E+03  0.00000000000E+00 0. -1.
         -3    1    3    3    0  502 -0.59334709667E+03  0.60596742034E+03 -0.17786581729E+04  0.19705030291E+04  0.00000000000E+00 0.  1.
         11    1    5    5    0    0 -0.70695579865E+02 -0.23672163279E+02 -0.17183723328E+02  0.76508278468E+02  0.00000000000E+00 0. -1.
        -11    1    5    5    0    0 -0.12945036423E+03 -0.20743067835E+03 -0.63301245662E+02  0.25257064521E+03  0.00000000000E+00 0.  1.
          3    1    6    6  503    0  0.51441945517E+03 -0.21917098061E+03  0.86238814585E+02  0.56577418440E+03  0.00000000000E+00 0.  1.
         -3    1    6    6    0  503  0.33931552349E+03 -0.21584893386E+03  0.21212829570E+02  0.40271052987E+03  0.00000000000E+00 0. -1.
<mgrwt>
<rscale>  0 0.29081793E+04</rscale>
<asrwt>0</asrwt>
<pdfrwt beam="1">  1        2 0.42501554E+00 0.29081793E+04</pdfrwt>
<pdfrwt beam="2">  1       -1 0.11774727E+00 0.29081793E+04</pdfrwt>
<totfact> 0.15474962E+00</totfact>
</mgrwt>
</event>
<event>
12    6  0.1402540E-007  0.3801850E+04  0.7818608E-02  0.8045758E-01
         -1   -1    0    0    0  501 -0.00000000000E+00  0.00000000000E+00  0.11076566699E+04  0.11076566699E+04  0.00000000000E+00 0.  1.
          2   -1    0    0  501    0  0.00000000000E+00 -0.00000000000E+00 -0.32623061714E+04  0.32623061714E+04  0.00000000000E+00 0. -1.
         24    2    1    2    0    0  0.97767890789E+03 -0.13697038947E+04 -0.17304286734E+04  0.24151277456E+04  0.80708287968E+02 0.  0.
        254    2    1    2    0    0 -0.97767890789E+03  0.13697038947E+04 -0.42422082806E+03  0.19548350956E+04  0.89970669331E+03 0.  0.
         23    2    4    4    0    0 -0.77735625518E+03  0.77388133355E+03  0.13399090600E+03  0.11088635565E+04  0.91922565771E+02 0.  0.
         23    2    4    4    0    0 -0.20032265271E+03  0.59582256116E+03 -0.55821173406E+03  0.84597153914E+03  0.94518862807E+02 0.  0.
          4    1    3    3  502    0  0.84414490821E+03 -0.12109099248E+04 -0.14863829452E+04  0.20948073257E+04  0.00000000000E+00 0. -1.
         -3    1    3    3    0  502  0.13353399968E+03 -0.15879396988E+03 -0.24404572824E+03  0.32032041991E+03  0.00000000000E+00 0.  1.
         11    1    5    5    0    0 -0.13391600604E+03  0.13974516957E+03  0.59025152152E+02  0.20235161892E+03  0.00000000000E+00 0. -1.
        -11    1    5    5    0    0 -0.64344024914E+03  0.63413616399E+03  0.74965753846E+02  0.90651193756E+03  0.00000000000E+00 0.  1.
          3    1    6    6  503    0 -0.20609250655E+03  0.54317569972E+03 -0.52772536580E+03  0.78486178639E+03  0.00000000000E+00 0. -1.
         -3    1    6    6    0  503  0.57698538344E+01  0.52646861437E+02 -0.30486368261E+02  0.61109752758E+02  0.00000000000E+00 0.  1.
<mgrwt>
<rscale>  0 0.38018496E+04</rscale>
<asrwt>0</asrwt>
<pdfrwt beam="1">  1        2 0.50189326E+00 0.38018496E+04</pdfrwt>
<pdfrwt beam="2">  1       -1 0.17040872E+00 0.38018496E+04</pdfrwt>
<totfact> 0.26212016E-01</totfact>
</mgrwt>
</event>
<event>
12    6  0.1402540E-007  0.1400331E+04  0.7818608E-02  0.8953579E-01
         -1   -1    0    0    0  501 -0.00000000000E+00  0.00000000000E+00  0.19444937507E+03  0.19444937507E+03  0.00000000000E+00 0.  1.
          2   -1    0    0  501    0  0.00000000000E+00 -0.00000000000E+00 -0.25211265401E+04  0.25211265401E+04  0.00000000000E+00 0. -1.
         24    2    1    2    0    0 -0.18704774096E+03 -0.31666756719E+03 -0.94301262533E+03  0.10156848219E+04  0.84128712972E+02 0.  0.
        254    2    1    2    0    0  0.18704774096E+03  0.31666756719E+03 -0.13836645397E+04  0.16998910933E+04  0.91642619187E+03 0.  0.
         23    2    4    4    0    0 -0.32118585382E+01 -0.71466486823E+02 -0.12243858456E+04  0.12300112237E+04  0.93215539685E+02 0.  0.
         23    2    4    4    0    0  0.19025959950E+03  0.38813405401E+03 -0.15927869417E+03  0.46987986962E+03  0.92577699142E+02 0.  0.
          2    1    3    3  502    0 -0.22272223988E+02 -0.47335741135E+02 -0.23028175212E+03  0.23614912599E+03  0.00000000000E+00 0. -1.
         -1    1    3    3    0  502 -0.16477551697E+03 -0.26933182605E+03 -0.71273087321E+03  0.77953569588E+03  0.00000000000E+00 0.  1.
         11    1    5    5    0    0  0.29186742052E+02  0.77413170946E+01 -0.42061017842E+03  0.42169267968E+03  0.00000000000E+00 0. -1.
        -11    1    5    5    0    0 -0.32398600590E+02 -0.79207803918E+02 -0.80377566715E+03  0.80831854403E+03  0.00000000000E+00 0.  1.
          1    1    6    6  503    0  0.66820294726E+02  0.17286725119E+03 -0.22944102815E+02  0.18674707541E+03  0.00000000000E+00 0. -1.
         -1    1    6    6    0  503  0.12343930477E+03  0.21526680282E+03 -0.13633459135E+03  0.28313279421E+03  0.00000000000E+00 0.  1.
<mgrwt>
<rscale>  0 0.14003306E+04</rscale>
<asrwt>0</asrwt>
<pdfrwt beam="1">  1        2 0.38786562E+00 0.14003306E+04</pdfrwt>
<pdfrwt beam="2">  1       -1 0.29915289E-01 0.14003306E+04</pdfrwt>
<totfact> 0.38616403E+01</totfact>
</mgrwt>
</event>
<event>
12    6  0.1402540E-007  0.1349828E+04  0.7818608E-02  0.8990958E-01
          2   -1    0    0  501    0  0.00000000000E+00  0.00000000000E+00  0.74193096498E+03  0.74193096498E+03  0.00000000000E+00 0. -1.
         -1   -1    0    0    0  501 -0.00000000000E+00 -0.00000000000E+00 -0.61395033754E+03  0.61395033754E+03  0.00000000000E+00 0.  1.
         24    2    1    2    0    0  0.15769082553E+03 -0.27655885534E+03  0.22643443181E+03  0.39891884496E+03  0.80700037346E+02 0.  0.
        254    2    1    2    0    0 -0.15769082553E+03  0.27655885534E+03 -0.98453804367E+02  0.95696245756E+03  0.89706900329E+03 0.  0.
         23    2    4    4    0    0 -0.14416621404E+03 -0.24250884645E+02 -0.45232287302E+03  0.48382532337E+03  0.90105268422E+02 0.  0.
         23    2    4    4    0    0 -0.13524611488E+02  0.30080973999E+03  0.35386906865E+03  0.47313713419E+03  0.89252536172E+02 0.  0.
          2    1    3    3  502    0  0.21397450801E+02 -0.11855162257E+02  0.42253766061E+02  0.48823933877E+02  0.00000000000E+00 0. -1.
         -1    1    3    3    0  502  0.13629337473E+03 -0.26470369308E+03  0.18418066575E+03  0.35009491108E+03  0.00000000000E+00 0.  1.
         11    1    5    5    0    0 -0.12473238681E+03 -0.29173939317E+02 -0.44401563090E+03  0.46212462338E+03  0.00000000000E+00 0.  1.
        -11    1    5    5    0    0 -0.19433827236E+02  0.49230546717E+01 -0.83072421268E+01  0.21700699991E+02  0.00000000000E+00 0. -1.
          3    1    6    6  503    0  0.18841053472E+02  0.10156540394E+02  0.19978646425E+02  0.29279462455E+02  0.00000000000E+00 0. -1.
         -3    1    6    6    0  503 -0.32365664959E+02  0.29065319959E+03  0.33389042223E+03  0.44385767174E+03  0.00000000000E+00 0.  1.
<mgrwt>
<rscale>  0 0.13498278E+04</rscale>
<asrwt>0</asrwt>
<pdfrwt beam="1">  1        2 0.11414323E+00 0.13498278E+04</pdfrwt>
<pdfrwt beam="2">  1       -1 0.94453898E-01 0.13498278E+04</pdfrwt>
<totfact> 0.46037435E+01</totfact>
</mgrwt>
</event>
<event>
12    6  0.1402540E-007  0.3158607E+04  0.7818608E-02  0.8199835E-01
         -1   -1    0    0    0  501 -0.00000000000E+00  0.00000000000E+00  0.19156012468E+04  0.19156012468E+04  0.00000000000E+00 0.  1.
          2   -1    0    0  501    0  0.00000000000E+00 -0.00000000000E+00 -0.13020450521E+04  0.13020450521E+04  0.00000000000E+00 0. -1.
         24    2    1    2    0    0  0.11446664178E+04  0.86134921995E+03  0.51954343568E+02  0.14355643432E+04  0.77214266030E+02 0.  0.
        254    2    1    2    0    0 -0.11446664178E+04 -0.86134921995E+03  0.56160185112E+03  0.17820819558E+04  0.89901933870E+03 0.  0.
         23    2    4    4    0    0  0.88710008056E+02 -0.28998067401E+03  0.16170459059E+02  0.31427972695E+03  0.80944463633E+02 0.  0.
         23    2    4    4    0    0 -0.12333764258E+04 -0.57136854593E+03  0.54543139206E+03  0.14678022289E+04  0.96273342802E+02 0.  0.
          2    1    3    3  502    0  0.83598521416E+03  0.60619768642E+03  0.66873654543E+02  0.10348038457E+04  0.00000000000E+00 0. -1.
         -1    1    3    3    0  502  0.30868120362E+03  0.25515153352E+03 -0.14919310974E+02  0.40076049751E+03  0.00000000000E+00 0.  1.
         11    1    5    5    0    0  0.86519838159E+02 -0.20470571917E+03 -0.16693582077E+02  0.22286495808E+03  0.00000000000E+00 0. -1.
        -11    1    5    5    0    0  0.21901698970E+01 -0.85274954842E+02  0.32864041136E+02  0.91414768868E+02  0.00000000000E+00 0.  1.
          3    1    6    6  503    0 -0.10363723945E+04 -0.50357986122E+03  0.49081475128E+03  0.12524214693E+04  0.00000000000E+00 0. -1.
         -3    1    6    6    0  503 -0.19700403136E+03 -0.67788684718E+02  0.54616640776E+02  0.21538075958E+03  0.00000000000E+00 0.  1.
<mgrwt>
<rscale>  0 0.31586067E+04</rscale>
<asrwt>0</asrwt>
<pdfrwt beam="1">  1        2 0.20031462E+00 0.31586067E+04</pdfrwt>
<pdfrwt beam="2">  1       -1 0.29470789E+00 0.31586067E+04</pdfrwt>
<totfact> 0.56696085E-01</totfact>
</mgrwt>
</event>
<event>
12    6  0.1402540E-007  0.2214131E+04  0.7818608E-02  0.8512569E-01
          2   -1    0    0  501    0  0.00000000000E+00  0.00000000000E+00  0.11232151995E+04  0.11232151995E+04  0.00000000000E+00 0. -1.
         -1   -1    0    0    0  501 -0.00000000000E+00 -0.00000000000E+00 -0.10911482198E+04  0.10911482198E+04  0.00000000000E+00 0.  1.
         24    2    1    2    0    0 -0.35988884481E+03  0.54029129348E+03 -0.64120937303E+03  0.91616294144E+03  0.82282518078E+02 0.  0.
        254    2    1    2    0    0  0.35988884481E+03 -0.54029129348E+03  0.67327635271E+03  0.12982004779E+04  0.90032703567E+03 0.  0.
         23    2    4    4    0    0  0.21413814844E+03 -0.51819892991E+02  0.73925272763E+03  0.77633692092E+03  0.87544112014E+02 0.  0.
         23    2    4    4    0    0  0.14575069637E+03 -0.48847140049E+03 -0.65976374915E+02  0.52186355694E+03  0.90228129882E+02 0.  0.
          4    1    3    3  502    0 -0.27239549499E+03  0.35347276986E+03 -0.40600651027E+03  0.60331052626E+03  0.00000000000E+00 0. -1.
         -3    1    3    3    0  502 -0.87493349823E+02  0.18681852362E+03 -0.23520286276E+03  0.31285241518E+03  0.00000000000E+00 0.  1.
         11    1    5    5    0    0  0.20515694469E+03 -0.35424963197E+02  0.58473711658E+03  0.62069460726E+03  0.00000000000E+00 0.  1.
        -11    1    5    5    0    0  0.89812037437E+01 -0.16394929793E+02  0.15451561104E+03  0.15564231365E+03  0.00000000000E+00 0. -1.
          4    1    6    6  503    0  0.10873969546E+03 -0.25960101936E+03 -0.69828312140E+02  0.28998793733E+03  0.00000000000E+00 0. -1.
         -4    1    6    6    0  503  0.37011000916E+02 -0.22887038113E+03  0.38519372248E+01  0.23187561961E+03  0.00000000000E+00 0.  1.
<mgrwt>
<rscale>  0 0.22141312E+04</rscale>
<asrwt>0</asrwt>
<pdfrwt beam="1">  1        2 0.17280234E+00 0.22141312E+04</pdfrwt>
<pdfrwt beam="2">  1       -1 0.16786896E+00 0.22141312E+04</pdfrwt>
<totfact> 0.55990291E+00</totfact>
</mgrwt>
</event>
<event>
12    6  0.1402540E-007  0.1529454E+04  0.7818608E-02  0.8865100E-01
          2   -1    0    0  501    0  0.00000000000E+00  0.00000000000E+00  0.73092067123E+03  0.73092067123E+03  0.00000000000E+00 0. -1.
         -1   -1    0    0    0  501 -0.00000000000E+00 -0.00000000000E+00 -0.80009641972E+03  0.80009641972E+03  0.00000000000E+00 0.  1.
         24    2    1    2    0    0 -0.44674170884E+03 -0.19937313647E+03 -0.10738360176E+03  0.50464383216E+03  0.61695684176E+02 0.  0.
        254    2    1    2    0    0  0.44674170884E+03  0.19937313647E+03  0.38207853266E+02  0.10263732588E+04  0.90147347400E+03 0.  0.
         23    2    4    4    0    0 -0.45046462344E+02  0.19125226025E+03 -0.33848744862E+03  0.39975078688E+03  0.81365397568E+02 0.  0.
         23    2    4    4    0    0  0.49178817119E+03  0.81208762226E+01  0.37669530189E+03  0.62662247190E+03  0.93993711905E+02 0.  0.
          4    1    3    3  502    0 -0.21153074095E+03 -0.12654214540E+03 -0.44000645103E+02  0.25038815007E+03  0.00000000000E+00 0. -1.
         -3    1    3    3    0  502 -0.23521096790E+03 -0.72830991067E+02 -0.63382956660E+02  0.25425568209E+03  0.00000000000E+00 0.  1.
         11    1    5    5    0    0 -0.28266994103E+02  0.19359940569E+03 -0.30861067658E+03  0.36540430011E+03  0.00000000000E+00 0. -1.
        -11    1    5    5    0    0 -0.16779468241E+02 -0.23471454436E+01 -0.29876772041E+02  0.34346486775E+02  0.00000000000E+00 0.  1.
          1    1    6    6  503    0  0.40140332501E+03 -0.27502470489E+02  0.32045835408E+03  0.51436812878E+03  0.00000000000E+00 0. -1.
         -1    1    6    6    0  503  0.90384846183E+02  0.35623346712E+02  0.56236947810E+02  0.11225434312E+03  0.00000000000E+00 0.  1.
<mgrwt>
<rscale>  0 0.15294535E+04</rscale>
<asrwt>0</asrwt>
<pdfrwt beam="1">  1        2 0.11244933E+00 0.15294535E+04</pdfrwt>
<pdfrwt beam="2">  1       -1 0.12309176E+00 0.15294535E+04</pdfrwt>
<totfact> 0.24825550E+01</totfact>
</mgrwt>
</event>
<event>
12    6  0.1402540E-007  0.2725883E+04  0.7818608E-02  0.8326655E-01
         -1   -1    0    0    0  501 -0.00000000000E+00  0.00000000000E+00  0.15770253771E+04  0.15770253771E+04  0.00000000000E+00 0.  1.
          2   -1    0    0  501    0  0.00000000000E+00 -0.00000000000E+00 -0.11779196680E+04  0.11779196680E+04  0.00000000000E+00 0. -1.
         24    2    1    2    0    0  0.79599188834E+03  0.82651134292E+03  0.57602779458E+03  0.12864229200E+04  0.79698322545E+02 0.  0.
        254    2    1    2    0    0 -0.79599188834E+03 -0.82651134292E+03 -0.17692208555E+03  0.14685221251E+04  0.89918391967E+03 0.  0.
         23    2    4    4    0    0 -0.90476547271E+03 -0.78971180853E+03 -0.33724002112E+03  0.12505899155E+04  0.89437150500E+02 0.  0.
         23    2    4    4    0    0  0.10877358437E+03 -0.36799534386E+02  0.16031793556E+03  0.21793220959E+03  0.92772351089E+02 0.  0.
          4    1    3    3  502    0  0.40631689989E+03  0.44067844360E+03  0.34283599004E+03  0.69052692189E+03  0.00000000000E+00 0. -1.
         -3    1    3    3    0  502  0.38967498845E+03  0.38583289932E+03  0.23319180454E+03  0.59589599808E+03  0.00000000000E+00 0.  1.
         11    1    5    5    0    0 -0.73958723955E+03 -0.60150093389E+03 -0.28220763505E+03  0.99420008432E+03  0.00000000000E+00 0. -1.
        -11    1    5    5    0    0 -0.16517823315E+03 -0.18821087464E+03 -0.55032386069E+02  0.25638983123E+03  0.00000000000E+00 0.  1.
          2    1    6    6  503    0  0.31624524514E+02 -0.57032952924E+02  0.92861021845E+02  0.11347262951E+03  0.00000000000E+00 0. -1.
         -2    1    6    6    0  503  0.77149059855E+02  0.20233418538E+02  0.67456913719E+02  0.10445958008E+03  0.00000000000E+00 0.  1.
<mgrwt>
<rscale>  0 0.27258828E+04</rscale>
<asrwt>0</asrwt>
<pdfrwt beam="1">  1        2 0.18121841E+00 0.27258828E+04</pdfrwt>
<pdfrwt beam="2">  1       -1 0.24261929E+00 0.27258828E+04</pdfrwt>
<totfact> 0.15179950E+00</totfact>
</mgrwt>
</event>
<event>
12    6  0.1402540E-007  0.1988049E+04  0.7818608E-02  0.8612229E-01
          2   -1    0    0  501    0  0.00000000000E+00  0.00000000000E+00  0.64479183111E+03  0.64479183111E+03  0.00000000000E+00 0. -1.
         -1   -1    0    0    0  501 -0.00000000000E+00 -0.00000000000E+00 -0.15324091558E+04  0.15324091558E+04  0.00000000000E+00 0.  1.
         24    2    1    2    0    0  0.53355524213E+03 -0.25821306027E+03  0.21425885270E+03  0.63546958572E+03  0.80991095279E+02 0.  0.
        254    2    1    2    0    0 -0.53355524213E+03  0.25821306027E+03 -0.11018761774E+04  0.15417314012E+04  0.90080487468E+03 0.  0.
         23    2    4    4    0    0 -0.54346896192E+03  0.41245377738E+03 -0.11633305207E+04  0.13516780749E+04  0.90659178903E+02 0.  0.
         23    2    4    4    0    0  0.99137197845E+01 -0.15424071711E+03  0.61454343258E+02  0.19005332635E+03  0.91951889023E+02 0.  0.
          4    1    3    3  502    0  0.29803388331E+03 -0.14655421548E+03  0.16245821033E+03  0.36972287430E+03  0.00000000000E+00 0. -1.
         -3    1    3    3    0  502  0.23552135882E+03 -0.11165884479E+03  0.51800642364E+02  0.26574671142E+03  0.00000000000E+00 0.  1.
         11    1    5    5    0    0 -0.37030121164E+03  0.29773040980E+03 -0.88365115763E+03  0.10032974398E+04  0.00000000000E+00 0. -1.
        -11    1    5    5    0    0 -0.17316775027E+03  0.11472336758E+03 -0.27967936304E+03  0.34838063510E+03  0.00000000000E+00 0.  1.
          4    1    6    6  503    0 -0.16872866805E+02 -0.13454294972E+03  0.74049078708E+02  0.15449843044E+03  0.00000000000E+00 0. -1.
         -4    1    6    6    0  503  0.26786586590E+02 -0.19697767395E+02 -0.12594735449E+02  0.35554895901E+02  0.00000000000E+00 0.  1.
<mgrwt>
<rscale>  0 0.19880492E+04</rscale>
<asrwt>0</asrwt>
<pdfrwt beam="1">  1        2 0.99198743E-01 0.19880492E+04</pdfrwt>
<pdfrwt beam="2">  1       -1 0.23575526E+00 0.19880492E+04</pdfrwt>
<totfact> 0.41690153E+00</totfact>
</mgrwt>
</event>
<event>
12    6  0.1402540E-007  0.1213669E+04  0.7818608E-02  0.9100976E-01
          2   -1    0    0  501    0  0.00000000000E+00  0.00000000000E+00  0.73090669038E+03  0.73090669038E+03  0.00000000000E+00 0. -1.
         -1   -1    0    0    0  501 -0.00000000000E+00 -0.00000000000E+00 -0.50382355746E+03  0.50382355746E+03  0.00000000000E+00 0.  1.
         24    2    1    2    0    0 -0.19247026955E+03  0.16615092721E+03  0.11899243791E+03  0.29103208758E+03  0.76743341390E+02 0.  0.
        254    2    1    2    0    0  0.19247026955E+03 -0.16615092721E+03  0.10809069502E+03  0.94369816026E+03  0.90234787308E+03 0.  0.
         23    2    4    4    0    0  0.35408785744E+03 -0.39170055841E+03 -0.14760818497E+03  0.55555244153E+03  0.89681663524E+02 0.  0.
         23    2    4    4    0    0 -0.16161758789E+03  0.22554963120E+03  0.25569887999E+03  0.38814571873E+03  0.91007147487E+02 0.  0.
          2    1    3    3  502    0 -0.18263695610E+03  0.12101543560E+03  0.92854836671E+02  0.23795590785E+03  0.00000000000E+00 0. -1.
         -3    1    3    3    0  502 -0.98333134500E+01  0.45135491611E+02  0.26137601237E+02  0.53076179730E+02  0.00000000000E+00 0.  1.
         11    1    5    5    0    0  0.58805167597E+02 -0.41174689219E+02 -0.48502211808E+02  0.86636408736E+02  0.00000000000E+00 0. -1.
        -11    1    5    5    0    0  0.29528268984E+03 -0.35052586919E+03 -0.99105973163E+02  0.46891603279E+03  0.00000000000E+00 0.  1.
          2    1    6    6  503    0 -0.62227705789E+02  0.10400647253E+03  0.17144907071E+03  0.20996289564E+03  0.00000000000E+00 0. -1.
         -2    1    6    6    0  503 -0.99389882101E+02  0.12154315867E+03  0.84249809275E+02  0.17818282310E+03  0.00000000000E+00 0.  1.
<mgrwt>
<rscale>  0 0.12136688E+04</rscale>
<asrwt>0</asrwt>
<pdfrwt beam="1">  1        2 0.11244718E+00 0.12136688E+04</pdfrwt>
<pdfrwt beam="2">  1       -1 0.77511317E-01 0.12136688E+04</pdfrwt>
<totfact> 0.72852311E+01</totfact>
</mgrwt>
</event>
<event>
12    6  0.1402540E-007  0.1487692E+04  0.7818608E-02  0.8892679E-01
         -1   -1    0    0    0  501 -0.00000000000E+00  0.00000000000E+00  0.61971409018E+03  0.61971409018E+03  0.00000000000E+00 0.  1.
          2   -1    0    0  501    0  0.00000000000E+00 -0.00000000000E+00 -0.89284251910E+03  0.89284251910E+03  0.00000000000E+00 0. -1.
         24    2    1    2    0    0 -0.29099718466E+03 -0.36513527794E+03 -0.65179698087E+02  0.47783317974E+03  0.77929596100E+02 0.  0.
        254    2    1    2    0    0  0.29099718466E+03  0.36513527794E+03 -0.20794873084E+03  0.10347234295E+04  0.89967036647E+03 0.  0.
         23    2    4    4    0    0  0.14316116008E+03 -0.26346464915E+02 -0.49150737330E+03  0.52115455332E+03  0.93985724834E+02 0.  0.
         23    2    4    4    0    0  0.14783602458E+03  0.39148174285E+03  0.28355864246E+03  0.51356887621E+03  0.90741620826E+02 0.  0.
          2    1    3    3  502    0 -0.24994673814E+03 -0.31624384639E+03 -0.83008400343E+02  0.41155064915E+03  0.00000000000E+00 0. -1.
         -1    1    3    3    0  502 -0.41050446520E+02 -0.48891431544E+02  0.17828702257E+02  0.66282530595E+02  0.00000000000E+00 0.  1.
         11    1    5    5    0    0  0.75316087255E+02 -0.27907649882E+02 -0.12616332264E+03  0.14956113767E+03  0.00000000000E+00 0. -1.
        -11    1    5    5    0    0  0.67845072822E+02  0.15611849668E+01 -0.36534405066E+03  0.37159341565E+03  0.00000000000E+00 0.  1.
          3    1    6    6  503    0 -0.10028682307E+02  0.36919376840E+02  0.12808476360E+02  0.40344416240E+02  0.00000000000E+00 0. -1.
         -3    1    6    6    0  503  0.15786470689E+03  0.35456236601E+03  0.27075016610E+03  0.47322445997E+03  0.00000000000E+00 0.  1.
<mgrwt>
<rscale>  0 0.14876923E+04</rscale>
<asrwt>0</asrwt>
<pdfrwt beam="1">  1        2 0.13736039E+00 0.14876923E+04</pdfrwt>
<pdfrwt beam="2">  1       -1 0.95340630E-01 0.14876923E+04</pdfrwt>
<totfact> 0.34773946E+01</totfact>
</mgrwt>
</event>
<event>
12    6  0.1402540E-007  0.2477057E+04  0.7818608E-02  0.8411205E-01
         -1   -1    0    0    0  501 -0.00000000000E+00  0.00000000000E+00  0.79976495791E+03  0.79976495791E+03  0.00000000000E+00 0.  1.
          2   -1    0    0  501    0  0.00000000000E+00 -0.00000000000E+00 -0.19180046006E+04  0.19180046006E+04  0.00000000000E+00 0. -1.
         24    2    1    2    0    0  0.74855537214E+03  0.42833633249E+03 -0.12033143987E+04  0.14826294103E+04  0.80107848135E+02 0.  0.
        254    2    1    2    0    0 -0.74855537214E+03 -0.42833633249E+03  0.85074756032E+02  0.12351401482E+04  0.88007176559E+03 0.  0.
         23    2    4    4    0    0 -0.11907319669E+03 -0.52064054102E+03  0.20779569299E+03  0.58001417421E+03  0.89400185308E+02 0.  0.
         23    2    4    4    0    0 -0.62948217545E+03  0.92304208533E+02 -0.12272093695E+03  0.65512597395E+03  0.96756070892E+02 0.  0.
          2    1    3    3  502    0  0.20512384523E+03  0.14188020818E+03 -0.29851750406E+03  0.38899676809E+03  0.00000000000E+00 0. -1.
         -1    1    3    3    0  502  0.54343152691E+03  0.28645612431E+03 -0.90479689465E+03  0.10936326422E+04  0.00000000000E+00 0.  1.
         11    1    5    5    0    0 -0.39388734239E+02 -0.35104355871E+03  0.15143334900E+03  0.38433723692E+03  0.00000000000E+00 0. -1.
        -11    1    5    5    0    0 -0.79684462453E+02 -0.16959698232E+03  0.56362343990E+02  0.19567693729E+03  0.00000000000E+00 0.  1.
          1    1    6    6  503    0 -0.42410377300E+03  0.49275177900E+02 -0.37351622175E+02  0.42858744394E+03  0.00000000000E+00 0. -1.
         -1    1    6    6    0  503 -0.20537840246E+03  0.43029030633E+02 -0.85369314779E+02  0.22653853001E+03  0.00000000000E+00 0.  1.
<mgrwt>
<rscale>  0 0.24770570E+04</rscale>
<asrwt>0</asrwt>
<pdfrwt beam="1">  1        2 0.29507763E+00 0.24770570E+04</pdfrwt>
<pdfrwt beam="2">  1       -1 0.12304076E+00 0.24770570E+04</pdfrwt>
<totfact> 0.43920432E+00</totfact>
</mgrwt>
</event>
<event>
12    6  0.1402540E-007  0.3509699E+04  0.7818608E-02  0.8111495E-01
         -1   -1    0    0    0  501 -0.00000000000E+00  0.00000000000E+00  0.12987393839E+04  0.12987393839E+04  0.00000000000E+00 0.  1.
          2   -1    0    0  501    0  0.00000000000E+00 -0.00000000000E+00 -0.23711424756E+04  0.23711424756E+04  0.00000000000E+00 0. -1.
         24    2    1    2    0    0 -0.13771395661E+04  0.59596870705E+03 -0.11900929103E+04  0.19168439678E+04  0.79231162896E+02 0.  0.
        254    2    1    2    0    0  0.13771395661E+04 -0.59596870705E+03  0.11768981866E+03  0.17530378918E+04  0.89866505001E+03 0.  0.
         23    2    4    4    0    0  0.11772160059E+04 -0.81267800148E+03  0.36685263865E+02  0.14338064477E+04  0.90399458891E+02 0.  0.
         23    2    4    4    0    0  0.19992356024E+03  0.21670929443E+03  0.81004554797E+02  0.31923144409E+03  0.91731285625E+02 0.  0.
          4    1    3    3  502    0 -0.39475643551E+03  0.15634662223E+03 -0.29503805384E+03  0.51703419894E+03  0.00000000000E+00 0. -1.
         -3    1    3    3    0  502 -0.98238313064E+03  0.43962208481E+03 -0.89505485647E+03  0.13998097688E+04  0.00000000000E+00 0.  1.
         11    1    5    5    0    0  0.88102135615E+03 -0.65187927715E+03  0.41335160774E+02  0.10967469250E+04  0.00000000000E+00 0.  1.
        -11    1    5    5    0    0  0.29619464975E+03 -0.16079872433E+03 -0.46498969089E+01  0.33705952268E+03  0.00000000000E+00 0. -1.
          2    1    6    6  503    0  0.19986605532E+03  0.18471224935E+03  0.88851968789E+02  0.28628609377E+03  0.00000000000E+00 0.  1.
         -2    1    6    6    0  503  0.57504916782E-01  0.31997045081E+02 -0.78474139921E+01  0.32945350310E+02  0.00000000000E+00 0. -1.
<mgrwt>
<rscale>  0 0.35096986E+04</rscale>
<asrwt>0</asrwt>
<pdfrwt beam="1">  1        2 0.36479115E+00 0.35096986E+04</pdfrwt>
<pdfrwt beam="2">  1       -1 0.19980606E+00 0.35096986E+04</pdfrwt>
<totfact> 0.58182198E-01</totfact>
</mgrwt>
</event>
<event>
12    6  0.1402540E-007  0.1287223E+04  0.7818608E-02  0.9039759E-01
         -1   -1    0    0    0  501 -0.00000000000E+00  0.00000000000E+00  0.18292218809E+03  0.18292218809E+03  0.00000000000E+00 0.  1.
          2   -1    0    0  501    0  0.00000000000E+00 -0.00000000000E+00 -0.22645468384E+04  0.22645468384E+04  0.00000000000E+00 0. -1.
         24    2    1    2    0    0  0.71483714701E+02 -0.23672356021E+02 -0.11290595335E+04  0.11345018724E+04  0.81539967308E+02 0.  0.
        254    2    1    2    0    0 -0.71483714701E+02  0.23672356021E+02 -0.95256511674E+03  0.13129671541E+04  0.90046218363E+03 0.  0.
         23    2    4    4    0    0  0.14565461968E+03 -0.33251746707E+03 -0.75444382084E+03  0.84225046233E+03  0.91745454107E+02 0.  0.
         23    2    4    4    0    0 -0.21713833438E+03  0.35618982309E+03 -0.19812129589E+03  0.47071669175E+03  0.91114815882E+02 0.  0.
          2    1    3    3  502    0  0.55279002295E+02 -0.53324572967E+02 -0.73855878761E+03  0.74254182436E+03  0.00000000000E+00 0. -1.
         -1    1    3    3    0  502  0.16204712406E+02  0.29652216946E+02 -0.39050074592E+03  0.39196004802E+03  0.00000000000E+00 0.  1.
         11    1    5    5    0    0  0.25507024724E+02 -0.59210232072E+01 -0.45322970125E+02  0.52343466135E+02  0.00000000000E+00 0.  1.
        -11    1    5    5    0    0  0.12014759496E+03 -0.32659644386E+03 -0.70912085072E+03  0.78990699619E+03  0.00000000000E+00 0. -1.
          1    1    6    6  503    0 -0.34751743543E+02  0.55749219303E+02  0.30204580077E+01  0.65763077017E+02  0.00000000000E+00 0. -1.
         -1    1    6    6    0  503 -0.18238659084E+03  0.30044060378E+03 -0.20114175390E+03  0.40495361473E+03  0.00000000000E+00 0.  1.
<mgrwt>
<rscale>  0 0.12872232E+04</rscale>
<asrwt>0</asrwt>
<pdfrwt beam="1">  1        2 0.34839180E+00 0.12872232E+04</pdfrwt>
<pdfrwt beam="2">  1       -1 0.28141877E-01 0.12872232E+04</pdfrwt>
<totfact> 0.60717111E+01</totfact>
</mgrwt>
</event>
<event>
12    6  0.1402540E-007  0.2875734E+04  0.7818608E-02  0.8280134E-01
          2   -1    0    0  501    0  0.00000000000E+00  0.00000000000E+00  0.84439800551E+03  0.84439800551E+03  0.00000000000E+00 0. -1.
         -1   -1    0    0    0  501 -0.00000000000E+00 -0.00000000000E+00 -0.24484440432E+04  0.24484440432E+04  0.00000000000E+00 0.  1.
         24    2    1    2    0    0  0.75774645026E+03 -0.84083868421E+03 -0.51044111239E+00  0.11347387272E+04  0.80264205082E+02 0.  0.
        254    2    1    2    0    0 -0.75774645026E+03  0.84083868421E+03 -0.16035355966E+04  0.21581033216E+04  0.89715893868E+03 0.  0.
         23    2    4    4    0    0 -0.57816713489E+03  0.79365237820E+03 -0.64637043945E+03  0.11791466749E+04  0.91819402836E+02 0.  0.
         23    2    4    4    0    0 -0.17957931537E+03  0.47186306015E+02 -0.95716515713E+03  0.97895664662E+03  0.87839057091E+02 0.  0.
          4    1    3    3  502    0  0.30279773890E+03 -0.37815813283E+03  0.27714131659E+02  0.48524026750E+03  0.00000000000E+00 0. -1.
         -3    1    3    3    0  502  0.45494871135E+03 -0.46268055139E+03 -0.28224572772E+02  0.64949845966E+03  0.00000000000E+00 0.  1.
         11    1    5    5    0    0 -0.57810746132E+03  0.79597512942E+03 -0.64566223796E+03  0.11767176250E+04  0.00000000000E+00 0.  1.
        -11    1    5    5    0    0 -0.59673566200E-01 -0.23227512232E+01 -0.70820149262E+00  0.24290499240E+01  0.00000000000E+00 0. -1.
          2    1    6    6  503    0 -0.13044979253E+02  0.90812615744E+01 -0.16524563722E+02  0.22928192290E+02  0.00000000000E+00 0. -1.
         -2    1    6    6    0  503 -0.16653433612E+03  0.38105044441E+02 -0.94064059341E+03  0.95602845433E+03  0.00000000000E+00 0.  1.
<mgrwt>
<rscale>  0 0.28757338E+04</rscale>
<asrwt>0</asrwt>
<pdfrwt beam="1">  1        2 0.12990739E+00 0.28757338E+04</pdfrwt>
<pdfrwt beam="2">  1       -1 0.37668370E+00 0.28757338E+04</pdfrwt>
<totfact> 0.32516417E-01</totfact>
</mgrwt>
</event>
<event>
12    6  0.1402540E-007  0.2220063E+04  0.7818608E-02  0.8510124E-01
         -1   -1    0    0    0  501 -0.00000000000E+00  0.00000000000E+00  0.28473979707E+03  0.28473979707E+03  0.00000000000E+00 0.  1.
          2   -1    0    0  501    0  0.00000000000E+00 -0.00000000000E+00 -0.43273542314E+04  0.43273542314E+04  0.00000000000E+00 0. -1.
         24    2    1    2    0    0  0.63036228779E+03  0.64506601764E+03 -0.21250545372E+04  0.23099026998E+04  0.79541908739E+02 0.  0.
        254    2    1    2    0    0 -0.63036228779E+03 -0.64506601764E+03 -0.19175598971E+04  0.23021913287E+04  0.89976784451E+03 0.  0.
         23    2    4    4    0    0  0.98972074327E+02 -0.19674601530E+03 -0.10622429566E+04  0.10886990735E+04  0.91657556391E+02 0.  0.
         23    2    4    4    0    0 -0.72933436212E+03 -0.44832000234E+03 -0.85531694050E+03  0.12134922552E+04  0.89871845308E+02 0.  0.
          4    1    3    3  502    0  0.17998983226E+03  0.23672765021E+03 -0.68086414162E+03  0.74297530204E+03  0.00000000000E+00 0. -1.
         -3    1    3    3    0  502  0.45037245553E+03  0.40833836743E+03 -0.14441903956E+04  0.15669273977E+04  0.00000000000E+00 0.  1.
         11    1    5    5    0    0  0.10601077458E+03 -0.14773554856E+03 -0.70639941224E+03  0.72942731389E+03  0.00000000000E+00 0. -1.
        -11    1    5    5    0    0 -0.70387002566E+01 -0.49010466740E+02 -0.35584354440E+03  0.35927175960E+03  0.00000000000E+00 0.  1.
          3    1    6    6  503    0 -0.44632633818E+03 -0.23971623882E+03 -0.55083656133E+03  0.74839293998E+03  0.00000000000E+00 0. -1.
         -3    1    6    6    0  503 -0.28300802394E+03 -0.20860376352E+03 -0.30448037917E+03  0.46509931527E+03  0.00000000000E+00 0.  1.
<mgrwt>
<rscale>  0 0.22200630E+04</rscale>
<asrwt>0</asrwt>
<pdfrwt beam="1">  1        2 0.66574678E+00 0.22200630E+04</pdfrwt>
<pdfrwt beam="2">  1       -1 0.43806124E-01 0.22200630E+04</pdfrwt>
<totfact> 0.96710821E-01</totfact>
</mgrwt>
</event>
<event>
12    6  0.1402540E-007  0.3424126E+04  0.7818608E-02  0.8132010E-01
         -1   -1    0    0    0  501 -0.00000000000E+00  0.00000000000E+00  0.19309190194E+04  0.19309190194E+04  0.00000000000E+00 0.  1.
          2   -1    0    0  501    0  0.00000000000E+00 -0.00000000000E+00 -0.15180127170E+04  0.15180127170E+04  0.00000000000E+00 0. -1.
         24    2    1    2    0    0 -0.12383245210E+04  0.95469908440E+03 -0.10355503675E+03  0.15690170491E+04  0.78694940234E+02 0.  0.
        254    2    1    2    0    0  0.12383245210E+04 -0.95469908440E+03  0.51646133922E+03  0.18799146873E+04  0.90688971531E+03 0.  0.
         23    2    4    4    0    0  0.10225095450E+04 -0.94375439964E+03  0.72058547330E+03  0.15696323260E+04  0.91126713570E+02 0.  0.
         23    2    4    4    0    0  0.21581497593E+03 -0.10944684754E+02 -0.20412413408E+03  0.31028236134E+03  0.88952749711E+02 0.  0.
          4    1    3    3  502    0 -0.92322815006E+03  0.66757424861E+03 -0.74318981387E+02  0.11417219037E+04  0.00000000000E+00 0. -1.
         -3    1    3    3    0  502 -0.31509637092E+03  0.28712483579E+03 -0.29236055358E+02  0.42729514533E+03  0.00000000000E+00 0.  1.
         11    1    5    5    0    0  0.63473989364E+03 -0.64357016207E+03  0.45623183254E+03  0.10125338370E+04  0.00000000000E+00 0.  1.
        -11    1    5    5    0    0  0.38776965140E+03 -0.30018423758E+03  0.26435364075E+03  0.55709848898E+03  0.00000000000E+00 0. -1.
          3    1    6    6  503    0  0.19874652220E+03 -0.10906155378E+02 -0.21259160363E+03  0.29122897219E+03  0.00000000000E+00 0. -1.
         -3    1    6    6    0  503  0.17068453733E+02 -0.38529376138E-01  0.84674695465E+01  0.19053389144E+02  0.00000000000E+00 0.  1.
<mgrwt>
<rscale>  0 0.34241259E+04</rscale>
<asrwt>0</asrwt>
<pdfrwt beam="1">  1        2 0.23354042E+00 0.34241259E+04</pdfrwt>
<pdfrwt beam="2">  1       -1 0.29706447E+00 0.34241259E+04</pdfrwt>
<totfact> 0.40270058E-01</totfact>
</mgrwt>
</event>
<event>
12    6  0.1402540E-007  0.1629894E+04  0.7818608E-02  0.8802391E-01
          2   -1    0    0  501    0  0.00000000000E+00  0.00000000000E+00  0.69544417859E+03  0.69544417859E+03  0.00000000000E+00 0. -1.
         -1   -1    0    0    0  501 -0.00000000000E+00 -0.00000000000E+00 -0.95498479790E+03  0.95498479790E+03  0.00000000000E+00 0.  1.
         24    2    1    2    0    0 -0.32405023607E+03 -0.24979971726E+03  0.30102255326E+03  0.51407195071E+03  0.79037577731E+02 0.  0.
        254    2    1    2    0    0  0.32405023607E+03  0.24979971726E+03 -0.56056317257E+03  0.11363570258E+04  0.89981540627E+03 0.  0.
         23    2    4    4    0    0 -0.73371173222E+02 -0.28962026788E+03 -0.15263432420E+03  0.34676280093E+03  0.87658282873E+02 0.  0.
         23    2    4    4    0    0  0.39742140929E+03  0.53941998514E+03 -0.40792884837E+03  0.78959422485E+03  0.90196439262E+02 0.  0.
          2    1    3    3  502    0 -0.22560082489E+03 -0.12723523660E+03  0.19950188905E+03  0.32693354272E+03  0.00000000000E+00 0. -1.
         -1    1    3    3    0  502 -0.98449411181E+02 -0.12256448066E+03  0.10152066422E+03  0.18713840799E+03  0.00000000000E+00 0.  1.
         11    1    5    5    0    0  0.15319593101E+00 -0.41747097565E+02  0.78187589433E+01  0.42473245879E+02  0.00000000000E+00 0. -1.
        -11    1    5    5    0    0 -0.73524369153E+02 -0.24787317032E+03 -0.16045308314E+03  0.30428955505E+03  0.00000000000E+00 0.  1.
          1    1    6    6  503    0  0.37934641675E+02  0.10588765424E+03 -0.58057738563E+02  0.12657777596E+03  0.00000000000E+00 0. -1.
         -1    1    6    6    0  503  0.35948676761E+03  0.43353233090E+03 -0.34987110981E+03  0.66301644889E+03  0.00000000000E+00 0.  1.
<mgrwt>
<rscale>  0 0.16298940E+04</rscale>
<asrwt>0</asrwt>
<pdfrwt beam="1">  1        2 0.10699141E+00 0.16298940E+04</pdfrwt>
<pdfrwt beam="2">  1       -1 0.14692074E+00 0.16298940E+04</pdfrwt>
<totfact> 0.16654406E+01</totfact>
</mgrwt>
</event>
<event>
12    6  0.1402540E-007  0.2331475E+04  0.7818608E-02  0.8465613E-01
          2   -1    0    0  501    0  0.00000000000E+00  0.00000000000E+00  0.70529041676E+03  0.70529041676E+03  0.00000000000E+00 0. -1.
         -1   -1    0    0    0  501 -0.00000000000E+00 -0.00000000000E+00 -0.19267859315E+04  0.19267859315E+04  0.00000000000E+00 0.  1.
         24    2    1    2    0    0 -0.93516862372E+03 -0.22088722191E+03 -0.24768416085E+03  0.99569600626E+03  0.82046168394E+02 0.  0.
        254    2    1    2    0    0  0.93516862372E+03  0.22088722191E+03 -0.97381135387E+03  0.16363803420E+04  0.89783102593E+03 0.  0.
         23    2    4    4    0    0  0.10437061796E+04  0.32030483169E+03 -0.66299135374E+03  0.12805725733E+04  0.91601342208E+02 0.  0.
         23    2    4    4    0    0 -0.10853755587E+03 -0.99417609783E+02 -0.31082000013E+03  0.35580776866E+03  0.91246005882E+02 0.  0.
          2    1    3    3  502    0 -0.30071914430E+03 -0.10841905249E+03 -0.68830095761E+02  0.32699277786E+03  0.00000000000E+00 0. -1.
         -1    1    3    3    0  502 -0.63444947941E+03 -0.11246816942E+03 -0.17885406509E+03  0.66870322839E+03  0.00000000000E+00 0.  1.
         11    1    5    5    0    0  0.93498199575E+03  0.28129940050E+03 -0.62359466264E+03  0.11585296666E+04  0.00000000000E+00 0. -1.
        -11    1    5    5    0    0  0.10872418384E+03  0.39005431189E+02 -0.39396691102E+02  0.12204290673E+03  0.00000000000E+00 0.  1.
          1    1    6    6  503    0 -0.12073409301E+03 -0.72823275508E+02 -0.27885736162E+03  0.31247620517E+03  0.00000000000E+00 0. -1.
         -1    1    6    6    0  503  0.12196537138E+02 -0.26594334275E+02 -0.31962638510E+02  0.43331563487E+02  0.00000000000E+00 0.  1.
<mgrwt>
<rscale>  0 0.23314748E+04</rscale>
<asrwt>0</asrwt>
<pdfrwt beam="1">  1        2 0.10850622E+00 0.23314748E+04</pdfrwt>
<pdfrwt beam="2">  1       -1 0.29642859E+00 0.23314748E+04</pdfrwt>
<totfact> 0.14589287E+00</totfact>
</mgrwt>
</event>
<event>
12    6  0.1402540E-007  0.3084448E+04  0.7818608E-02  0.8220019E-01
          2   -1    0    0  501    0  0.00000000000E+00  0.00000000000E+00  0.15083087709E+04  0.15083087709E+04  0.00000000000E+00 0. -1.
         -1   -1    0    0    0  501 -0.00000000000E+00 -0.00000000000E+00 -0.15769019508E+04  0.15769019508E+04  0.00000000000E+00 0.  1.
         24    2    1    2    0    0  0.44708745205E+03 -0.69285188347E+03  0.11121614394E+04  0.13871841373E+04  0.86289287832E+02 0.  0.
        254    2    1    2    0    0 -0.44708745205E+03  0.69285188347E+03 -0.11807546193E+04  0.16980265845E+04  0.89954537867E+03 0.  0.
         23    2    4    4    0    0 -0.15438733728E+03  0.83814128868E+03 -0.98847480702E+03  0.13079082227E+04  0.85001207776E+02 0.  0.
         23    2    4    4    0    0 -0.29270011477E+03 -0.14528940521E+03 -0.19227981232E+03  0.39011836172E+03  0.91860989967E+02 0.  0.
          4    1    3    3  502    0  0.37303179524E+03 -0.60456266137E+03  0.99766363040E+03  0.12247372989E+04  0.00000000000E+00 0. -1.
         -3    1    3    3    0  502  0.74055656807E+02 -0.88289222099E+02  0.11449780898E+03  0.16244683840E+03  0.00000000000E+00 0.  1.
         11    1    5    5    0    0 -0.11827068456E+03  0.54622470778E+03 -0.70212652729E+03  0.89740238831E+03  0.00000000000E+00 0. -1.
        -11    1    5    5    0    0 -0.36116652727E+02  0.29191658089E+03 -0.28634827972E+03  0.41050583443E+03  0.00000000000E+00 0.  1.
          4    1    6    6  503    0 -0.11489192903E+03 -0.19693510622E+02 -0.35524650210E+02  0.12186053705E+03  0.00000000000E+00 0. -1.
         -4    1    6    6    0  503 -0.17780818574E+03 -0.12559589459E+03 -0.15675516211E+03  0.26825782467E+03  0.00000000000E+00 0.  1.
<mgrwt>
<rscale>  0 0.30844481E+04</rscale>
<asrwt>0</asrwt>
<pdfrwt beam="1">  1        2 0.23204750E+00 0.30844481E+04</pdfrwt>
<pdfrwt beam="2">  1       -1 0.24260030E+00 0.30844481E+04</pdfrwt>
<totfact> 0.94740109E-01</totfact>
</mgrwt>
</event>
<event>
12    6  0.1402540E-007  0.2033397E+04  0.7818608E-02  0.8591164E-01
          2   -1    0    0  501    0  0.00000000000E+00  0.00000000000E+00  0.12763835782E+04  0.12763835782E+04  0.00000000000E+00 0. -1.
         -1   -1    0    0    0  501 -0.00000000000E+00 -0.00000000000E+00 -0.80984733347E+03  0.80984733347E+03  0.00000000000E+00 0.  1.
         24    2    1    2    0    0 -0.74024258215E+03  0.32814382986E+03  0.27962229656E+03  0.86031171283E+03  0.79436521836E+02 0.  0.
        254    2    1    2    0    0  0.74024258215E+03 -0.32814382986E+03  0.18691394818E+03  0.12259191988E+04  0.90127887170E+03 0.  0.
         23    2    4    4    0    0  0.90937736997E+03 -0.30272371634E+03  0.87711576585E+01  0.96288231003E+03  0.91959558034E+02 0.  0.
         23    2    4    4    0    0 -0.16913478782E+03 -0.25420113522E+02  0.17814279052E+03  0.26303688882E+03  0.90558226809E+02 0.  0.
          4    1    3    3  502    0 -0.23944938795E+03  0.72199031995E+02  0.65593320840E+02  0.25855597721E+03  0.00000000000E+00 0. -1.
         -1    1    3    3    0  502 -0.50079319420E+03  0.25594479787E+03  0.21402897572E+03  0.60175573563E+03  0.00000000000E+00 0.  1.
         11    1    5    5    0    0  0.48410037892E+03 -0.20913576240E+03  0.11062184025E+00  0.52734330016E+03  0.00000000000E+00 0. -1.
        -11    1    5    5    0    0  0.42527699105E+03 -0.93587953942E+02  0.86605358183E+01  0.43553900987E+03  0.00000000000E+00 0.  1.
          1    1    6    6  503    0 -0.10004568938E+03  0.28951275858E+02  0.11255844296E+03  0.15335162020E+03  0.00000000000E+00 0. -1.
         -1    1    6    6    0  503 -0.69089098444E+02 -0.54371389380E+02  0.65584347558E+02  0.10968526862E+03  0.00000000000E+00 0.  1.
<mgrwt>
<rscale>  0 0.20333970E+04</rscale>
<asrwt>0</asrwt>
<pdfrwt beam="1">  1        2 0.19636670E+00 0.20333970E+04</pdfrwt>
<pdfrwt beam="2">  1       -1 0.12459190E+00 0.20333970E+04</pdfrwt>
<totfact> 0.10170773E+01</totfact>
</mgrwt>
</event>
<event>
12    6  0.1402540E-007  0.1357253E+04  0.7818608E-02  0.8985356E-01
          2   -1    0    0  501    0  0.00000000000E+00  0.00000000000E+00  0.12932094881E+04  0.12932094881E+04  0.00000000000E+00 0. -1.
         -1   -1    0    0    0  501 -0.00000000000E+00 -0.00000000000E+00 -0.35611694796E+03  0.35611694796E+03  0.00000000000E+00 0.  1.
         24    2    1    2    0    0 -0.26460492293E+03  0.27521550284E+01 -0.59476845220E+02  0.28296061198E+03  0.80658993411E+02 0.  0.
        254    2    1    2    0    0  0.26460492293E+03 -0.27521550284E+01  0.99656938538E+03  0.13663658241E+04  0.89653872521E+03 0.  0.
         23    2    4    4    0    0  0.27167095532E+03 -0.24332414613E+03  0.10384461870E+04  0.11043378293E+04  0.90442300684E+02 0.  0.
         23    2    4    4    0    0 -0.70660323869E+01  0.24057199110E+03 -0.41876801633E+02  0.26202799485E+03  0.94763874193E+02 0.  0.
          2    1    3    3  502    0 -0.10633863427E+03  0.37190966551E+02 -0.77053968162E+01  0.11291787401E+03  0.00000000000E+00 0. -1.
         -1    1    3    3    0  502 -0.15826628866E+03 -0.34438811523E+02 -0.51771448404E+02  0.17004273797E+03  0.00000000000E+00 0.  1.
         11    1    5    5    0    0  0.14844488210E+03 -0.78496284065E+02  0.52426735051E+03  0.55050322837E+03  0.00000000000E+00 0.  1.
        -11    1    5    5    0    0  0.12322607322E+03 -0.16482786206E+03  0.51417883651E+03  0.55383460089E+03  0.00000000000E+00 0. -1.
          1    1    6    6  503    0  0.30139724075E+02  0.19702593935E+03 -0.18532891434E+02  0.20017765063E+03  0.00000000000E+00 0. -1.
         -1    1    6    6    0  503 -0.37205756462E+02  0.43546051747E+02 -0.23343910199E+02  0.61850344219E+02  0.00000000000E+00 0.  1.
<mgrwt>
<rscale>  0 0.13572528E+04</rscale>
<asrwt>0</asrwt>
<pdfrwt beam="1">  1        2 0.19895530E+00 0.13572528E+04</pdfrwt>
<pdfrwt beam="2">  1       -1 0.54787223E-01 0.13572528E+04</pdfrwt>
<totfact> 0.62492312E+01</totfact>
</mgrwt>
</event>
<event>
12    6  0.1402540E-007  0.2755773E+04  0.7818608E-02  0.8317132E-01
         -1   -1    0    0    0  501 -0.00000000000E+00  0.00000000000E+00  0.21466154742E+04  0.21466154742E+04  0.00000000000E+00 0.  1.
          2   -1    0    0  501    0  0.00000000000E+00 -0.00000000000E+00 -0.88444898754E+03  0.88444898754E+03  0.00000000000E+00 0. -1.
         24    2    1    2    0    0 -0.61690694848E+03 -0.10631550105E+04  0.59074951530E+03  0.13661474072E+04  0.80628710815E+02 0.  0.
        254    2    1    2    0    0  0.61690694848E+03  0.10631550105E+04  0.67141697138E+03  0.16649170545E+04  0.90015292564E+03 0.  0.
         23    2    4    4    0    0  0.94284721041E+02 -0.14996398575E+03  0.79135745693E+02  0.21441974959E+03  0.91293795656E+02 0.  0.
         23    2    4    4    0    0  0.52262222744E+03  0.12131189963E+04  0.59228122569E+03  0.14504973049E+04  0.91398520819E+02 0.  0.
          4    1    3    3  502    0 -0.18500562042E+03 -0.39117005222E+03  0.19344771175E+03  0.47398639909E+03  0.00000000000E+00 0. -1.
         -3    1    3    3    0  502 -0.43190132806E+03 -0.67198495829E+03  0.39730180355E+03  0.89216100814E+03  0.00000000000E+00 0.  1.
         11    1    5    5    0    0  0.53049283193E+02 -0.14808828031E+03  0.69826671404E+02  0.17210499485E+03  0.00000000000E+00 0.  1.
        -11    1    5    5    0    0  0.41235437848E+02 -0.18757054471E+01  0.93090742890E+01  0.42314754750E+02  0.00000000000E+00 0. -1.
          1    1    6    6  503    0  0.40767663610E+02  0.94318641426E+02  0.74240276657E+02  0.12676603328E+03  0.00000000000E+00 0. -1.
         -1    1    6    6    0  503  0.48185456383E+03  0.11188003548E+04  0.51804094903E+03  0.13237312717E+04  0.00000000000E+00 0.  1.
<mgrwt>
<rscale>  0 0.27557735E+04</rscale>
<asrwt>0</asrwt>
<pdfrwt beam="1">  1        2 0.13606908E+00 0.27557735E+04</pdfrwt>
<pdfrwt beam="2">  1       -1 0.33024853E+00 0.27557735E+04</pdfrwt>
<totfact> 0.62734332E-01</totfact>
</mgrwt>
</event>
<event>
12    6  0.1402540E-007  0.1336123E+04  0.7818608E-02  0.9001400E-01
          2   -1    0    0  501    0  0.00000000000E+00  0.00000000000E+00  0.12838153330E+04  0.12838153330E+04  0.00000000000E+00 0. -1.
         -1   -1    0    0    0  501 -0.00000000000E+00 -0.00000000000E+00 -0.34764060641E+03  0.34764060641E+03  0.00000000000E+00 0.  1.
         24    2    1    2    0    0 -0.14429200381E+03 -0.32558092252E+03  0.30862995606E+03  0.47808377258E+03  0.80551377101E+02 0.  0.
        254    2    1    2    0    0  0.14429200381E+03  0.32558092252E+03  0.62754477050E+03  0.11533721668E+04  0.89979541935E+03 0.  0.
         23    2    4    4    0    0 -0.13969371770E+03  0.15066740745E+03  0.75203067039E+03  0.78538830678E+03  0.95234766674E+02 0.  0.
         23    2    4    4    0    0  0.28398572150E+03  0.17491351507E+03 -0.12448589990E+03  0.36798386002E+03  0.93127623109E+02 0.  0.
          2    1    3    3  502    0 -0.23724694489E+02 -0.13884308433E+03  0.14435605752E+03  0.20169019445E+03  0.00000000000E+00 0. -1.
         -1    1    3    3    0  502 -0.12056730932E+03 -0.18673783819E+03  0.16427389854E+03  0.27639357813E+03  0.00000000000E+00 0.  1.
         11    1    5    5    0    0 -0.41637881624E+02 -0.74995409417E+00  0.89101723901E+02  0.98353407767E+02  0.00000000000E+00 0.  1.
        -11    1    5    5    0    0 -0.98055836073E+02  0.15141736154E+03  0.66292894649E+03  0.68703489901E+03  0.00000000000E+00 0. -1.
          2    1    6    6  503    0  0.16246343342E+03  0.14052379483E+03 -0.10858974572E+03  0.24069282703E+03  0.00000000000E+00 0. -1.
         -2    1    6    6    0  503  0.12152228808E+03  0.34389720250E+02 -0.15896154179E+02  0.12729103298E+03  0.00000000000E+00 0.  1.
<mgrwt>
<rscale>  0 0.13361233E+04</rscale>
<asrwt>0</asrwt>
<pdfrwt beam="1">  1        2 0.19751005E+00 0.13361233E+04</pdfrwt>
<pdfrwt beam="2">  1       -1 0.53483171E-01 0.13361233E+04</pdfrwt>
<totfact> 0.66409136E+01</totfact>
</mgrwt>
</event>
<event>
12    6  0.1402540E-007  0.4013261E+04  0.7818608E-02  0.8001877E-01
          2   -1    0    0  501    0  0.00000000000E+00  0.00000000000E+00  0.28041501154E+04  0.28041501154E+04  0.00000000000E+00 0. -1.
         -1   -1    0    0    0  501 -0.00000000000E+00 -0.00000000000E+00 -0.14359306535E+04  0.14359306535E+04  0.00000000000E+00 0.  1.
         24    2    1    2    0    0  0.66094290351E+03 -0.15183348177E+04  0.16443405997E+04  0.23354597259E+04  0.91268740925E+02 0.  0.
        254    2    1    2    0    0 -0.66094290351E+03  0.15183348177E+04 -0.27612113787E+03  0.19046210430E+04  0.89952892911E+03 0.  0.
         23    2    4    4    0    0 -0.15897023003E+03  0.21037715441E+03  0.27923365494E+03  0.39441203298E+03  0.89773807855E+02 0.  0.
         23    2    4    4    0    0 -0.50197267348E+03  0.13079576633E+04 -0.55535479280E+03  0.15102090100E+04  0.97890214883E+02 0.  0.
          4    1    3    3  502    0  0.79792456245E+02 -0.25414083817E+03  0.29000197603E+03  0.39377093316E+03  0.00000000000E+00 0. -1.
         -3    1    3    3    0  502  0.58115044727E+03 -0.12641939795E+04  0.13543386237E+04  0.19416887927E+04  0.00000000000E+00 0.  1.
         11    1    5    5    0    0 -0.11940984898E+03  0.84817181465E+02  0.13601105232E+03  0.19987914513E+03  0.00000000000E+00 0. -1.
        -11    1    5    5    0    0 -0.39560381052E+02  0.12555997295E+03  0.14322260262E+03  0.19453288785E+03  0.00000000000E+00 0.  1.
          1    1    6    6  503    0 -0.28523103751E+03  0.72022906455E+03 -0.25533217335E+03  0.81564769903E+03  0.00000000000E+00 0. -1.
         -1    1    6    6    0  503 -0.21674163598E+03  0.58772859873E+03 -0.30002261946E+03  0.69456131099E+03  0.00000000000E+00 0.  1.
<mgrwt>
<rscale>  0 0.40132606E+04</rscale>
<asrwt>0</asrwt>
<pdfrwt beam="1">  1        2 0.43140771E+00 0.40132606E+04</pdfrwt>
<pdfrwt beam="2">  1       -1 0.22091241E+00 0.40132606E+04</pdfrwt>
<totfact> 0.22327345E-01</totfact>
</mgrwt>
</event>
<event>
12    6  0.1402540E-007  0.1367648E+04  0.7818608E-02  0.8977575E-01
          2   -1    0    0  501    0  0.00000000000E+00  0.00000000000E+00  0.11746265357E+04  0.11746265357E+04  0.00000000000E+00 0. -1.
         -1   -1    0    0    0  501 -0.00000000000E+00 -0.00000000000E+00 -0.39809718155E+03  0.39809718155E+03  0.00000000000E+00 0.  1.
         24    2    1    2    0    0 -0.57737325176E+02  0.10369045527E+03  0.63963486640E+03  0.65502963195E+03  0.76457486131E+02 0.  0.
        254    2    1    2    0    0  0.57737325176E+02 -0.10369045527E+03  0.13689448779E+03  0.91769408534E+03  0.89963160474E+03 0.  0.
         23    2    4    4    0    0 -0.85806679932E+02 -0.37310885741E+03 -0.21108323307E+03  0.44601402288E+03  0.88314050531E+02 0.  0.
         23    2    4    4    0    0  0.14354400511E+03  0.26941840214E+03  0.34797772086E+03  0.47168006246E+03  0.90567269434E+02 0.  0.
          2    1    3    3  502    0 -0.37149410541E+02  0.11156987732E+03  0.56943212359E+03  0.58144721136E+03  0.00000000000E+00 0. -1.
         -1    1    3    3    0  502 -0.20587914635E+02 -0.78794220536E+01  0.70202742813E+02  0.73582420587E+02  0.00000000000E+00 0.  1.
         11    1    5    5    0    0 -0.73112890116E+01 -0.17413806986E+02 -0.38629861016E+02  0.42999555613E+02  0.00000000000E+00 0. -1.
        -11    1    5    5    0    0 -0.78495390921E+02 -0.35569505042E+03 -0.17245337205E+03  0.40301446726E+03  0.00000000000E+00 0.  1.
          2    1    6    6  503    0  0.59099971358E+02  0.10451847762E+03  0.20533608514E+03  0.23786514381E+03  0.00000000000E+00 0. -1.
         -2    1    6    6    0  503  0.84444033751E+02  0.16489992452E+03  0.14264163572E+03  0.23381491865E+03  0.00000000000E+00 0.  1.
<mgrwt>
<rscale>  0 0.13676484E+04</rscale>
<asrwt>0</asrwt>
<pdfrwt beam="1">  1        2 0.18071177E+00 0.13676484E+04</pdfrwt>
<pdfrwt beam="2">  1       -1 0.61245721E-01 0.13676484E+04</pdfrwt>
<totfact> 0.59003279E+01</totfact>
</mgrwt>
</event>
<event>
12    6  0.1402540E-007  0.2987488E+04  0.7818608E-02  0.8247313E-01
          2   -1    0    0  501    0  0.00000000000E+00  0.00000000000E+00  0.19036623108E+04  0.19036623108E+04  0.00000000000E+00 0. -1.
         -1   -1    0    0    0  501 -0.00000000000E+00 -0.00000000000E+00 -0.11720939973E+04  0.11720939973E+04  0.00000000000E+00 0.  1.
         24    2    1    2    0    0  0.74855905090E+03  0.54235856926E+03  0.13535541733E+04  0.16410096832E+04  0.79438088686E+02 0.  0.
        254    2    1    2    0    0 -0.74855905090E+03 -0.54235856926E+03 -0.62198585972E+03  0.14347466249E+04  0.90395685606E+03 0.  0.
         23    2    4    4    0    0 -0.21185943752E+03  0.10236547369E+03  0.14792422332E+03  0.29247476497E+03  0.91086776371E+02 0.  0.
         23    2    4    4    0    0 -0.53669961338E+03 -0.64472404295E+03 -0.76991008304E+03  0.11422718599E+04  0.91147679306E+02 0.  0.
          2    1    3    3  502    0  0.49700102819E+03  0.33549632041E+03  0.93319901595E+03  0.11092466842E+04  0.00000000000E+00 0. -1.
         -1    1    3    3    0  502  0.25155802271E+03  0.20686224885E+03  0.42035515736E+03  0.53176299900E+03  0.00000000000E+00 0.  1.
         11    1    5    5    0    0 -0.10207963421E+03  0.31326184860E+02  0.11642187403E+03  0.15797352415E+03  0.00000000000E+00 0.  1.
        -11    1    5    5    0    0 -0.10977980332E+03  0.71039288827E+02  0.31502349290E+02  0.13450124083E+03  0.00000000000E+00 0. -1.
          3    1    6    6  503    0 -0.47592841101E+03 -0.59607240197E+03 -0.66719444981E+03  0.10133896559E+04  0.00000000000E+00 0. -1.
         -3    1    6    6    0  503 -0.60771202365E+02 -0.48651640979E+02 -0.10271563323E+03  0.12888220404E+03  0.00000000000E+00 0.  1.
<mgrwt>
<rscale>  0 0.29874880E+04</rscale>
<asrwt>0</asrwt>
<pdfrwt beam="1">  1        2 0.29287112E+00 0.29874880E+04</pdfrwt>
<pdfrwt beam="2">  1       -1 0.18032215E+00 0.29874880E+04</pdfrwt>
<totfact> 0.15253490E+00</totfact>
</mgrwt>
</event>
<event>
12    6  0.1402540E-007  0.1746397E+04  0.7818608E-02  0.8735336E-01
         -1   -1    0    0    0  501 -0.00000000000E+00  0.00000000000E+00  0.55023526192E+03  0.55023526192E+03  0.00000000000E+00 0.  1.
          2   -1    0    0  501    0  0.00000000000E+00 -0.00000000000E+00 -0.13857269068E+04  0.13857269068E+04  0.00000000000E+00 0. -1.
         24    2    1    2    0    0 -0.11232085110E+03  0.55896702229E+03 -0.62516053870E+03  0.85029343566E+03  0.84339326447E+02 0.  0.
        254    2    1    2    0    0  0.11232085110E+03 -0.55896702229E+03 -0.21033110622E+03  0.10856687331E+04  0.89965399915E+03 0.  0.
         23    2    4    4    0    0  0.25514304489E+03 -0.11855770824E+03 -0.46373561995E+03  0.55000339642E+03  0.91099436473E+02 0.  0.
         23    2    4    4    0    0 -0.14282219379E+03 -0.44040931405E+03  0.25340451373E+03  0.53566533668E+03  0.91460168382E+02 0.  0.
          4    1    3    3  502    0 -0.11717246677E+03  0.39262980152E+03 -0.45455502736E+03  0.61197044121E+03  0.00000000000E+00 0. -1.
         -3    1    3    3    0  502  0.48516156714E+01  0.16633722076E+03 -0.17060551133E+03  0.23832299445E+03  0.00000000000E+00 0.  1.
         11    1    5    5    0    0  0.26005937615E+03 -0.12026750325E+03 -0.43556512144E+03  0.52135604578E+03  0.00000000000E+00 0. -1.
        -11    1    5    5    0    0 -0.49163312601E+01  0.17097950177E+01 -0.28170498512E+02  0.28647350636E+02  0.00000000000E+00 0.  1.
          1    1    6    6  503    0 -0.14082561296E+03 -0.42391289112E+03  0.26104454751E+03  0.51737631208E+03  0.00000000000E+00 0. -1.
         -1    1    6    6    0  503 -0.19965808338E+01 -0.16496422933E+02 -0.76400337781E+01  0.18289024598E+02  0.00000000000E+00 0.  1.
<mgrwt>
<rscale>  0 0.17463972E+04</rscale>
<asrwt>0</asrwt>
<pdfrwt beam="1">  1        2 0.21318875E+00 0.17463972E+04</pdfrwt>
<pdfrwt beam="2">  1       -1 0.84651579E-01 0.17463972E+04</pdfrwt>
<totfact> 0.22011921E+01</totfact>
</mgrwt>
</event>
<event>
12    6  0.1402540E-007  0.1359166E+04  0.7818608E-02  0.8983918E-01
          2   -1    0    0  501    0  0.00000000000E+00  0.00000000000E+00  0.41912536972E+03  0.41912536972E+03  0.00000000000E+00 0. -1.
         -1   -1    0    0    0  501 -0.00000000000E+00 -0.00000000000E+00 -0.11018972485E+04  0.11018972485E+04  0.00000000000E+00 0.  1.
         24    2    1    2    0    0  0.10263511898E+03  0.35032686366E+03 -0.94437214865E+02  0.38520440548E+03  0.78747491402E+02 0.  0.
        254    2    1    2    0    0 -0.10263511898E+03 -0.35032686366E+03 -0.58833466391E+03  0.11358182127E+04  0.90037906271E+03 0.  0.
         23    2    4    4    0    0  0.29706342671E+01 -0.34297949899E+03 -0.80270714152E+03  0.87784036785E+03  0.92850390353E+02 0.  0.
         23    2    4    4    0    0 -0.10560575325E+03 -0.73473646629E+01  0.21437247761E+03  0.25797784488E+03  0.96904336357E+02 0.  0.
          2    1    3    3  502    0  0.87634427061E+02  0.25982604860E+03 -0.36302736548E+02  0.27659945231E+03  0.00000000000E+00 0. -1.
         -1    1    3    3    0  502  0.15000691922E+02  0.90500815057E+02 -0.58134478317E+02  0.10860495317E+03  0.00000000000E+00 0.  1.
         11    1    5    5    0    0  0.79034553053E+01 -0.27490518929E+02 -0.22981577125E+02  0.36692589495E+02  0.00000000000E+00 0. -1.
        -11    1    5    5    0    0 -0.49328210382E+01 -0.31548898006E+03 -0.77972556440E+03  0.84114777836E+03  0.00000000000E+00 0.  1.
          4    1    6    6  503    0 -0.12324161857E+02  0.21077119875E+02  0.11934725082E+03  0.12181911273E+03  0.00000000000E+00 0. -1.
         -4    1    6    6    0  503 -0.93281591392E+02 -0.28424484538E+02  0.95025226786E+02  0.13615873215E+03  0.00000000000E+00 0.  1.
<mgrwt>
<rscale>  0 0.13591661E+04</rscale>
<asrwt>0</asrwt>
<pdfrwt beam="1">  1        2 0.64480826E-01 0.13591661E+04</pdfrwt>
<pdfrwt beam="2">  1       -1 0.16952265E+00 0.13591661E+04</pdfrwt>
<totfact> 0.20893795E+01</totfact>
</mgrwt>
</event>
<event>
12    6  0.1402540E-007  0.1879979E+04  0.7818608E-02  0.8664887E-01
         -1   -1    0    0    0  501 -0.00000000000E+00  0.00000000000E+00  0.78939794253E+03  0.78939794253E+03  0.00000000000E+00 0.  1.
          2   -1    0    0  501    0  0.00000000000E+00 -0.00000000000E+00 -0.11193092764E+04  0.11193092764E+04  0.00000000000E+00 0. -1.
         24    2    1    2    0    0 -0.60178380038E+03 -0.38645864396E+03 -0.23657552317E+03  0.75743427919E+03  0.79023308160E+02 0.  0.
        254    2    1    2    0    0  0.60178380038E+03  0.38645864396E+03 -0.93335810725E+02  0.11512729398E+04  0.89734262263E+03 0.  0.
         23    2    4    4    0    0  0.79533007333E+03  0.13338133769E+03 -0.34073221161E+02  0.81279582557E+03  0.95580138433E+02 0.  0.
         23    2    4    4    0    0 -0.19354627296E+03  0.25307730627E+03 -0.59262589564E+02  0.33847711420E+03  0.97705780742E+02 0.  0.
          2    1    3    3  502    0 -0.41058350529E+03 -0.23620977077E+03 -0.18702243984E+03  0.50926541570E+03  0.00000000000E+00 0. -1.
         -1    1    3    3    0  502 -0.19120029508E+03 -0.15024887319E+03 -0.49553083332E+02  0.24816886348E+03  0.00000000000E+00 0.  1.
         11    1    5    5    0    0  0.41295763522E+03  0.21138311958E+02 -0.22940824395E+02  0.41413417891E+03  0.00000000000E+00 0. -1.
        -11    1    5    5    0    0  0.38237243812E+03  0.11224302573E+03 -0.11132396767E+02  0.39866164666E+03  0.00000000000E+00 0.  1.
          4    1    6    6  503    0 -0.10595341937E+02  0.65670725998E+02  0.10741121701E+02  0.67381579228E+02  0.00000000000E+00 0. -1.
         -4    1    6    6    0  503 -0.18295093102E+03  0.18740658027E+03 -0.70003711265E+02  0.27109553497E+03  0.00000000000E+00 0.  1.
<mgrwt>
<rscale>  0 0.18799792E+04</rscale>
<asrwt>0</asrwt>
<pdfrwt beam="1">  1        2 0.17220143E+00 0.18799792E+04</pdfrwt>
<pdfrwt beam="2">  1       -1 0.12144584E+00 0.18799792E+04</pdfrwt>
<totfact> 0.13633310E+01</totfact>
</mgrwt>
</event>
<event>
12    6  0.1402540E-007  0.3208500E+04  0.7818608E-02  0.8186576E-01
         -1   -1    0    0    0  501 -0.00000000000E+00  0.00000000000E+00  0.12119785589E+04  0.12119785589E+04  0.00000000000E+00 0.  1.
          2   -1    0    0  501    0  0.00000000000E+00 -0.00000000000E+00 -0.21234846135E+04  0.21234846135E+04  0.00000000000E+00 0. -1.
         24    2    1    2    0    0  0.64919109864E+03  0.26798390688E+02  0.95856892131E+03  0.11607594942E+04  0.79630333752E+02 0.  0.
        254    2    1    2    0    0 -0.64919109864E+03 -0.26798390688E+02 -0.18700749758E+04  0.21747036783E+04  0.89999357593E+03 0.  0.
         23    2    4    4    0    0 -0.80663378257E+03  0.11121827427E+03 -0.11008184784E+04  0.13722017000E+04  0.90047873613E+02 0.  0.
         23    2    4    4    0    0  0.15744268392E+03 -0.13801666495E+03 -0.76925649745E+03  0.80250197822E+03  0.91744578328E+02 0.  0.
          2    1    3    3  502    0  0.31133067700E+03  0.19111013480E+02  0.39069509809E+03  0.49993467669E+03  0.00000000000E+00 0. -1.
         -1    1    3    3    0  502  0.33786042164E+03  0.76873772080E+01  0.56787382322E+03  0.66082481747E+03  0.00000000000E+00 0.  1.
         11    1    5    5    0    0 -0.51691809958E+02  0.11152189315E+02 -0.39856670689E+02  0.66219096503E+02  0.00000000000E+00 0. -1.
        -11    1    5    5    0    0 -0.75494197261E+03  0.10006608495E+03 -0.10609618077E+04  0.13059826035E+04  0.00000000000E+00 0.  1.
          2    1    6    6  503    0  0.34062127257E+02 -0.56550996458E+02 -0.12351340798E+03  0.14004929727E+03  0.00000000000E+00 0. -1.
         -2    1    6    6    0  503  0.12338055667E+03 -0.81465668497E+02 -0.64574308947E+03  0.66245268096E+03  0.00000000000E+00 0.  1.
<mgrwt>
<rscale>  0 0.32084998E+04</rscale>
<asrwt>0</asrwt>
<pdfrwt beam="1">  1        2 0.32668994E+00 0.32084998E+04</pdfrwt>
<pdfrwt beam="2">  1       -1 0.18645824E+00 0.32084998E+04</pdfrwt>
<totfact> 0.10209639E+00</totfact>
</mgrwt>
</event>
<event>
12    6  0.1402540E-007  0.2348793E+04  0.7818608E-02  0.8458927E-01
          2   -1    0    0  501    0  0.00000000000E+00  0.00000000000E+00  0.11260168303E+04  0.11260168303E+04  0.00000000000E+00 0. -1.
         -1   -1    0    0    0  501 -0.00000000000E+00 -0.00000000000E+00 -0.12248546684E+04  0.12248546684E+04  0.00000000000E+00 0.  1.
         24    2    1    2    0    0 -0.29464617587E+03 -0.91256314590E+03 -0.32798059711E+03  0.10165443513E+04  0.78760915640E+02 0.  0.
        254    2    1    2    0    0  0.29464617587E+03  0.91256314590E+03  0.22914275900E+03  0.13343271475E+04  0.89907433971E+03 0.  0.
         23    2    4    4    0    0  0.24342409889E+03  0.69775885129E+03 -0.26048505379E+03  0.78931352584E+03  0.95082450298E+02 0.  0.
         23    2    4    4    0    0  0.51222076980E+02  0.21480429461E+03  0.48962781278E+03  0.54501362166E+03  0.92411398575E+02 0.  0.
          2    1    3    3  502    0 -0.85286837407E+02 -0.19095374856E+03 -0.46936958799E+02  0.21433678365E+03  0.00000000000E+00 0. -1.
         -1    1    3    3    0  502 -0.20935933847E+03 -0.72160939734E+03 -0.28104363832E+03  0.80220756764E+03  0.00000000000E+00 0.  1.
         11    1    5    5    0    0  0.58836721749E+01  0.45851975590E+02 -0.40442215411E+02  0.61421446182E+02  0.00000000000E+00 0.  1.
        -11    1    5    5    0    0  0.23754042672E+03  0.65190687570E+03 -0.22004283838E+03  0.72789207966E+03  0.00000000000E+00 0. -1.
          2    1    6    6  503    0  0.20822496466E+01  0.16652105278E+03  0.29796199974E+03  0.34134286293E+03  0.00000000000E+00 0. -1.
         -2    1    6    6    0  503  0.49139827334E+02  0.48283241836E+02  0.19166581304E+03  0.20367075873E+03  0.00000000000E+00 0.  1.
<mgrwt>
<rscale>  0 0.23487929E+04</rscale>
<asrwt>0</asrwt>
<pdfrwt beam="1">  1        2 0.17323336E+00 0.23487929E+04</pdfrwt>
<pdfrwt beam="2">  1       -1 0.18843918E+00 0.23487929E+04</pdfrwt>
<totfact> 0.39173950E+00</totfact>
</mgrwt>
</event>
<event>
12    6  0.1402540E-007  0.2406781E+04  0.7818608E-02  0.8436969E-01
          2   -1    0    0  501    0  0.00000000000E+00  0.00000000000E+00  0.15492492528E+04  0.15492492528E+04  0.00000000000E+00 0. -1.
         -1   -1    0    0    0  501 -0.00000000000E+00 -0.00000000000E+00 -0.93474250028E+03  0.93474250028E+03  0.00000000000E+00 0.  1.
         24    2    1    2    0    0 -0.87277295507E+03 -0.49766523515E+03  0.15631066501E+02  0.10081053866E+04  0.81417583026E+02 0.  0.
        254    2    1    2    0    0  0.87277295507E+03  0.49766523515E+03  0.59887568600E+03  0.14758863665E+04  0.90010286196E+03 0.  0.
         23    2    4    4    0    0  0.68851672946E+03 -0.11285884631E+03  0.28143536031E+03  0.75775461290E+03  0.90519530527E+02 0.  0.
         23    2    4    4    0    0  0.18425622561E+03  0.61052408146E+03  0.31744032569E+03  0.71813175358E+03  0.90856174282E+02 0.  0.
          4    1    3    3  502    0 -0.41151293528E+03 -0.26518961118E+03 -0.23254085279E+02  0.49011139373E+03  0.00000000000E+00 0. -1.
         -3    1    3    3    0  502 -0.46126001980E+03 -0.23247562397E+03  0.38885151781E+02  0.51799399285E+03  0.00000000000E+00 0.  1.
         11    1    5    5    0    0  0.29751650742E+03 -0.66556684751E+01  0.10143531947E+03  0.31440339398E+03  0.00000000000E+00 0. -1.
        -11    1    5    5    0    0  0.39100022203E+03 -0.10620317784E+03  0.18000004084E+03  0.44335121892E+03  0.00000000000E+00 0.  1.
          3    1    6    6  503    0  0.62020720124E+01  0.14028257449E+03  0.53691575441E+02  0.15033446603E+03  0.00000000000E+00 0. -1.
         -3    1    6    6    0  503  0.17805415360E+03  0.47024150697E+03  0.26374875024E+03  0.56779728755E+03  0.00000000000E+00 0.  1.
<mgrwt>
<rscale>  0 0.24067814E+04</rscale>
<asrwt>0</asrwt>
<pdfrwt beam="1">  1        2 0.23834604E+00 0.24067814E+04</pdfrwt>
<pdfrwt beam="2">  1       -1 0.14380654E+00 0.24067814E+04</pdfrwt>
<totfact> 0.47605855E+00</totfact>
</mgrwt>
</event>
<event>
12    6  0.1402540E-007  0.3589129E+04  0.7818608E-02  0.8092986E-01
          2   -1    0    0  501    0  0.00000000000E+00  0.00000000000E+00  0.32384647470E+04  0.32384647470E+04  0.00000000000E+00 0. -1.
         -1   -1    0    0    0  501 -0.00000000000E+00 -0.00000000000E+00 -0.99444112965E+03  0.99444112965E+03  0.00000000000E+00 0.  1.
         24    2    1    2    0    0  0.46061155689E+03  0.15034476627E+04  0.17509838117E+04  0.23547780904E+04  0.80732057392E+02 0.  0.
        254    2    1    2    0    0 -0.46061155689E+03 -0.15034476627E+04  0.49303980564E+03  0.18781277863E+04  0.90097605450E+03 0.  0.
         23    2    4    4    0    0 -0.55769965060E+03 -0.91969988963E+03  0.64937191214E+03  0.12596872222E+04  0.90836282357E+02 0.  0.
         23    2    4    4    0    0  0.97088093711E+02 -0.58374777309E+03 -0.15633210650E+03  0.61844056410E+03  0.88551924158E+02 0.  0.
          2    1    3    3  502    0  0.18925285610E+03  0.58794250157E+03  0.74572248791E+03  0.96829492288E+03  0.00000000000E+00 0. -1.
         -1    1    3    3    0  502  0.27135870078E+03  0.91550516115E+03  0.10052613238E+04  0.13864831675E+04  0.00000000000E+00 0.  1.
         11    1    5    5    0    0 -0.48392844833E+02 -0.42325728135E+02  0.49288587223E+02  0.81010490207E+02  0.00000000000E+00 0. -1.
        -11    1    5    5    0    0 -0.50930680576E+03 -0.87737416150E+03  0.60008332492E+03  0.11786767320E+04  0.00000000000E+00 0.  1.
          3    1    6    6  503    0  0.43132910875E+02 -0.18656809586E+03 -0.10045136264E+02  0.19175246324E+03  0.00000000000E+00 0. -1.
         -3    1    6    6    0  503  0.53955182836E+02 -0.39717967722E+03 -0.14628697024E+03  0.42668810086E+03  0.00000000000E+00 0.  1.
<mgrwt>
<rscale>  0 0.35891294E+04</rscale>
<asrwt>0</asrwt>
<pdfrwt beam="1">  1        2 0.49822534E+00 0.35891294E+04</pdfrwt>
<pdfrwt beam="2">  1       -1 0.15299094E+00 0.35891294E+04</pdfrwt>
<totfact> 0.37434230E-01</totfact>
</mgrwt>
</event>
<event>
12    6  0.1402540E-007  0.1800230E+04  0.7818608E-02  0.8706177E-01
         -3   -1    0    0    0  501 -0.00000000000E+00  0.00000000000E+00  0.89119813451E+03  0.89119813451E+03  0.00000000000E+00 0.  1.
          2   -1    0    0  501    0  0.00000000000E+00 -0.00000000000E+00 -0.90912115427E+03  0.90912115427E+03  0.00000000000E+00 0. -1.
         24    2    1    2    0    0  0.43034786441E+03  0.38700345233E+03 -0.34767456186E+03  0.67984514571E+03  0.79629546363E+02 0.  0.
        254    2    1    2    0    0 -0.43034786441E+03 -0.38700345233E+03  0.32975154210E+03  0.11204741431E+04  0.90097462187E+03 0.  0.
         23    2    4    4    0    0 -0.44781030684E+03 -0.23538702109E+03  0.60407426305E+03  0.79348320857E+03  0.93641691559E+02 0.  0.
         23    2    4    4    0    0  0.17462442422E+02 -0.15161643124E+03 -0.27432272094E+03  0.32699093451E+03  0.91529431915E+02 0.  0.
          2    1    3    3  502    0  0.28347429079E+03  0.20421620033E+03 -0.21971276240E+03  0.41271737058E+03  0.00000000000E+00 0. -1.
         -1    1    3    3    0  502  0.14687357363E+03  0.18278725200E+03 -0.12796179946E+03  0.26712777513E+03  0.00000000000E+00 0.  1.
         11    1    5    5    0    0 -0.38462232403E+03 -0.21078530231E+03  0.56488725736E+03  0.71516598727E+03  0.00000000000E+00 0.  1.
        -11    1    5    5    0    0 -0.63187982804E+02 -0.24601718780E+02  0.39187005684E+02  0.78317221301E+02  0.00000000000E+00 0. -1.
          4    1    6    6  503    0  0.20153418195E+02 -0.20458897133E+02 -0.12487110530E+03  0.12813086933E+03  0.00000000000E+00 0. -1.
         -4    1    6    6    0  503 -0.26909757731E+01 -0.13115753411E+03 -0.14945161565E+03  0.19886006518E+03  0.00000000000E+00 0.  1.
<mgrwt>
<rscale>  0 0.18002301E+04</rscale>
<asrwt>0</asrwt>
<pdfrwt beam="1">  1        2 0.13986479E+00 0.18002301E+04</pdfrwt>
<pdfrwt beam="2">  1       -3 0.13710740E+00 0.18002301E+04</pdfrwt>
<totfact> 0.69998287E+00</totfact>
</mgrwt>
</event>
<event>
12    6  0.1402540E-007  0.2304302E+04  0.7818608E-02  0.8476227E-01
         -3   -1    0    0    0  501 -0.00000000000E+00  0.00000000000E+00  0.13250127809E+04  0.13250127809E+04  0.00000000000E+00 0.  1.
          4   -1    0    0  501    0  0.00000000000E+00 -0.00000000000E+00 -0.10018405677E+04  0.10018405677E+04  0.00000000000E+00 0. -1.
         24    2    1    2    0    0 -0.14029304992E+03 -0.96515117294E+03  0.13367068696E+03  0.98711468341E+03  0.72997391528E+02 0.  0.
        254    2    1    2    0    0  0.14029304992E+03  0.96515117294E+03  0.18950152629E+03  0.13397386652E+04  0.89877134807E+03 0.  0.
         23    2    4    4    0    0 -0.13434196209E+03 -0.11896390312E+03  0.62584214287E+02  0.21029124618E+03  0.90030279994E+02 0.  0.
         23    2    4    4    0    0  0.27463501202E+03  0.10841150761E+04  0.12691731200E+03  0.11294474190E+04  0.93880670556E+02 0.  0.
          2    1    3    3  502    0 -0.36019560658E+02 -0.32463659857E+03  0.11923047829E+02  0.32684627725E+03  0.00000000000E+00 0. -1.
         -1    1    3    3    0  502 -0.10427348927E+03 -0.64051457437E+03  0.12174763913E+03  0.66026840616E+03  0.00000000000E+00 0.  1.
         11    1    5    5    0    0 -0.31345329805E+02 -0.75200383498E+02 -0.12018082297E+01  0.81480499028E+02  0.00000000000E+00 0. -1.
        -11    1    5    5    0    0 -0.10299663229E+03 -0.43763519624E+02  0.63786022516E+02  0.12881074715E+03  0.00000000000E+00 0.  1.
          1    1    6    6  503    0  0.10518303674E+03  0.27797775757E+03  0.57967875707E+02  0.30281244944E+03  0.00000000000E+00 0. -1.
         -1    1    6    6    0  503  0.16945197528E+03  0.80613731849E+03  0.68949436293E+02  0.82663496959E+03  0.00000000000E+00 0.  1.
<mgrwt>
<rscale>  0 0.23043017E+04</rscale>
<asrwt>0</asrwt>
<pdfrwt beam="1">  1        4 0.15412932E+00 0.23043017E+04</pdfrwt>
<pdfrwt beam="2">  1       -3 0.20384812E+00 0.23043017E+04</pdfrwt>
<totfact> 0.79343764E-02</totfact>
</mgrwt>
</event>
<event>
12    6  0.1402540E-007  0.1817684E+04  0.7818608E-02  0.8696952E-01
         -1   -1    0    0    0  501 -0.00000000000E+00  0.00000000000E+00  0.29118754955E+03  0.29118754955E+03  0.00000000000E+00 0.  1.
          2   -1    0    0  501    0  0.00000000000E+00 -0.00000000000E+00 -0.28366368477E+04  0.28366368477E+04  0.00000000000E+00 0. -1.
         24    2    1    2    0    0 -0.48987576199E+03 -0.26208348171E+03 -0.16478515545E+04  0.17408547857E+04  0.80589242279E+02 0.  0.
        254    2    1    2    0    0  0.48987576199E+03  0.26208348171E+03 -0.89759774366E+03  0.13869696115E+04  0.89963158023E+03 0.  0.
         23    2    4    4    0    0  0.20150663531E+03 -0.69354255002E+02  0.12935056621E+03  0.26631922706E+03  0.93698585697E+02 0.  0.
         23    2    4    4    0    0  0.28836912668E+03  0.33143773671E+03 -0.10269483099E+04  0.11206503844E+04  0.90701303247E+02 0.  0.
          4    1    3    3  502    0 -0.38856254174E+03 -0.20949323286E+03 -0.14007296644E+04  0.14686428620E+04  0.00000000000E+00 0. -1.
         -3    1    3    3    0  502 -0.10131322025E+03 -0.52590248855E+02 -0.24712189009E+03  0.27221192375E+03  0.00000000000E+00 0.  1.
         11    1    5    5    0    0  0.18889612265E+03 -0.50673690198E+02  0.14085137073E+03  0.24101592617E+03  0.00000000000E+00 0. -1.
        -11    1    5    5    0    0  0.12610512657E+02 -0.18680564804E+02 -0.11500804527E+02  0.25303300884E+02  0.00000000000E+00 0.  1.
          4    1    6    6  503    0  0.25010743392E+03  0.24715991682E+03 -0.87107011301E+03  0.93936409063E+03  0.00000000000E+00 0. -1.
         -4    1    6    6    0  503  0.38261692761E+02  0.84277819897E+02 -0.15587819685E+03  0.18128629378E+03  0.00000000000E+00 0.  1.
<mgrwt>
<rscale>  0 0.18176835E+04</rscale>
<asrwt>0</asrwt>
<pdfrwt beam="1">  1        2 0.43640570E+00 0.18176835E+04</pdfrwt>
<pdfrwt beam="2">  1       -1 0.44798082E-01 0.18176835E+04</pdfrwt>
<totfact> 0.11676589E+01</totfact>
</mgrwt>
</event>
<event>
12    6  0.1402540E-007  0.2631907E+04  0.7818608E-02  0.8357443E-01
         -1   -1    0    0    0  501 -0.00000000000E+00  0.00000000000E+00  0.11209331255E+04  0.11209331255E+04  0.00000000000E+00 0.  1.
          2   -1    0    0  501    0  0.00000000000E+00 -0.00000000000E+00 -0.15449032613E+04  0.15449032613E+04  0.00000000000E+00 0. -1.
         24    2    1    2    0    0 -0.58996149880E+03 -0.98534183642E+03 -0.29763678652E+03  0.11895130756E+04  0.86026715026E+02 0.  0.
        254    2    1    2    0    0  0.58996149880E+03  0.98534183642E+03 -0.12633334928E+03  0.14763233112E+04  0.91903063025E+03 0.  0.
         23    2    4    4    0    0  0.52547545502E+03  0.10586266105E+04 -0.33284103023E+03  0.12312259444E+04  0.91210857726E+02 0.  0.
         23    2    4    4    0    0  0.64486043785E+02 -0.73284774091E+02  0.20650768095E+03  0.24509736674E+03  0.88871755546E+02 0.  0.
          4    1    3    3  502    0 -0.40067957239E+03 -0.74313962674E+03 -0.21628735898E+03  0.87153935437E+03  0.00000000000E+00 0. -1.
         -3    1    3    3    0  502 -0.18928192641E+03 -0.24220220968E+03 -0.81349427538E+02  0.31797372124E+03  0.00000000000E+00 0.  1.
         11    1    5    5    0    0  0.49229941968E+03  0.98073980968E+03 -0.33227097951E+03  0.11465658711E+04  0.00000000000E+00 0.  1.
        -11    1    5    5    0    0  0.33176035336E+02  0.77886800825E+02 -0.57005072441E+00  0.84660073359E+02  0.00000000000E+00 0. -1.
          2    1    6    6  503    0 -0.12566331374E+02 -0.41759754038E+02  0.41123094161E+02  0.59940792578E+02  0.00000000000E+00 0. -1.
         -2    1    6    6    0  503  0.77052375160E+02 -0.31525020053E+02  0.16538458679E+03  0.18515657416E+03  0.00000000000E+00 0.  1.
<mgrwt>
<rscale>  0 0.26319067E+04</rscale>
<asrwt>0</asrwt>
<pdfrwt beam="1">  1        2 0.23767742E+00 0.26319067E+04</pdfrwt>
<pdfrwt beam="2">  1       -1 0.17245125E+00 0.26319067E+04</pdfrwt>
<totfact> 0.28404346E+00</totfact>
</mgrwt>
</event>
<event>
12    6  0.1402540E-007  0.2104003E+04  0.7818608E-02  0.8559482E-01
          2   -1    0    0  501    0  0.00000000000E+00  0.00000000000E+00  0.31246015870E+04  0.31246015870E+04  0.00000000000E+00 0. -1.
         -1   -1    0    0    0  501 -0.00000000000E+00 -0.00000000000E+00 -0.35419131518E+03  0.35419131518E+03  0.00000000000E+00 0.  1.
         24    2    1    2    0    0  0.40412734242E+03 -0.75252356235E+03  0.10137082366E+04  0.13279026501E+04  0.78169293669E+02 0.  0.
        254    2    1    2    0    0 -0.40412734242E+03  0.75252356235E+03  0.17567020352E+04  0.21508902520E+04  0.90039780933E+03 0.  0.
         23    2    4    4    0    0 -0.61002556483E+03  0.56943607718E+03  0.16309387327E+04  0.18344018717E+04  0.93168885335E+02 0.  0.
         23    2    4    4    0    0  0.20589822241E+03  0.18308748517E+03  0.12576330247E+03  0.31648838035E+03  0.91833443958E+02 0.  0.
          2    1    3    3  502    0  0.12394111611E+03 -0.22035100043E+03  0.35644938888E+03  0.43700358178E+03  0.00000000000E+00 0. -1.
         -1    1    3    3    0  502  0.28018622631E+03 -0.53217256192E+03  0.65725884770E+03  0.89089906833E+03  0.00000000000E+00 0.  1.
         11    1    5    5    0    0 -0.63099586661E+02  0.74768978797E+02  0.25834465359E+03  0.27624973858E+03  0.00000000000E+00 0.  1.
        -11    1    5    5    0    0 -0.54692597817E+03  0.49466709838E+03  0.13725940791E+04  0.15581521331E+04  0.00000000000E+00 0. -1.
          4    1    6    6  503    0  0.20681778775E+03  0.18351405191E+03  0.13465195224E+03  0.30754211552E+03  0.00000000000E+00 0. -1.
         -4    1    6    6    0  503 -0.91956533317E+00 -0.42656674474E+00 -0.88886497705E+01  0.89462648258E+01  0.00000000000E+00 0.  1.
<mgrwt>
<rscale>  0 0.21040026E+04</rscale>
<asrwt>0</asrwt>
<pdfrwt beam="1">  1        2 0.48070792E+00 0.21040026E+04</pdfrwt>
<pdfrwt beam="2">  1       -1 0.54490974E-01 0.21040026E+04</pdfrwt>
<totfact> 0.51878007E+00</totfact>
</mgrwt>
</event>
<event>
12    6  0.1402540E-007  0.3158090E+04  0.7818608E-02  0.8199974E-01
          2   -1    0    0  501    0  0.00000000000E+00  0.00000000000E+00  0.12815572126E+04  0.12815572126E+04  0.00000000000E+00 0. -1.
         -1   -1    0    0    0  501 -0.00000000000E+00 -0.00000000000E+00 -0.19455888957E+04  0.19455888957E+04  0.00000000000E+00 0.  1.
         24    2    1    2    0    0 -0.11482954997E+04 -0.80460124076E+03  0.71476718325E+02  0.14061847584E+04  0.79252396811E+02 0.  0.
        254    2    1    2    0    0  0.11482954997E+04  0.80460124076E+03 -0.73550840151E+03  0.18209613499E+04  0.89942310275E+03 0.  0.
         23    2    4    4    0    0  0.82984444381E+03  0.33474009050E+03 -0.84473388821E+03  0.12338106325E+04  0.89557835536E+02 0.  0.
         23    2    4    4    0    0  0.31845105586E+03  0.46986115026E+03  0.10922548671E+03  0.58715071733E+03  0.10312702078E+03 0.  0.
          2    1    3    3  502    0 -0.17222326493E+03 -0.92932255050E+02  0.25385693021E+02  0.19733649034E+03  0.00000000000E+00 0. -1.
         -1    1    3    3    0  502 -0.97607223475E+03 -0.71166898571E+03  0.46091025303E+02  0.12088482681E+04  0.00000000000E+00 0.  1.
         11    1    5    5    0    0  0.49256248815E+03  0.21472173238E+03 -0.56286143512E+03  0.77816207967E+03  0.00000000000E+00 0. -1.
        -11    1    5    5    0    0  0.33728195567E+03  0.12001835812E+03 -0.28187245309E+03  0.45564855285E+03  0.00000000000E+00 0.  1.
          2    1    6    6  503    0  0.29970946354E+03  0.43111751555E+03  0.71476118772E+02  0.52990273665E+03  0.00000000000E+00 0. -1.
         -2    1    6    6    0  503  0.18741592319E+02  0.38743634708E+02  0.37749367934E+02  0.57247980684E+02  0.00000000000E+00 0.  1.
<mgrwt>
<rscale>  0 0.31580902E+04</rscale>
<asrwt>0</asrwt>
<pdfrwt beam="1">  1        2 0.19716265E+00 0.31580902E+04</pdfrwt>
<pdfrwt beam="2">  1       -1 0.29932137E+00 0.31580902E+04</pdfrwt>
<totfact> 0.54407714E-01</totfact>
</mgrwt>
</event>
<event>
12    6  0.1402540E-007  0.2619313E+04  0.7818608E-02  0.8361671E-01
         -1   -1    0    0    0  501 -0.00000000000E+00  0.00000000000E+00  0.19572127325E+04  0.19572127325E+04  0.00000000000E+00 0.  1.
          2   -1    0    0  501    0  0.00000000000E+00 -0.00000000000E+00 -0.87634827668E+03  0.87634827668E+03  0.00000000000E+00 0. -1.
         24    2    1    2    0    0 -0.67805005498E+03 -0.54303751246E+03 -0.34233521670E+03  0.93718669778E+03  0.80522598720E+02 0.  0.
        254    2    1    2    0    0  0.67805005498E+03  0.54303751246E+03  0.14231996725E+04  0.18963743114E+04  0.90338065289E+03 0.  0.
         23    2    4    4    0    0  0.14464346652E+03  0.24733891860E+03  0.12057518686E+04  0.12424635066E+04  0.88202741411E+02 0.  0.
         23    2    4    4    0    0  0.53340658847E+03  0.29569859386E+03  0.21744780394E+03  0.65391080479E+03  0.91408676573E+02 0.  0.
          4    1    3    3  502    0 -0.33483045158E+03 -0.25948320286E+03 -0.20956908357E+03  0.47261206571E+03  0.00000000000E+00 0. -1.
         -3    1    3    3    0  502 -0.34321960341E+03 -0.28355430961E+03 -0.13276613313E+03  0.46457463207E+03  0.00000000000E+00 0.  1.
         11    1    5    5    0    0  0.99225995215E+02  0.10929329458E+03  0.47530108795E+03  0.49769664111E+03  0.00000000000E+00 0. -1.
        -11    1    5    5    0    0  0.45417471303E+02  0.13804562402E+03  0.73045078060E+03  0.74476686546E+03  0.00000000000E+00 0.  1.
          4    1    6    6  503    0  0.14222214777E+03  0.56648437499E+02  0.18652004740E+02  0.15422088726E+03  0.00000000000E+00 0. -1.
         -4    1    6    6    0  503  0.39118444070E+03  0.23905015636E+03  0.19879579920E+03  0.49968991753E+03  0.00000000000E+00 0.  1.
<mgrwt>
<rscale>  0 0.26193129E+04</rscale>
<asrwt>0</asrwt>
<pdfrwt beam="1">  1        2 0.13482281E+00 0.26193129E+04</pdfrwt>
<pdfrwt beam="2">  1       -1 0.30110965E+00 0.26193129E+04</pdfrwt>
<totfact> 0.99543980E-01</totfact>
</mgrwt>
</event>
<event>
12    6  0.1402540E-007  0.2506897E+04  0.7818608E-02  0.8400533E-01
         -1   -1    0    0    0  501 -0.00000000000E+00  0.00000000000E+00  0.13411775703E+04  0.13411775703E+04  0.00000000000E+00 0.  1.
          2   -1    0    0  501    0  0.00000000000E+00 -0.00000000000E+00 -0.11714577683E+04  0.11714577683E+04  0.00000000000E+00 0. -1.
         24    2    1    2    0    0  0.19302983971E+03 -0.10632927223E+04  0.21897174994E+03  0.11054689256E+04  0.79126391675E+02 0.  0.
        254    2    1    2    0    0 -0.19302983971E+03  0.10632927223E+04 -0.49251947934E+02  0.14071664130E+04  0.89991089961E+03 0.  0.
         23    2    4    4    0    0 -0.12882637096E+03  0.75624087719E+03 -0.44554504655E+03  0.89224307606E+03  0.95345792188E+02 0.  0.
         23    2    4    4    0    0 -0.64203468749E+02  0.30705184507E+03  0.39629309862E+03  0.51492333692E+03  0.98462693125E+02 0.  0.
          2    1    3    3  502    0  0.17127969527E+03 -0.99148350251E+03  0.18469862292E+03  0.10229808654E+04  0.00000000000E+00 0. -1.
         -1    1    3    3    0  502  0.21750144444E+02 -0.71809219751E+02  0.34273127017E+02  0.82488060106E+02  0.00000000000E+00 0.  1.
         11    1    5    5    0    0 -0.70262538719E+02  0.60719247550E+03 -0.37616816166E+03  0.71772000982E+03  0.00000000000E+00 0.  1.
        -11    1    5    5    0    0 -0.58563832244E+02  0.14904840169E+03 -0.69376884894E+02  0.17452306624E+03  0.00000000000E+00 0. -1.
          1    1    6    6  503    0  0.16270296705E+01 -0.34020102306E+01  0.30156356075E+02  0.30391227531E+02  0.00000000000E+00 0. -1.
         -1    1    6    6    0  503 -0.65830498419E+02  0.31045385530E+03  0.36613674254E+03  0.48453210939E+03  0.00000000000E+00 0.  1.
<mgrwt>
<rscale>  0 0.25068968E+04</rscale>
<asrwt>0</asrwt>
<pdfrwt beam="1">  1        2 0.18022427E+00 0.25068968E+04</pdfrwt>
<pdfrwt beam="2">  1       -1 0.20633501E+00 0.25068968E+04</pdfrwt>
<totfact> 0.27256695E+00</totfact>
</mgrwt>
</event>
<event>
12    6  0.1402540E-007  0.1488092E+04  0.7818608E-02  0.8892411E-01
         -1   -1    0    0    0  501 -0.00000000000E+00  0.00000000000E+00  0.12342401286E+04  0.12342401286E+04  0.00000000000E+00 0.  1.
          2   -1    0    0  501    0  0.00000000000E+00 -0.00000000000E+00 -0.44853851025E+03  0.44853851025E+03  0.00000000000E+00 0. -1.
         24    2    1    2    0    0  0.23718474793E+03 -0.88622492270E+02  0.69393130003E+03  0.74281305654E+03  0.78230665510E+02 0.  0.
        254    2    1    2    0    0 -0.23718474793E+03  0.88622492270E+02  0.91770318325E+02  0.93996558232E+03  0.90055702419E+03 0.  0.
         23    2    4    4    0    0 -0.18329320123E+02  0.47326760163E+03  0.21623570425E+02  0.48270709891E+03  0.90666299181E+02 0.  0.
         23    2    4    4    0    0 -0.21885542781E+03 -0.38464510936E+03  0.70146747900E+02  0.45725848341E+03  0.91187696387E+02 0.  0.
          4    1    3    3  502    0  0.18743683713E+03 -0.33156450763E+02  0.51001464331E+03  0.54437749267E+03  0.00000000000E+00 0. -1.
         -3    1    3    3    0  502  0.49747910800E+02 -0.55466041508E+02  0.18391665672E+03  0.19843556387E+03  0.00000000000E+00 0.  1.
         11    1    5    5    0    0  0.21140312034E+02  0.29936177604E+03  0.42729122732E+02  0.30313390387E+03  0.00000000000E+00 0.  1.
        -11    1    5    5    0    0 -0.39469632157E+02  0.17390582559E+03 -0.21105552307E+02  0.17957319504E+03  0.00000000000E+00 0. -1.
          1    1    6    6  503    0 -0.72345585488E+01 -0.52470485079E+02 -0.13404772475E+02  0.54636787671E+02  0.00000000000E+00 0. -1.
         -1    1    6    6    0  503 -0.21162086926E+03 -0.33217462428E+03  0.83551520375E+02  0.40262169574E+03  0.00000000000E+00 0.  1.
<mgrwt>
<rscale>  0 0.14880917E+04</rscale>
<asrwt>0</asrwt>
<pdfrwt beam="1">  1        2 0.69005925E-01 0.14880917E+04</pdfrwt>
<pdfrwt beam="2">  1       -1 0.18988310E+00 0.14880917E+04</pdfrwt>
<totfact> 0.13665972E+01</totfact>
</mgrwt>
</event>
<event>
12    6  0.1402540E-007  0.3567916E+04  0.7818608E-02  0.8097881E-01
         -1   -1    0    0    0  501 -0.00000000000E+00  0.00000000000E+00  0.10765677882E+04  0.10765677882E+04  0.00000000000E+00 0.  1.
          2   -1    0    0  501    0  0.00000000000E+00 -0.00000000000E+00 -0.29561602441E+04  0.29561602441E+04  0.00000000000E+00 0. -1.
         24    2    1    2    0    0 -0.71582839074E+03  0.12934190543E+04 -0.48190186356E+01  0.14807687360E+04  0.85496734171E+02 0.  0.
        254    2    1    2    0    0  0.71582839074E+03 -0.12934190543E+04 -0.18747734372E+04  0.25519592963E+04  0.90131996216E+03 0.  0.
         23    2    4    4    0    0  0.73437818044E+03 -0.55149913750E+03 -0.13630907796E+04  0.16458646585E+04  0.85973194218E+02 0.  0.
         23    2    4    4    0    0 -0.18549789699E+02 -0.74191991681E+03 -0.51168265759E+03  0.90609463780E+03  0.91646565190E+02 0.  0.
          2    1    3    3  502    0 -0.61930021991E+03  0.10534499975E+04 -0.10600883613E+02  0.12220482962E+04  0.00000000000E+00 0. -1.
         -1    1    3    3    0  502 -0.96528170828E+02  0.23996905680E+03  0.57818649774E+01  0.25872043976E+03  0.00000000000E+00 0.  1.
         11    1    5    5    0    0  0.44194788494E+03 -0.36992416635E+03 -0.80206578492E+03  0.98765952899E+03  0.00000000000E+00 0. -1.
        -11    1    5    5    0    0  0.29243029550E+03 -0.18157497114E+03 -0.56102499471E+03  0.65820512954E+03  0.00000000000E+00 0.  1.
          1    1    6    6  503    0  0.10315779555E+02 -0.32098588552E+03 -0.27191270581E+03  0.42080265397E+03  0.00000000000E+00 0. -1.
         -1    1    6    6    0  503 -0.28865569254E+02 -0.42093403129E+03 -0.23976995177E+03  0.48529198382E+03  0.00000000000E+00 0.  1.
<mgrwt>
<rscale>  0 0.35679164E+04</rscale>
<asrwt>0</asrwt>
<pdfrwt beam="1">  1        2 0.45479387E+00 0.35679164E+04</pdfrwt>
<pdfrwt beam="2">  1       -1 0.16562582E+00 0.35679164E+04</pdfrwt>
<totfact> 0.45599173E-01</totfact>
</mgrwt>
</event>
<event>
12    6  0.1402540E-007  0.3858349E+04  0.7818608E-02  0.8033748E-01
         -1   -1    0    0    0  501 -0.00000000000E+00  0.00000000000E+00  0.14354435827E+04  0.14354435827E+04  0.00000000000E+00 0.  1.
          2   -1    0    0  501    0  0.00000000000E+00 -0.00000000000E+00 -0.25927279369E+04  0.25927279369E+04  0.00000000000E+00 0. -1.
         24    2    1    2    0    0 -0.17818160965E+04 -0.92434328590E+02 -0.94071426912E+03  0.20185031412E+04  0.77452487992E+02 0.  0.
        254    2    1    2    0    0  0.17818160965E+04  0.92434328590E+02 -0.21657008502E+03  0.20096683784E+04  0.89913941229E+03 0.  0.
         23    2    4    4    0    0  0.19090862504E+03  0.71272422413E+02  0.26511041280E+03  0.34494911904E+03  0.84737845379E+02 0.  0.
         23    2    4    4    0    0  0.15909074715E+04  0.21161906177E+02 -0.48168049782E+03  0.16647192594E+04  0.88542089513E+02 0.  0.
          2    1    3    3  502    0 -0.14485643060E+04 -0.69044834284E+02 -0.79751999471E+03  0.16550359149E+04  0.00000000000E+00 0. -1.
         -1    1    3    3    0  502 -0.33325179054E+03 -0.23389494306E+02 -0.14319427441E+03  0.36346722626E+03  0.00000000000E+00 0.  1.
         11    1    5    5    0    0  0.13736535583E+03  0.82134599598E+02  0.22927537381E+03  0.27961139188E+03  0.00000000000E+00 0. -1.
        -11    1    5    5    0    0  0.53543269210E+02 -0.10862177185E+02  0.35835038993E+02  0.65337727161E+02  0.00000000000E+00 0.  1.
          3    1    6    6  503    0  0.10205694324E+04 -0.18240177624E+02 -0.27926095745E+03  0.10582444674E+04  0.00000000000E+00 0. -1.
         -3    1    6    6    0  503  0.57033803909E+03  0.39402083801E+02 -0.20241954037E+03  0.60647479203E+03  0.00000000000E+00 0.  1.
<mgrwt>
<rscale>  0 0.38583492E+04</rscale>
<asrwt>0</asrwt>
<pdfrwt beam="1">  1        2 0.39888122E+00 0.38583492E+04</pdfrwt>
<pdfrwt beam="2">  1       -1 0.22083748E+00 0.38583492E+04</pdfrwt>
<totfact> 0.30272671E-01</totfact>
</mgrwt>
</event>
<event>
12    6  0.1402540E-007  0.2706154E+04  0.7818608E-02  0.8333011E-01
         -1   -1    0    0    0  501 -0.00000000000E+00  0.00000000000E+00  0.92592054844E+03  0.92592054844E+03  0.00000000000E+00 0.  1.
          2   -1    0    0  501    0  0.00000000000E+00 -0.00000000000E+00 -0.19772941762E+04  0.19772941762E+04  0.00000000000E+00 0. -1.
         24    2    1    2    0    0 -0.88170495220E+03 -0.61357526885E+03 -0.10578883647E+04  0.15098840450E+04  0.82120667161E+02 0.  0.
        254    2    1    2    0    0  0.88170495220E+03  0.61357526885E+03  0.65147369149E+01  0.13933306796E+04  0.88738363054E+03 0.  0.
         23    2    4    4    0    0  0.10572977024E+03  0.59567277817E+03 -0.24763398935E+01  0.61169740287E+03  0.90347869133E+02 0.  0.
         23    2    4    4    0    0  0.77597518196E+03  0.17902490682E+02  0.89910768083E+01  0.78163327677E+03  0.91715634924E+02 0.  0.
          2    1    3    3  502    0 -0.30017309241E+03 -0.16484780941E+03 -0.35393458465E+03  0.49249200591E+03  0.00000000000E+00 0. -1.
         -1    1    3    3    0  502 -0.58153185979E+03 -0.44872745944E+03 -0.70395378006E+03  0.10173920391E+04  0.00000000000E+00 0.  1.
         11    1    5    5    0    0 -0.66477978154E+01  0.52044195273E+02 -0.20380715865E+02  0.56286455357E+02  0.00000000000E+00 0.  1.
        -11    1    5    5    0    0  0.11237756805E+03  0.54362858290E+03  0.17904375971E+02  0.55541094752E+03  0.00000000000E+00 0. -1.
          1    1    6    6  503    0  0.43580145433E+03 -0.33122825810E+02 -0.94432370589E+01  0.43716038695E+03  0.00000000000E+00 0. -1.
         -1    1    6    6    0  503  0.34017372763E+03  0.51025316493E+02  0.18434313867E+02  0.34447288982E+03  0.00000000000E+00 0.  1.
<mgrwt>
<rscale>  0 0.27061540E+04</rscale>
<asrwt>0</asrwt>
<pdfrwt beam="1">  1        2 0.30419910E+00 0.27061540E+04</pdfrwt>
<pdfrwt beam="2">  1       -1 0.14244932E+00 0.27061540E+04</pdfrwt>
<totfact> 0.27480687E+00</totfact>
</mgrwt>
</event>
<event>
12    6  0.1402540E-007  0.1634359E+04  0.7818608E-02  0.8799714E-01
         -1   -1    0    0    0  501 -0.00000000000E+00  0.00000000000E+00  0.60070285067E+03  0.60070285067E+03  0.00000000000E+00 0.  1.
          2   -1    0    0  501    0  0.00000000000E+00 -0.00000000000E+00 -0.11116677809E+04  0.11116677809E+04  0.00000000000E+00 0. -1.
         24    2    1    2    0    0 -0.47993901835E+03  0.29320205243E+03 -0.23245771122E+03  0.61374266711E+03  0.79590005935E+02 0.  0.
        254    2    1    2    0    0  0.47993901835E+03 -0.29320205243E+03 -0.27850721903E+03  0.10986279645E+04  0.90172514016E+03 0.  0.
         23    2    4    4    0    0  0.57102920474E+03 -0.33815844442E+03 -0.50180167788E+03  0.83716772630E+03  0.92840679812E+02 0.  0.
         23    2    4    4    0    0 -0.91090186397E+02  0.44956391989E+02  0.22329445886E+03  0.26146023817E+03  0.90457401862E+02 0.  0.
          4    1    3    3  502    0 -0.32817279481E+03  0.22497958710E+03 -0.19537415971E+03  0.44326545111E+03  0.00000000000E+00 0. -1.
         -1    1    3    3    0  502 -0.15176622354E+03  0.68222465331E+02 -0.37083551507E+02  0.17047721600E+03  0.00000000000E+00 0.  1.
         11    1    5    5    0    0  0.23324010861E+03 -0.86904152472E+02 -0.19678007859E+03  0.31729431024E+03  0.00000000000E+00 0. -1.
        -11    1    5    5    0    0  0.33778909614E+03 -0.25125429195E+03 -0.30502159929E+03  0.51987341606E+03  0.00000000000E+00 0.  1.
          2    1    6    6  503    0  0.90538843574E+01  0.15340241247E+02  0.35502400801E+01  0.18163150280E+02  0.00000000000E+00 0. -1.
         -2    1    6    6    0  503 -0.10014407075E+03  0.29616150741E+02  0.21974421878E+03  0.24329708789E+03  0.00000000000E+00 0.  1.
<mgrwt>
<rscale>  0 0.16343586E+04</rscale>
<asrwt>0</asrwt>
<pdfrwt beam="1">  1        2 0.17102581E+00 0.16343586E+04</pdfrwt>
<pdfrwt beam="2">  1       -1 0.92415823E-01 0.16343586E+04</pdfrwt>
<totfact> 0.26627302E+01</totfact>
</mgrwt>
</event>
<event>
12    6  0.1402540E-007  0.2662315E+04  0.7818608E-02  0.8347337E-01
          2   -1    0    0  501    0  0.00000000000E+00  0.00000000000E+00  0.13145056992E+04  0.13145056992E+04  0.00000000000E+00 0. -1.
         -1   -1    0    0    0  501 -0.00000000000E+00 -0.00000000000E+00 -0.13480200393E+04  0.13480200393E+04  0.00000000000E+00 0.  1.
         24    2    1    2    0    0  0.74293078441E+03 -0.90881312046E+03  0.81805254649E+02  0.11794520532E+04  0.80793612545E+02 0.  0.
        254    2    1    2    0    0 -0.74293078441E+03  0.90881312046E+03 -0.11531959472E+03  0.14830736852E+04  0.89906702117E+03 0.  0.
         23    2    4    4    0    0  0.81528603618E+02  0.27346471867E+03  0.23551614137E+03  0.38087546231E+03  0.90379197727E+02 0.  0.
         23    2    4    4    0    0 -0.82445938803E+03  0.63534840180E+03 -0.35083573609E+03  0.11021982229E+04  0.91402049894E+02 0.  0.
          4    1    3    3  502    0  0.35175714068E+03 -0.48536015136E+03  0.21234868124E+02  0.59979870137E+03  0.00000000000E+00 0. -1.
         -3    1    3    3    0  502  0.39117364373E+03 -0.42345296911E+03  0.60570386524E+02  0.57965335186E+03  0.00000000000E+00 0.  1.
         11    1    5    5    0    0  0.23915789646E+02  0.20117198955E+03  0.13056363050E+03  0.24101658860E+03  0.00000000000E+00 0. -1.
        -11    1    5    5    0    0  0.57612813973E+02  0.72292729120E+02  0.10495251086E+03  0.13985887370E+03  0.00000000000E+00 0.  1.
          2    1    6    6  503    0 -0.38223704514E+02  0.15834255063E+02 -0.29823602854E+02  0.51002181398E+02  0.00000000000E+00 0. -1.
         -2    1    6    6    0  503 -0.78623568351E+03  0.61951414673E+03 -0.32101213324E+03  0.10511960415E+04  0.00000000000E+00 0.  1.
<mgrwt>
<rscale>  0 0.26623148E+04</rscale>
<asrwt>0</asrwt>
<pdfrwt beam="1">  1        2 0.20223165E+00 0.26623148E+04</pdfrwt>
<pdfrwt beam="2">  1       -1 0.20738770E+00 0.26623148E+04</pdfrwt>
<totfact> 0.21769995E+00</totfact>
</mgrwt>
</event>
<event>
12    6  0.1402540E-007  0.1946208E+04  0.7818608E-02  0.8632192E-01
         -1   -1    0    0    0  501 -0.00000000000E+00  0.00000000000E+00  0.40970143200E+03  0.40970143200E+03  0.00000000000E+00 0.  1.
          2   -1    0    0  501    0  0.00000000000E+00 -0.00000000000E+00 -0.23112712467E+04  0.23112712467E+04  0.00000000000E+00 0. -1.
         24    2    1    2    0    0  0.21051690437E+03  0.59168774505E+03 -0.13532186093E+04  0.14940683635E+04  0.81412011737E+02 0.  0.
        254    2    1    2    0    0 -0.21051690437E+03 -0.59168774505E+03 -0.54835120546E+03  0.12269043152E+04  0.90010743778E+03 0.  0.
         23    2    4    4    0    0  0.19521933309E+03 -0.78660272023E+02 -0.51810968604E+03  0.56592311278E+03  0.86794564348E+02 0.  0.
         23    2    4    4    0    0 -0.40573623746E+03 -0.51302747302E+03 -0.30241519422E+02  0.66098120246E+03  0.90346654855E+02 0.  0.
          4    1    3    3  502    0  0.59293626171E+02  0.24013283064E+03 -0.45909584671E+03  0.52148682334E+03  0.00000000000E+00 0. -1.
         -3    1    3    3    0  502  0.15122327820E+03  0.35155491441E+03 -0.89412276254E+03  0.97258154014E+03  0.00000000000E+00 0.  1.
         11    1    5    5    0    0  0.15399245069E+03 -0.28322335212E+02 -0.30121944477E+03  0.33948340674E+03  0.00000000000E+00 0. -1.
        -11    1    5    5    0    0  0.41226882406E+02 -0.50337936811E+02 -0.21689024126E+03  0.22643970604E+03  0.00000000000E+00 0.  1.
          1    1    6    6  503    0 -0.37786587633E+03 -0.48014434471E+03 -0.51025221643E+02  0.61312705494E+03  0.00000000000E+00 0. -1.
         -1    1    6    6    0  503 -0.27870361129E+02 -0.32883128316E+02  0.20783702221E+02  0.47854147525E+02  0.00000000000E+00 0.  1.
<mgrwt>
<rscale>  0 0.19462077E+04</rscale>
<asrwt>0</asrwt>
<pdfrwt beam="1">  1        2 0.35558020E+00 0.19462077E+04</pdfrwt>
<pdfrwt beam="2">  1       -1 0.63030989E-01 0.19462077E+04</pdfrwt>
<totfact> 0.12118459E+01</totfact>
</mgrwt>
</event>
<event>
12    6  0.1402540E-007  0.2582069E+04  0.7818608E-02  0.8374318E-01
         -1   -1    0    0    0  501 -0.00000000000E+00  0.00000000000E+00  0.86720662389E+03  0.86720662389E+03  0.00000000000E+00 0.  1.
          2   -1    0    0  501    0  0.00000000000E+00 -0.00000000000E+00 -0.19219983697E+04  0.19219983697E+04  0.00000000000E+00 0. -1.
         24    2    1    2    0    0  0.98124972269E+03 -0.46099702810E+03 -0.81702914618E+03  0.13599069064E+04  0.80255155947E+02 0.  0.
        254    2    1    2    0    0 -0.98124972269E+03  0.46099702810E+03 -0.23776259960E+03  0.14292980872E+04  0.90055132567E+03 0.  0.
         23    2    4    4    0    0 -0.10863452019E+04  0.53076166460E+03 -0.92390097344E+02  0.12163406514E+04  0.95366701574E+02 0.  0.
         23    2    4    4    0    0  0.10509547923E+03 -0.69764636507E+02 -0.14537250226E+03  0.21295743583E+03  0.91134739820E+02 0.  0.
          2    1    3    3  502    0  0.35735193945E+03 -0.12579580756E+03 -0.28071923536E+03  0.47151700174E+03  0.00000000000E+00 0. -1.
         -1    1    3    3    0  502  0.62389778324E+03 -0.33520122054E+03 -0.53630991082E+03  0.88838990462E+03  0.00000000000E+00 0.  1.
         11    1    5    5    0    0 -0.39549123036E+03  0.18299701306E+03  0.11623728772E+02  0.43593156705E+03  0.00000000000E+00 0.  1.
        -11    1    5    5    0    0 -0.69085397156E+03  0.34776465154E+03 -0.10401382612E+03  0.78040908433E+03  0.00000000000E+00 0. -1.
          3    1    6    6  503    0  0.15275952412E+02 -0.49356299811E+02 -0.15887761379E+02  0.54053862163E+02  0.00000000000E+00 0. -1.
         -3    1    6    6    0  503  0.89819526821E+02 -0.20408336697E+02 -0.12948474088E+03  0.15890357367E+03  0.00000000000E+00 0.  1.
<mgrwt>
<rscale>  0 0.25820687E+04</rscale>
<asrwt>0</asrwt>
<pdfrwt beam="1">  1        2 0.29569206E+00 0.25820687E+04</pdfrwt>
<pdfrwt beam="2">  1       -1 0.13341640E+00 0.25820687E+04</pdfrwt>
<totfact> 0.35334486E+00</totfact>
</mgrwt>
</event>
<event>
12    6  0.1402540E-007  0.1321628E+04  0.7818608E-02  0.9012588E-01
          2   -1    0    0  501    0  0.00000000000E+00  0.00000000000E+00  0.29957115958E+04  0.29957115958E+04  0.00000000000E+00 0. -1.
         -1   -1    0    0    0  501 -0.00000000000E+00 -0.00000000000E+00 -0.14576664527E+03  0.14576664527E+03  0.00000000000E+00 0.  1.
         24    2    1    2    0    0  0.15370765157E+03 -0.94605194511E+02  0.61359091120E+02  0.20559778456E+03  0.77002116673E+02 0.  0.
        254    2    1    2    0    0 -0.15370765157E+03  0.94605194511E+02  0.27885858594E+04  0.29358804565E+04  0.90033703395E+03 0.  0.
         23    2    4    4    0    0  0.18341591328E+03  0.43180994458E+02  0.11377373692E+03  0.23802007503E+03  0.90570952180E+02 0.  0.
         23    2    4    4    0    0 -0.33712356485E+03  0.51424200053E+02  0.26748121225E+04  0.26978603815E+04  0.86798623589E+02 0.  0.
          4    1    3    3  502    0  0.57633987857E+02 -0.15805380987E+01 -0.18424183160E+01  0.57685086134E+02  0.00000000000E+00 0. -1.
         -3    1    3    3    0  502  0.96073663711E+02 -0.93024656412E+02  0.63201509436E+02  0.14791269842E+03  0.00000000000E+00 0.  1.
         11    1    5    5    0    0  0.98490624670E+02 -0.45252992113E+01  0.15778781666E+02  0.99849143370E+02  0.00000000000E+00 0. -1.
        -11    1    5    5    0    0  0.84925288612E+02  0.47706293669E+02  0.97994955256E+02  0.13817093166E+03  0.00000000000E+00 0.  1.
          4    1    6    6  503    0 -0.12606279213E+03  0.18586001019E+02  0.69745145230E+03  0.70899632954E+03  0.00000000000E+00 0.  1.
         -4    1    6    6    0  503 -0.21106077272E+03  0.32838199034E+02  0.19773606702E+04  0.19888640519E+04  0.00000000000E+00 0. -1.
<mgrwt>
<rscale>  0 0.13216275E+04</rscale>
<asrwt>0</asrwt>
<pdfrwt beam="1">  1        2 0.46087866E+00 0.13216275E+04</pdfrwt>
<pdfrwt beam="2">  1       -1 0.22425640E-01 0.13216275E+04</pdfrwt>
<totfact> 0.33288829E+01</totfact>
</mgrwt>
</event>
<event>
12    6  0.1402540E-007  0.2804504E+04  0.7818608E-02  0.8301871E-01
          2   -1    0    0  501    0  0.00000000000E+00  0.00000000000E+00  0.11203540938E+04  0.11203540938E+04  0.00000000000E+00 0. -1.
         -1   -1    0    0    0  501 -0.00000000000E+00 -0.00000000000E+00 -0.17550795676E+04  0.17550795676E+04  0.00000000000E+00 0.  1.
         24    2    1    2    0    0 -0.11988771023E+04 -0.35058260272E+03 -0.14234111775E+03  0.12596754836E+04  0.79415755851E+02 0.  0.
        254    2    1    2    0    0  0.11988771023E+04  0.35058260272E+03 -0.49238435602E+03  0.16157581778E+04  0.89889802940E+03 0.  0.
         23    2    4    4    0    0  0.76859346486E+03 -0.21342816132E+03 -0.12540148891E+03  0.81232177812E+03  0.88620784926E+02 0.  0.
         23    2    4    4    0    0  0.43028363748E+03  0.56401076404E+03 -0.36698286711E+03  0.80343639969E+03  0.87071654139E+02 0.  0.
          4    1    3    3  502    0 -0.10172993164E+04 -0.28124780859E+03 -0.95688582510E+02  0.10597898536E+04  0.00000000000E+00 0. -1.
         -3    1    3    3    0  502 -0.18157778593E+03 -0.69334794131E+02 -0.46652535244E+02  0.19988562996E+03  0.00000000000E+00 0.  1.
         11    1    5    5    0    0  0.28872036980E+03 -0.12087048997E+03 -0.30582433747E+02  0.31449071932E+03  0.00000000000E+00 0. -1.
        -11    1    5    5    0    0  0.47987309506E+03 -0.92557671349E+02 -0.94819055164E+02  0.49783105880E+03  0.00000000000E+00 0.  1.
          2    1    6    6  503    0  0.40978846447E+03  0.52202415263E+03 -0.31856497589E+03  0.73615178150E+03  0.00000000000E+00 0. -1.
         -2    1    6    6    0  503  0.20495173006E+02  0.41986611415E+02 -0.48417891219E+02  0.67284618189E+02  0.00000000000E+00 0.  1.
<mgrwt>
<rscale>  0 0.28045039E+04</rscale>
<asrwt>0</asrwt>
<pdfrwt beam="1">  1        2 0.17236217E+00 0.28045039E+04</pdfrwt>
<pdfrwt beam="2">  1       -1 0.27001224E+00 0.28045039E+04</pdfrwt>
<totfact> 0.10838018E+00</totfact>
</mgrwt>
</event>
<event>
12    6  0.1402540E-007  0.1470464E+04  0.7818608E-02  0.8904335E-01
          2   -1    0    0  501    0  0.00000000000E+00  0.00000000000E+00  0.20725425865E+04  0.20725425865E+04  0.00000000000E+00 0. -1.
         -1   -1    0    0    0  501 -0.00000000000E+00 -0.00000000000E+00 -0.26082260685E+03  0.26082260685E+03  0.00000000000E+00 0.  1.
         24    2    1    2    0    0  0.17015332744E+03 -0.20804115928E+03  0.11511594738E+04  0.11848971995E+04  0.81116955007E+02 0.  0.
        254    2    1    2    0    0 -0.17015332744E+03  0.20804115928E+03  0.66056050581E+03  0.11484679938E+04  0.90022512309E+03 0.  0.
         23    2    4    4    0    0 -0.22438649393E+03  0.77237547412E+02 -0.16682652555E+03  0.30412887626E+03  0.91369285641E+02 0.  0.
         23    2    4    4    0    0  0.54233166487E+02  0.13080361187E+03  0.82738703136E+03  0.84433911759E+03  0.91040785371E+02 0.  0.
          2    1    3    3  502    0  0.10174353412E+03 -0.17347605418E+03  0.90521901243E+03  0.92729021810E+03  0.00000000000E+00 0. -1.
         -1    1    3    3    0  502  0.68409793319E+02 -0.34565105098E+02  0.24594046139E+03  0.25760698139E+03  0.00000000000E+00 0.  1.
         11    1    5    5    0    0 -0.10069915940E+03 -0.12506076006E+02 -0.67136895148E+02  0.12167204006E+03  0.00000000000E+00 0. -1.
        -11    1    5    5    0    0 -0.12368733452E+03  0.89743623418E+02 -0.99689630401E+02  0.18245683620E+03  0.00000000000E+00 0.  1.
          4    1    6    6  503    0  0.32166144785E+02  0.95351756377E+01  0.78390496440E+02  0.85268108791E+02  0.00000000000E+00 0. -1.
         -4    1    6    6    0  503  0.22067021702E+02  0.12126843623E+03  0.74899653492E+03  0.75907100879E+03  0.00000000000E+00 0.  1.
<mgrwt>
<rscale>  0 0.14704638E+04</rscale>
<asrwt>0</asrwt>
<pdfrwt beam="1">  1        2 0.31885269E+00 0.14704638E+04</pdfrwt>
<pdfrwt beam="2">  1       -1 0.40126556E-01 0.14704638E+04</pdfrwt>
<totfact> 0.40685680E+01</totfact>
</mgrwt>
</event>
<event>
12    6  0.1402540E-007  0.1656834E+04  0.7818608E-02  0.8786374E-01
         -3   -1    0    0    0  501 -0.00000000000E+00  0.00000000000E+00  0.65069800188E+03  0.65069800188E+03  0.00000000000E+00 0.  1.
          2   -1    0    0  501    0  0.00000000000E+00 -0.00000000000E+00 -0.10546752671E+04  0.10546752671E+04  0.00000000000E+00 0. -1.
         24    2    1    2    0    0 -0.28186902010E+03  0.18479692183E+03  0.34379194109E+03  0.48814708486E+03  0.80589272788E+02 0.  0.
        254    2    1    2    0    0  0.28186902010E+03 -0.18479692183E+03 -0.74776920635E+03  0.12172261842E+04  0.89937797984E+03 0.  0.
         23    2    4    4    0    0  0.24375153312E+02 -0.44241529979E+03 -0.92517916297E+02  0.46182868221E+03  0.91655448741E+02 0.  0.
         23    2    4    4    0    0  0.25749386679E+03  0.25761837796E+03 -0.65525129005E+03  0.75539750195E+03  0.92740566816E+02 0.  0.
          2    1    3    3  502    0 -0.14125456869E+03  0.12473164605E+03  0.14736762174E+03  0.23922385466E+03  0.00000000000E+00 0. -1.
         -1    1    3    3    0  502 -0.14061445141E+03  0.60065275780E+02  0.19642431935E+03  0.24892323020E+03  0.00000000000E+00 0.  1.
         11    1    5    5    0    0  0.84666861000E+00 -0.41857879490E+03 -0.90655124490E+02  0.42828410663E+03  0.00000000000E+00 0.  1.
        -11    1    5    5    0    0  0.23528484702E+02 -0.23836504888E+02 -0.18627918063E+01  0.33544575582E+02  0.00000000000E+00 0. -1.
          2    1    6    6  503    0  0.24691170585E+03  0.23358672633E+03 -0.54695013626E+03  0.64395853963E+03  0.00000000000E+00 0.  1.
         -2    1    6    6    0  503  0.10582160941E+02  0.24031651637E+02 -0.10830115379E+03  0.11143896232E+03  0.00000000000E+00 0. -1.
<mgrwt>
<rscale>  0 0.16568344E+04</rscale>
<asrwt>0</asrwt>
<pdfrwt beam="1">  1        2 0.16225773E+00 0.16568344E+04</pdfrwt>
<pdfrwt beam="2">  1       -3 0.10010739E+00 0.16568344E+04</pdfrwt>
<totfact> 0.12272391E+01</totfact>
</mgrwt>
</event>
<event>
12    6  0.1402540E-007  0.3336446E+04  0.7818608E-02  0.8153683E-01
          4   -1    0    0  501    0  0.00000000000E+00  0.00000000000E+00  0.14980279372E+04  0.14980279372E+04  0.00000000000E+00 0. -1.
         -3   -1    0    0    0  501 -0.00000000000E+00 -0.00000000000E+00 -0.18577541033E+04  0.18577541033E+04  0.00000000000E+00 0.  1.
         24    2    1    2    0    0 -0.88642607214E+03  0.12660312262E+04 -0.16547290516E+03  0.15564448248E+04  0.80950375257E+02 0.  0.
        254    2    1    2    0    0  0.88642607214E+03 -0.12660312262E+04 -0.19425326097E+03  0.17993372157E+04  0.90071851275E+03 0.  0.
         23    2    4    4    0    0 -0.26714872206E+02 -0.67405088278E+03 -0.19266722432E+03  0.70730447946E+03  0.90003835261E+02 0.  0.
         23    2    4    4    0    0  0.91314094434E+03 -0.59198034341E+03 -0.15860366442E+01  0.10920327362E+04  0.90916831209E+02 0.  0.
          4    1    3    3  502    0 -0.40063746819E+03  0.55003505743E+03 -0.11120876690E+03  0.68950441271E+03  0.00000000000E+00 0. -1.
         -3    1    3    3    0  502 -0.48578860395E+03  0.71599616876E+03 -0.54264138258E+02  0.86694041208E+03  0.00000000000E+00 0.  1.
         11    1    5    5    0    0 -0.33757375212E+01 -0.48943520813E+03 -0.10055505332E+03  0.49966942803E+03  0.00000000000E+00 0. -1.
        -11    1    5    5    0    0 -0.23339134685E+02 -0.18461567465E+03 -0.92112171005E+02  0.20763505143E+03  0.00000000000E+00 0.  1.
          4    1    6    6  503    0  0.48062406318E+03 -0.33418429992E+03 -0.42025224291E+02  0.58689416072E+03  0.00000000000E+00 0. -1.
         -4    1    6    6    0  503  0.43251688117E+03 -0.25779604349E+03  0.40439187647E+02  0.50513857547E+03  0.00000000000E+00 0.  1.
<mgrwt>
<rscale>  0 0.33364457E+04</rscale>
<asrwt>0</asrwt>
<pdfrwt beam="1">  1        4 0.23046584E+00 0.33364457E+04</pdfrwt>
<pdfrwt beam="2">  1       -3 0.28580832E+00 0.33364457E+04</pdfrwt>
<totfact> 0.71975724E-03</totfact>
</mgrwt>
</event>
<event>
12    6  0.1402540E-007  0.1851758E+04  0.7818608E-02  0.8679249E-01
          2   -1    0    0  501    0  0.00000000000E+00  0.00000000000E+00  0.29149552915E+04  0.29149552915E+04  0.00000000000E+00 0. -1.
         -1   -1    0    0    0  501 -0.00000000000E+00 -0.00000000000E+00 -0.29408757743E+03  0.29408757743E+03  0.00000000000E+00 0.  1.
         24    2    1    2    0    0 -0.45874475781E+03 -0.53262236568E+03  0.92274057093E+03  0.11627058951E+04  0.79381987341E+02 0.  0.
        254    2    1    2    0    0  0.45874475781E+03  0.53262236568E+03  0.16981271431E+04  0.20463369739E+04  0.89984769775E+03 0.  0.
         23    2    4    4    0    0  0.12132958923E+03  0.51966738323E+03  0.32993798424E+03  0.63413781516E+03  0.92177202964E+02 0.  0.
         23    2    4    4    0    0  0.33741516858E+03  0.12954982443E+02  0.13681891589E+04  0.14121991587E+04  0.91367728495E+02 0.  0.
          4    1    3    3  502    0 -0.14757121420E+03 -0.17754576599E+03  0.36596305897E+03  0.43269934459E+03  0.00000000000E+00 0. -1.
         -3    1    3    3    0  502 -0.31117354362E+03 -0.35507659969E+03  0.55677751196E+03  0.73000655046E+03  0.00000000000E+00 0.  1.
         11    1    5    5    0    0  0.11395539745E+03  0.35085056343E+03  0.25972618721E+03  0.45115367979E+03  0.00000000000E+00 0. -1.
        -11    1    5    5    0    0  0.73741917873E+01  0.16881681980E+03  0.70211797028E+02  0.18298413536E+03  0.00000000000E+00 0.  1.
          2    1    6    6  503    0  0.26719368759E+03 -0.27216109294E+02  0.10248602690E+04  0.10594676749E+04  0.00000000000E+00 0. -1.
         -2    1    6    6    0  503  0.70221480986E+02  0.40171091737E+02  0.34332888990E+03  0.35273148377E+03  0.00000000000E+00 0.  1.
<mgrwt>
<rscale>  0 0.18517582E+04</rscale>
<asrwt>0</asrwt>
<pdfrwt beam="1">  1        2 0.44845464E+00 0.18517582E+04</pdfrwt>
<pdfrwt beam="2">  1       -1 0.45244245E-01 0.18517582E+04</pdfrwt>
<totfact> 0.10235533E+01</totfact>
</mgrwt>
</event>
<event>
12    6  0.1402540E-007  0.2117803E+04  0.7818608E-02  0.8553441E-01
          2   -1    0    0  501    0  0.00000000000E+00  0.00000000000E+00  0.98400583640E+03  0.98400583640E+03  0.00000000000E+00 0. -1.
         -1   -1    0    0    0  501 -0.00000000000E+00 -0.00000000000E+00 -0.11394973202E+04  0.11394973202E+04  0.00000000000E+00 0.  1.
         24    2    1    2    0    0  0.71619281730E+03 -0.45213063735E+03 -0.24301886691E+03  0.88480692863E+03  0.80441696249E+02 0.  0.
        254    2    1    2    0    0 -0.71619281730E+03  0.45213063735E+03  0.87527383078E+02  0.12386962280E+04  0.89964050470E+03 0.  0.
         23    2    4    4    0    0 -0.51640108963E+03  0.56921696036E+03 -0.25726910708E+03  0.81544009066E+03  0.89872769333E+02 0.  0.
         23    2    4    4    0    0 -0.19979172767E+03 -0.11708632301E+03  0.34479649015E+03  0.42325613734E+03  0.81456716713E+02 0.  0.
          2    1    3    3  502    0  0.26945675510E+03 -0.18170668154E+03 -0.54071635654E+02  0.32946623919E+03  0.00000000000E+00 0. -1.
         -1    1    3    3    0  502  0.44673606219E+03 -0.27042395581E+03 -0.18894723126E+03  0.55534068944E+03  0.00000000000E+00 0.  1.
         11    1    5    5    0    0 -0.51726017819E+03  0.55173974372E+03 -0.25105023552E+03  0.79686953606E+03  0.00000000000E+00 0.  1.
        -11    1    5    5    0    0  0.85908856692E+00  0.17477216641E+02 -0.62188715577E+01  0.18570554600E+02  0.00000000000E+00 0. -1.
          2    1    6    6  503    0 -0.15927241899E+02 -0.21242933468E+01  0.15328700200E+00  0.16069012218E+02  0.00000000000E+00 0. -1.
         -2    1    6    6    0  503 -0.18386448577E+03 -0.11496202966E+03  0.34464320315E+03  0.40718712513E+03  0.00000000000E+00 0.  1.
<mgrwt>
<rscale>  0 0.21178026E+04</rscale>
<asrwt>0</asrwt>
<pdfrwt beam="1">  1        2 0.15138551E+00 0.21178026E+04</pdfrwt>
<pdfrwt beam="2">  1       -1 0.17530728E+00 0.21178026E+04</pdfrwt>
<totfact> 0.60924392E+00</totfact>
</mgrwt>
</event>
<event>
12    6  0.1402540E-007  0.1476270E+04  0.7818608E-02  0.8900388E-01
          2   -1    0    0  501    0  0.00000000000E+00  0.00000000000E+00  0.24592193189E+04  0.24592193189E+04  0.00000000000E+00 0. -1.
         -1   -1    0    0    0  501 -0.00000000000E+00 -0.00000000000E+00 -0.22155144220E+03  0.22155144220E+03  0.00000000000E+00 0.  1.
         24    2    1    2    0    0 -0.32034389929E+03  0.31835228139E+03  0.55870664336E+03  0.72292651638E+03  0.80630303701E+02 0.  0.
        254    2    1    2    0    0  0.32034389929E+03 -0.31835228139E+03  0.16789612333E+04  0.19578442447E+04  0.90015269515E+03 0.  0.
         23    2    4    4    0    0 -0.21815677872E+03 -0.26035740378E+03  0.26222729655E+03  0.43843210257E+03  0.89895471002E+02 0.  0.
         23    2    4    4    0    0  0.53850067801E+03 -0.57994877610E+02  0.14167339368E+04  0.15194121421E+04  0.90176626509E+02 0.  0.
          2    1    3    3  502    0 -0.65950995452E+02  0.26366940927E+02  0.74991772867E+02  0.10328850552E+03  0.00000000000E+00 0. -1.
         -1    1    3    3    0  502 -0.25439290384E+03  0.29198534046E+03  0.48371487049E+03  0.61963801086E+03  0.00000000000E+00 0.  1.
         11    1    5    5    0    0 -0.23401032410E+02 -0.87882349207E+02  0.75619002891E+02  0.11827573385E+03  0.00000000000E+00 0. -1.
        -11    1    5    5    0    0 -0.19475574631E+03 -0.17247505457E+03  0.18660829366E+03  0.32015636872E+03  0.00000000000E+00 0.  1.
          2    1    6    6  503    0  0.22647956045E+01 -0.20562042244E+01  0.51289134300E+02  0.51380274154E+02  0.00000000000E+00 0. -1.
         -2    1    6    6    0  503  0.53623588241E+03 -0.55938673385E+02  0.13654448025E+04  0.14680318679E+04  0.00000000000E+00 0.  1.
<mgrwt>
<rscale>  0 0.14762704E+04</rscale>
<asrwt>0</asrwt>
<pdfrwt beam="1">  1        2 0.37834142E+00 0.14762704E+04</pdfrwt>
<pdfrwt beam="2">  1       -1 0.34084839E-01 0.14762704E+04</pdfrwt>
<totfact> 0.33057510E+01</totfact>
</mgrwt>
</event>
<event>
12    6  0.1402540E-007  0.1887689E+04  0.7818608E-02  0.8661009E-01
          2   -1    0    0  501    0  0.00000000000E+00  0.00000000000E+00  0.12138128187E+04  0.12138128187E+04  0.00000000000E+00 0. -1.
         -1   -1    0    0    0  501 -0.00000000000E+00 -0.00000000000E+00 -0.73392106407E+03  0.73392106407E+03  0.00000000000E+00 0.  1.
         24    2    1    2    0    0 -0.60222146334E+03  0.21220926326E+03 -0.17453417915E+03  0.66665819772E+03  0.79167610654E+02 0.  0.
        254    2    1    2    0    0  0.60222146334E+03 -0.21220926326E+03  0.65442593381E+03  0.12810756851E+04  0.89731719348E+03 0.  0.
         23    2    4    4    0    0 -0.81194939865E+02  0.22759529047E+03  0.28168972534E+03  0.38255698403E+03  0.92782057360E+02 0.  0.
         23    2    4    4    0    0  0.68341640321E+03 -0.43980455372E+03  0.37273620847E+03  0.89851870104E+03  0.88980612276E+02 0.  0.
          4    1    3    3  502    0 -0.49634143219E+03  0.17621390051E+03 -0.11178620946E+03  0.53842577266E+03  0.00000000000E+00 0. -1.
         -3    1    3    3    0  502 -0.10588003115E+03  0.35995362742E+02 -0.62747969698E+02  0.12823242506E+03  0.00000000000E+00 0.  1.
         11    1    5    5    0    0 -0.72151029674E+02  0.12630090390E+03  0.21959828355E+03  0.26340291484E+03  0.00000000000E+00 0. -1.
        -11    1    5    5    0    0 -0.90439101915E+01  0.10129438656E+03  0.62091441787E+02  0.11915406919E+03  0.00000000000E+00 0.  1.
          4    1    6    6  503    0  0.19762442045E+03 -0.13861845095E+03  0.68060723787E+02  0.25080420376E+03  0.00000000000E+00 0. -1.
         -4    1    6    6    0  503  0.48579198276E+03 -0.30118610277E+03  0.30467548468E+03  0.64771449728E+03  0.00000000000E+00 0.  1.
<mgrwt>
<rscale>  0 0.18876894E+04</rscale>
<asrwt>0</asrwt>
<pdfrwt beam="1">  1        2 0.18674043E+00 0.18876894E+04</pdfrwt>
<pdfrwt beam="2">  1       -1 0.11291093E+00 0.18876894E+04</pdfrwt>
<totfact> 0.14248847E+01</totfact>
</mgrwt>
</event>
<event>
12    6  0.1402540E-007  0.3852094E+04  0.7818608E-02  0.8035067E-01
          2   -1    0    0  501    0  0.00000000000E+00  0.00000000000E+00  0.23932125148E+04  0.23932125148E+04  0.00000000000E+00 0. -1.
         -1   -1    0    0    0  501 -0.00000000000E+00 -0.00000000000E+00 -0.15500743498E+04  0.15500743498E+04  0.00000000000E+00 0.  1.
         24    2    1    2    0    0 -0.17876549399E+04  0.17671163624E+03  0.71010187657E+03  0.19333072340E+04  0.80591559102E+02 0.  0.
        254    2    1    2    0    0  0.17876549399E+04 -0.17671163624E+03  0.13303628839E+03  0.20099796306E+04  0.89184206845E+03 0.  0.
         23    2    4    4    0    0  0.14997246455E+04 -0.41624025030E+03 -0.95854253736E+02  0.15620074783E+04  0.90826020648E+02 0.  0.
         23    2    4    4    0    0  0.28793029438E+03  0.23952861406E+03  0.22889054212E+03  0.44797215233E+03  0.89500601189E+02 0.  0.
          2    1    3    3  502    0 -0.11602417784E+04  0.13918486113E+03  0.49356470864E+03  0.12685186367E+04  0.00000000000E+00 0. -1.
         -1    1    3    3    0  502 -0.62741316148E+03  0.37526775112E+02  0.21653716794E+03  0.66478859733E+03  0.00000000000E+00 0.  1.
         11    1    5    5    0    0  0.53981167687E+03 -0.19076202519E+03 -0.54245523339E+02  0.57509075244E+03  0.00000000000E+00 0. -1.
        -11    1    5    5    0    0  0.95991296863E+03 -0.22547822511E+03 -0.41608730397E+02  0.98691672586E+03  0.00000000000E+00 0.  1.
          4    1    6    6  503    0  0.28324394015E+03  0.21343807261E+03  0.19430835198E+03  0.40439915445E+03  0.00000000000E+00 0. -1.
         -4    1    6    6    0  503  0.46863542326E+01  0.26090541449E+02  0.34582190142E+02  0.43572997878E+02  0.00000000000E+00 0.  1.
<mgrwt>
<rscale>  0 0.38520941E+04</rscale>
<asrwt>0</asrwt>
<pdfrwt beam="1">  1        2 0.36818654E+00 0.38520941E+04</pdfrwt>
<pdfrwt beam="2">  1       -1 0.23847297E+00 0.38520941E+04</pdfrwt>
<totfact> 0.30206662E-01</totfact>
</mgrwt>
</event>
<event>
12    6  0.1402540E-007  0.1664164E+04  0.7818608E-02  0.8782071E-01
         -1   -1    0    0    0  501 -0.00000000000E+00  0.00000000000E+00  0.28265822044E+03  0.28265822044E+03  0.00000000000E+00 0.  1.
          2   -1    0    0  501    0  0.00000000000E+00 -0.00000000000E+00 -0.24494619977E+04  0.24494619977E+04  0.00000000000E+00 0. -1.
         24    2    1    2    0    0  0.10816831287E+03 -0.29112105964E+03  0.46117048257E+02  0.32300328654E+03  0.75845142889E+02 0.  0.
        254    2    1    2    0    0 -0.10816831287E+03  0.29112105964E+03 -0.22129208255E+04  0.24091169316E+04  0.90020772873E+03 0.  0.
         23    2    4    4    0    0 -0.17666049069E+03  0.45963524486E+03 -0.21326417489E+04  0.21907303472E+04  0.93086722538E+02 0.  0.
         23    2    4    4    0    0  0.68492177817E+02 -0.16851418521E+03 -0.80279076691E+02  0.21838658443E+03  0.90331395778E+02 0.  0.
          2    1    3    3  502    0  0.79894262690E+02 -0.11707220381E+03  0.43935026187E+01  0.14180372697E+03  0.00000000000E+00 0. -1.
         -1    1    3    3    0  502  0.28274050180E+02 -0.17404885583E+03  0.41723545638E+02  0.18119955958E+03  0.00000000000E+00 0.  1.
         11    1    5    5    0    0 -0.22062532818E+01  0.21188641834E+01 -0.96227932633E+02  0.96276540017E+02  0.00000000000E+00 0.  1.
        -11    1    5    5    0    0 -0.17445423740E+03  0.45751638068E+03 -0.20364138162E+04  0.20944538072E+04  0.00000000000E+00 0. -1.
          1    1    6    6  503    0  0.69756010423E+02 -0.17880711816E+03 -0.80204769371E+02  0.20801608477E+03  0.00000000000E+00 0. -1.
         -1    1    6    6    0  503 -0.12638326063E+01  0.10292932946E+02 -0.74307319437E-01  0.10370499654E+02  0.00000000000E+00 0.  1.
<mgrwt>
<rscale>  0 0.16641641E+04</rscale>
<asrwt>0</asrwt>
<pdfrwt beam="1">  1        2 0.37684031E+00 0.16641641E+04</pdfrwt>
<pdfrwt beam="2">  1       -1 0.43485880E-01 0.16641641E+04</pdfrwt>
<totfact> 0.21153827E+01</totfact>
</mgrwt>
</event>
<event>
12    6  0.1402540E-007  0.2056460E+04  0.7818608E-02  0.8580669E-01
          2   -1    0    0  501    0  0.00000000000E+00  0.00000000000E+00  0.22062296278E+04  0.22062296278E+04  0.00000000000E+00 0. -1.
         -1   -1    0    0    0  501 -0.00000000000E+00 -0.00000000000E+00 -0.47921454322E+03  0.47921454322E+03  0.00000000000E+00 0.  1.
         24    2    1    2    0    0 -0.53118711377E+03 -0.62528397000E+03  0.54279244797E+03  0.98610452855E+03  0.68108051498E+02 0.  0.
        254    2    1    2    0    0  0.53118711377E+03  0.62528397000E+03  0.11842226366E+04  0.16993396425E+04  0.90123924372E+03 0.  0.
         23    2    4    4    0    0 -0.17866258433E+03  0.42883079728E+03  0.40485948137E+03  0.62310392361E+03  0.92364106795E+02 0.  0.
         23    2    4    4    0    0  0.70984969810E+03  0.19645317272E+03  0.77936315523E+03  0.10762357189E+04  0.91629426732E+02 0.  0.
          4    1    3    3  502    0 -0.33668625919E+03 -0.34502624373E+03  0.32350435071E+03  0.58056507896E+03  0.00000000000E+00 0. -1.
         -3    1    3    3    0  502 -0.19450085458E+03 -0.28025772627E+03  0.21928809726E+03  0.40553944958E+03  0.00000000000E+00 0.  1.
         11    1    5    5    0    0 -0.11142825109E+03  0.33933580581E+03  0.26935367860E+03  0.44734376985E+03  0.00000000000E+00 0. -1.
        -11    1    5    5    0    0 -0.67234333241E+02  0.89494991463E+02  0.13550580277E+03  0.17576015376E+03  0.00000000000E+00 0.  1.
          3    1    6    6  503    0  0.53959862359E+03  0.10783690449E+03  0.57550188207E+03  0.79623984378E+03  0.00000000000E+00 0. -1.
         -3    1    6    6    0  503  0.17025107451E+03  0.88616268226E+02  0.20386127315E+03  0.27999587507E+03  0.00000000000E+00 0.  1.
<mgrwt>
<rscale>  0 0.20564604E+04</rscale>
<asrwt>0</asrwt>
<pdfrwt beam="1">  1        2 0.33941994E+00 0.20564604E+04</pdfrwt>
<pdfrwt beam="2">  1       -1 0.73725316E-01 0.20564604E+04</pdfrwt>
<totfact> 0.99930801E+00</totfact>
</mgrwt>
</event>
<event>
12    6  0.1402540E-007  0.5255785E+04  0.7818608E-02  0.7790217E-01
         -1   -1    0    0    0  501 -0.00000000000E+00  0.00000000000E+00  0.17798873592E+04  0.17798873592E+04  0.00000000000E+00 0.  1.
          2   -1    0    0  501    0  0.00000000000E+00 -0.00000000000E+00 -0.38799187989E+04  0.38799187989E+04  0.00000000000E+00 0. -1.
         24    2    1    2    0    0 -0.71130702742E+03  0.16461992856E+04 -0.29729287241E+04  0.34728407286E+04  0.79923415234E+02 0.  0.
        254    2    1    2    0    0  0.71130702742E+03 -0.16461992856E+04  0.87289728444E+03  0.21869654295E+04  0.89718356282E+03 0.  0.
         23    2    4    4    0    0 -0.13887461107E+03 -0.48805179788E+03  0.45471662717E+03  0.68770837344E+03  0.93246344978E+02 0.  0.
         23    2    4    4    0    0  0.85018163849E+03 -0.11581474878E+04  0.41818065727E+03  0.14992570561E+04  0.93713586244E+02 0.  0.
          4    1    3    3  502    0 -0.41524181595E+03  0.90716161610E+03 -0.15884778371E+04  0.18758011095E+04  0.00000000000E+00 0. -1.
         -3    1    3    3    0  502 -0.29606521147E+03  0.73903766954E+03 -0.13844508870E+04  0.15970396191E+04  0.00000000000E+00 0.  1.
         11    1    5    5    0    0 -0.95676398125E+02 -0.26847482715E+03  0.31050498219E+03  0.42148078240E+03  0.00000000000E+00 0.  1.
        -11    1    5    5    0    0 -0.43198212948E+02 -0.21957697074E+03  0.14421164498E+03  0.26622759103E+03  0.00000000000E+00 0. -1.
          3    1    6    6  503    0  0.15252257180E+03 -0.22679815856E+03  0.43532001893E+02  0.27675905554E+03  0.00000000000E+00 0. -1.
         -3    1    6    6    0  503  0.69765906669E+03 -0.93134932919E+03  0.37464865538E+03  0.12224980005E+04  0.00000000000E+00 0.  1.
<mgrwt>
<rscale>  0 0.52557848E+04</rscale>
<asrwt>0</asrwt>
<pdfrwt beam="1">  1        2 0.59691058E+00 0.52557848E+04</pdfrwt>
<pdfrwt beam="2">  1       -1 0.27382883E+00 0.52557848E+04</pdfrwt>
<totfact> 0.16779079E-02</totfact>
</mgrwt>
</event>
<event>
12    6  0.1402540E-007  0.1077962E+04  0.7818608E-02  0.9226941E-01
          2   -1    0    0  501    0  0.00000000000E+00  0.00000000000E+00  0.17374303928E+04  0.17374303928E+04  0.00000000000E+00 0. -1.
         -1   -1    0    0    0  501 -0.00000000000E+00 -0.00000000000E+00 -0.16720135290E+03  0.16720135290E+03  0.00000000000E+00 0.  1.
         24    2    1    2    0    0  0.13670413997E+03 -0.49722343828E+02  0.23318142293E+03  0.28664348860E+03  0.81428374665E+02 0.  0.
        254    2    1    2    0    0 -0.13670413997E+03  0.49722343828E+02  0.13370476170E+04  0.16179882571E+04  0.89946058097E+03 0.  0.
         23    2    4    4    0    0 -0.27667760584E+03 -0.36229179388E+03  0.73859015932E+03  0.87260399302E+03  0.90091418565E+02 0.  0.
         23    2    4    4    0    0  0.13997346587E+03  0.41201413771E+03  0.59845745767E+03  0.74538426410E+03  0.89989731132E+02 0.  0.
          2    1    3    3  502    0  0.11454364966E+03 -0.40426098360E+02  0.23282877930E+03  0.26260951540E+03  0.00000000000E+00 0. -1.
         -1    1    3    3    0  502  0.22160490304E+02 -0.92962454681E+01  0.35264362101E+00  0.24033973201E+02  0.00000000000E+00 0.  1.
         11    1    5    5    0    0 -0.14920973496E+03 -0.16463076324E+03  0.43606863527E+03  0.48941055146E+03  0.00000000000E+00 0. -1.
        -11    1    5    5    0    0 -0.12746787088E+03 -0.19766103064E+03  0.30252152405E+03  0.38319344156E+03  0.00000000000E+00 0.  1.
          3    1    6    6  503    0  0.70629263635E+02  0.23826784407E+03  0.41272166305E+03  0.48176677921E+03  0.00000000000E+00 0.  1.
         -3    1    6    6    0  503  0.69344202238E+02  0.17374629364E+03  0.18573579462E+03  0.26361748489E+03  0.00000000000E+00 0. -1.
<mgrwt>
<rscale>  0 0.10779624E+04</rscale>
<asrwt>0</asrwt>
<pdfrwt beam="1">  1        2 0.26729697E+00 0.10779624E+04</pdfrwt>
<pdfrwt beam="2">  1       -1 0.25723286E-01 0.10779624E+04</pdfrwt>
<totfact> 0.14123046E+02</totfact>
</mgrwt>
</event>
<event>
12    6  0.1402540E-007  0.2380921E+04  0.7818608E-02  0.8446681E-01
         -1   -1    0    0    0  501 -0.00000000000E+00  0.00000000000E+00  0.11615061256E+04  0.11615061256E+04  0.00000000000E+00 0.  1.
          2   -1    0    0  501    0  0.00000000000E+00 -0.00000000000E+00 -0.12201363875E+04  0.12201363875E+04  0.00000000000E+00 0. -1.
         24    2    1    2    0    0 -0.65577437013E+03  0.16784823353E+03  0.73631655987E+03  0.10033782629E+04  0.79955037697E+02 0.  0.
        254    2    1    2    0    0  0.65577437013E+03 -0.16784823353E+03 -0.79494682180E+03  0.13782642502E+04  0.89969930524E+03 0.  0.
         23    2    4    4    0    0 -0.35977138049E+02 -0.21053694494E+03 -0.61430536354E+03  0.65628728864E+03  0.87873579134E+02 0.  0.
         23    2    4    4    0    0  0.69175150818E+03  0.42688711417E+02 -0.18064145826E+03  0.72197696155E+03  0.90977587443E+02 0.  0.
          4    1    3    3  502    0 -0.40366345138E+03  0.13417726626E+03  0.42412907731E+03  0.60069392787E+03  0.00000000000E+00 0. -1.
         -3    1    3    3    0  502 -0.25211091874E+03  0.33670967262E+02  0.31218748256E+03  0.40268433500E+03  0.00000000000E+00 0.  1.
         11    1    5    5    0    0  0.25064259037E+02 -0.56373789890E+02 -0.22124616717E+03  0.22968693423E+03  0.00000000000E+00 0.  1.
        -11    1    5    5    0    0 -0.61041397086E+02 -0.15416315505E+03 -0.39305919637E+03  0.42660035441E+03  0.00000000000E+00 0. -1.
          2    1    6    6  503    0  0.12844025251E+03  0.32781633871E+01 -0.70823973206E+02  0.14670950890E+03  0.00000000000E+00 0.  1.
         -2    1    6    6    0  503  0.56331125567E+03  0.39410548030E+02 -0.10981748506E+03  0.57526745265E+03  0.00000000000E+00 0. -1.
<mgrwt>
<rscale>  0 0.23809207E+04</rscale>
<asrwt>0</asrwt>
<pdfrwt beam="1">  1        2 0.18771329E+00 0.23809207E+04</pdfrwt>
<pdfrwt beam="2">  1       -1 0.17869325E+00 0.23809207E+04</pdfrwt>
<totfact> 0.40221876E+00</totfact>
</mgrwt>
</event>
<event>
12    6  0.1402540E-007  0.1351732E+04  0.7818608E-02  0.8989518E-01
          2   -1    0    0  501    0  0.00000000000E+00  0.00000000000E+00  0.37264487521E+04  0.37264487521E+04  0.00000000000E+00 0. -1.
         -1   -1    0    0    0  501 -0.00000000000E+00 -0.00000000000E+00 -0.12258182799E+03  0.12258182799E+03  0.00000000000E+00 0.  1.
         24    2    1    2    0    0  0.20107007810E+03  0.22066354232E+03  0.38376819550E+03  0.49234132166E+03  0.77462080523E+02 0.  0.
        254    2    1    2    0    0 -0.20107007810E+03 -0.22066354232E+03  0.32200987286E+04  0.33566892584E+04  0.89955843640E+03 0.  0.
         23    2    4    4    0    0  0.28118213013E+03 -0.32722131420E+03  0.16622390531E+04  0.17198526228E+04  0.93365922861E+02 0.  0.
         23    2    4    4    0    0 -0.48225220823E+03  0.10655777188E+03  0.15578596755E+04  0.16368366356E+04  0.91573207165E+02 0.  0.
          2    1    3    3  502    0  0.14441182441E+03  0.13814210991E+03  0.19800772271E+03  0.28132734637E+03  0.00000000000E+00 0. -1.
         -1    1    3    3    0  502  0.56658253691E+02  0.82521432408E+02  0.18576047279E+03  0.21101397530E+03  0.00000000000E+00 0.  1.
         11    1    5    5    0    0  0.13845230447E+03 -0.21617587926E+03  0.86076829803E+03  0.89823332953E+03  0.00000000000E+00 0. -1.
        -11    1    5    5    0    0  0.14272982565E+03 -0.11104543494E+03  0.80147075512E+03  0.82161929326E+03  0.00000000000E+00 0.  1.
          3    1    6    6  503    0 -0.36768432883E+03  0.11178693739E+03  0.12734466437E+04  0.13301708309E+04  0.00000000000E+00 0. -1.
         -3    1    6    6    0  503 -0.11456787940E+03 -0.52291655071E+01  0.28441303179E+03  0.30666580477E+03  0.00000000000E+00 0.  1.
<mgrwt>
<rscale>  0 0.13517321E+04</rscale>
<asrwt>0</asrwt>
<pdfrwt beam="1">  1        2 0.57329972E+00 0.13517321E+04</pdfrwt>
<pdfrwt beam="2">  1       -1 0.18858746E-01 0.13517321E+04</pdfrwt>
<totfact> 0.14340657E+01</totfact>
</mgrwt>
</event>
<event>
12    6  0.1402540E-007  0.1529071E+04  0.7818608E-02  0.8865348E-01
          2   -1    0    0  501    0  0.00000000000E+00  0.00000000000E+00  0.18735218862E+04  0.18735218862E+04  0.00000000000E+00 0. -1.
         -1   -1    0    0    0  501 -0.00000000000E+00 -0.00000000000E+00 -0.31198691480E+03  0.31198691480E+03  0.00000000000E+00 0.  1.
         24    2    1    2    0    0 -0.45449860078E+02  0.44938922747E+03  0.22243294788E+03  0.50990066648E+03  0.80659195550E+02 0.  0.
        254    2    1    2    0    0  0.45449860078E+02 -0.44938922747E+03  0.13391020235E+04  0.16756081345E+04  0.90025108916E+03 0.  0.
         23    2    4    4    0    0 -0.32414684959E+02 -0.68049960513E+03  0.11905799113E+04  0.13747838649E+04  0.91759063188E+02 0.  0.
         23    2    4    4    0    0  0.77864545037E+02  0.23111037767E+03  0.14852211228E+03  0.30082426965E+03  0.94665354455E+02 0.  0.
          4    1    3    3  502    0 -0.29787896413E+01  0.34859784391E+03  0.15592252117E+03  0.38189155865E+03  0.00000000000E+00 0. -1.
         -3    1    3    3    0  502 -0.42471070437E+02  0.10079138356E+03  0.66510426716E+02  0.12800910782E+03  0.00000000000E+00 0.  1.
         11    1    5    5    0    0  0.16142209097E+02 -0.32320353923E+03  0.62994501406E+03  0.70820323314E+03  0.00000000000E+00 0. -1.
        -11    1    5    5    0    0 -0.48556894056E+02 -0.35729606590E+03  0.56063489720E+03  0.66658063175E+03  0.00000000000E+00 0.  1.
          3    1    6    6  503    0 -0.12990574300E+02  0.29439441394E+02  0.48178270039E+02  0.57936011548E+02  0.00000000000E+00 0.  1.
         -3    1    6    6    0  503  0.90855119337E+02  0.20167093627E+03  0.10034384224E+03  0.24288825810E+03  0.00000000000E+00 0. -1.
<mgrwt>
<rscale>  0 0.15290707E+04</rscale>
<asrwt>0</asrwt>
<pdfrwt beam="1">  1        2 0.28823413E+00 0.15290707E+04</pdfrwt>
<pdfrwt beam="2">  1       -1 0.47997988E-01 0.15290707E+04</pdfrwt>
<totfact> 0.37423342E+01</totfact>
</mgrwt>
</event>
<event>
12    6  0.1402540E-007  0.2363950E+04  0.7818608E-02  0.8453125E-01
         -1   -1    0    0    0  501 -0.00000000000E+00  0.00000000000E+00  0.80423321859E+03  0.80423321859E+03  0.00000000000E+00 0.  1.
          2   -1    0    0  501    0  0.00000000000E+00 -0.00000000000E+00 -0.17371388565E+04  0.17371388565E+04  0.00000000000E+00 0. -1.
         24    2    1    2    0    0 -0.87845644120E+03  0.50233329090E+03 -0.37027673685E+03  0.10805310594E+04  0.80112759400E+02 0.  0.
        254    2    1    2    0    0  0.87845644120E+03 -0.50233329090E+03 -0.56262890109E+03  0.14608410157E+04  0.89077535817E+03 0.  0.
         23    2    4    4    0    0  0.10265298345E+03 -0.23197383957E+03 -0.57397548661E+03  0.63412123518E+03  0.91172278788E+02 0.  0.
         23    2    4    4    0    0  0.77580345774E+03 -0.27035945132E+03  0.11346585515E+02  0.82671978057E+03  0.91496516970E+02 0.  0.
          2    1    3    3  502    0 -0.15753786115E+03  0.59963657682E+02 -0.76875047682E+02  0.18526627026E+03  0.00000000000E+00 0. -1.
         -1    1    3    3    0  502 -0.72091858005E+03  0.44236963321E+03 -0.29340168917E+03  0.89526478913E+03  0.00000000000E+00 0.  1.
         11    1    5    5    0    0 -0.71649533760E+00 -0.68375550622E+02 -0.91071199860E+02  0.11388455880E+03  0.00000000000E+00 0. -1.
        -11    1    5    5    0    0  0.10336947879E+03 -0.16359828895E+03 -0.48290428675E+03  0.52023667638E+03  0.00000000000E+00 0.  1.
          2    1    6    6  503    0  0.33914124069E+03 -0.11037910326E+03 -0.39820157478E+02  0.35886762534E+03  0.00000000000E+00 0. -1.
         -2    1    6    6    0  503  0.43666221705E+03 -0.15998034806E+03  0.51166742994E+02  0.46785215523E+03  0.00000000000E+00 0.  1.
<mgrwt>
<rscale>  0 0.23639499E+04</rscale>
<asrwt>0</asrwt>
<pdfrwt beam="1">  1        2 0.26725213E+00 0.23639499E+04</pdfrwt>
<pdfrwt beam="2">  1       -1 0.12372819E+00 0.23639499E+04</pdfrwt>
<totfact> 0.55121225E+00</totfact>
</mgrwt>
</event>
<event>
12    6  0.1402540E-007  0.2133410E+04  0.7818608E-02  0.8546667E-01
          2   -1    0    0  501    0  0.00000000000E+00  0.00000000000E+00  0.20126314485E+04  0.20126314485E+04  0.00000000000E+00 0. -1.
         -1   -1    0    0    0  501 -0.00000000000E+00 -0.00000000000E+00 -0.56535912493E+03  0.56535912493E+03  0.00000000000E+00 0.  1.
         24    2    1    2    0    0  0.64996780919E+03  0.19412058357E+03 -0.73101091289E+02  0.68694147043E+03  0.80024123287E+02 0.  0.
        254    2    1    2    0    0 -0.64996780919E+03 -0.19412058357E+03  0.15203734148E+04  0.18910491030E+04  0.89687816083E+03 0.  0.
         23    2    4    4    0    0 -0.82111583848E+02 -0.28056134509E+03  0.11748626558E+04  0.12145671395E+04  0.97026262884E+02 0.  0.
         23    2    4    4    0    0 -0.56785622534E+03  0.86440761520E+02  0.34551075903E+03  0.67648196351E+03  0.91200134025E+02 0.  0.
          4    1    3    3  502    0  0.22594674779E+03  0.34823681091E+02 -0.32987251606E+01  0.22863836772E+03  0.00000000000E+00 0. -1.
         -3    1    3    3    0  502  0.42402106139E+03  0.15929690248E+03 -0.69802366129E+02  0.45830310272E+03  0.00000000000E+00 0.  1.
         11    1    5    5    0    0 -0.34801450471E+02 -0.20152282971E+03  0.64151555866E+03  0.67332369917E+03  0.00000000000E+00 0. -1.
        -11    1    5    5    0    0 -0.47310133377E+02 -0.79038515381E+02  0.53334709713E+03  0.54124344029E+03  0.00000000000E+00 0.  1.
          3    1    6    6  503    0 -0.46986062400E+03  0.99118911055E+02  0.30956130456E+03  0.57133332285E+03  0.00000000000E+00 0. -1.
         -3    1    6    6    0  503 -0.97995601336E+02 -0.12678149535E+02  0.35949454466E+02  0.10514864066E+03  0.00000000000E+00 0.  1.
<mgrwt>
<rscale>  0 0.21334100E+04</rscale>
<asrwt>0</asrwt>
<pdfrwt beam="1">  1        2 0.30963560E+00 0.21334100E+04</pdfrwt>
<pdfrwt beam="2">  1       -1 0.86978328E-01 0.21334100E+04</pdfrwt>
<totfact> 0.89547885E+00</totfact>
</mgrwt>
</event>
<event>
12    6  0.1402540E-007  0.1731542E+04  0.7818608E-02  0.8743576E-01
         -1   -1    0    0    0  501 -0.00000000000E+00  0.00000000000E+00  0.85960861009E+03  0.85960861009E+03  0.00000000000E+00 0.  1.
          2   -1    0    0  501    0  0.00000000000E+00 -0.00000000000E+00 -0.87197760716E+03  0.87197760716E+03  0.00000000000E+00 0. -1.
         24    2    1    2    0    0 -0.37642936558E+03 -0.13991278762E+03 -0.48798245770E+03  0.63694928672E+03  0.79390549939E+02 0.  0.
        254    2    1    2    0    0  0.37642936558E+03  0.13991278762E+03  0.47561346063E+03  0.10946369305E+04  0.90041501005E+03 0.  0.
         23    2    4    4    0    0  0.31990383411E+03  0.51831949294E+02  0.73064889461E+03  0.80461391518E+03  0.92361957839E+02 0.  0.
         23    2    4    4    0    0  0.56525531474E+02  0.88080838325E+02 -0.25503543398E+03  0.29002301535E+03  0.90093879131E+02 0.  0.
          2    1    3    3  502    0 -0.32728292837E+03 -0.12124022144E+03 -0.45991602811E+03  0.57735263004E+03  0.00000000000E+00 0. -1.
         -1    1    3    3    0  502 -0.49146437206E+02 -0.18672566176E+02 -0.28066429592E+02  0.59596656683E+02  0.00000000000E+00 0.  1.
         11    1    5    5    0    0  0.23437814142E+03  0.76586392624E+02  0.50337597939E+03  0.56052293917E+03  0.00000000000E+00 0.  1.
        -11    1    5    5    0    0  0.85525692688E+02 -0.24754443330E+02  0.22727291522E+03  0.24409097600E+03  0.00000000000E+00 0. -1.
          1    1    6    6  503    0  0.39584260806E+02  0.10616937294E+03 -0.20847587325E+03  0.23727840016E+03  0.00000000000E+00 0. -1.
         -1    1    6    6    0  503  0.16941270668E+02 -0.18088534611E+02 -0.46559560729E+02  0.52744615190E+02  0.00000000000E+00 0.  1.
<mgrwt>
<rscale>  0 0.17315420E+04</rscale>
<asrwt>0</asrwt>
<pdfrwt beam="1">  1        2 0.13415040E+00 0.17315420E+04</pdfrwt>
<pdfrwt beam="2">  1       -1 0.13224748E+00 0.17315420E+04</pdfrwt>
<totfact> 0.16121376E+01</totfact>
</mgrwt>
</event>
<event>
12    6  0.1402540E-007  0.1281958E+04  0.7818608E-02  0.9043997E-01
          2   -1    0    0  501    0  0.00000000000E+00  0.00000000000E+00  0.15169947275E+04  0.15169947275E+04  0.00000000000E+00 0. -1.
         -1   -1    0    0    0  501 -0.00000000000E+00 -0.00000000000E+00 -0.27083402815E+03  0.27083402815E+03  0.00000000000E+00 0.  1.
         24    2    1    2    0    0 -0.99306132681E+02  0.30046308499E+03  0.28317325753E+03  0.43284699733E+03  0.83843043210E+02 0.  0.
        254    2    1    2    0    0  0.99306132681E+02 -0.30046308499E+03  0.96298744180E+03  0.13549817583E+04  0.89916126408E+03 0.  0.
         23    2    4    4    0    0 -0.23407880991E+03 -0.10438319487E+03 -0.41553539865E+02  0.27481817291E+03  0.90053266829E+02 0.  0.
         23    2    4    4    0    0  0.33338494259E+03 -0.19607989011E+03  0.10045409817E+04  0.10801635854E+04  0.89766052012E+02 0.  0.
          2    1    3    3  502    0 -0.57499599739E+02  0.14050874594E+03  0.18953911263E+03  0.24284560295E+03  0.00000000000E+00 0. -1.
         -1    1    3    3    0  502 -0.41806532942E+02  0.15995433905E+03  0.93634144895E+02  0.19000139438E+03  0.00000000000E+00 0.  1.
         11    1    5    5    0    0 -0.97095336228E+02 -0.88797888581E+02 -0.37802354829E+02  0.13689991733E+03  0.00000000000E+00 0. -1.
        -11    1    5    5    0    0 -0.13698347368E+03 -0.15585306291E+02 -0.37511850364E+01  0.13791825558E+03  0.00000000000E+00 0.  1.
          3    1    6    6  503    0  0.78754224144E+02 -0.72291468821E+02  0.37391912750E+03  0.38890075623E+03  0.00000000000E+00 0. -1.
         -3    1    6    6    0  503  0.25463071845E+03 -0.12378842129E+03  0.63062185417E+03  0.69126282916E+03  0.00000000000E+00 0.  1.
<mgrwt>
<rscale>  0 0.12819576E+04</rscale>
<asrwt>0</asrwt>
<pdfrwt beam="1">  1        2 0.23338380E+00 0.12819576E+04</pdfrwt>
<pdfrwt beam="2">  1       -1 0.41666774E-01 0.12819576E+04</pdfrwt>
<totfact> 0.78424428E+01</totfact>
</mgrwt>
</event>
<event>
12    6  0.1402540E-007  0.1075214E+04  0.7818608E-02  0.9229693E-01
          2   -1    0    0  501    0  0.00000000000E+00  0.00000000000E+00  0.85025609228E+03  0.85025609228E+03  0.00000000000E+00 0. -1.
         -3   -1    0    0    0  501 -0.00000000000E+00 -0.00000000000E+00 -0.33992252603E+03  0.33992252603E+03  0.00000000000E+00 0.  1.
         24    2    1    2    0    0 -0.12151998784E+03  0.18827331608E+02 -0.52890987544E+01  0.14570417748E+03  0.77975360905E+02 0.  0.
        254    2    1    2    0    0  0.12151998784E+03 -0.18827331608E+02  0.51562266500E+03  0.10444744408E+04  0.89996585992E+03 0.  0.
         23    2    4    4    0    0  0.32682939668E+03  0.18379790328E+03 -0.64600982493E+02  0.39008517091E+03  0.85988544796E+02 0.  0.
         23    2    4    4    0    0 -0.20530940884E+03 -0.20262523489E+03  0.58022364750E+03  0.65438926992E+03  0.91416061520E+02 0.  0.
          4    1    3    3  502    0 -0.94381766642E+02  0.27630280800E+02  0.27621751223E+02  0.10214847739E+03  0.00000000000E+00 0. -1.
         -3    1    3    3    0  502 -0.27138221202E+02 -0.88029491918E+01 -0.32910849977E+02  0.43555700094E+02  0.00000000000E+00 0.  1.
         11    1    5    5    0    0  0.18900959661E+03  0.15224650837E+03 -0.30177317767E+02  0.24456961674E+03  0.00000000000E+00 0. -1.
        -11    1    5    5    0    0  0.13781980007E+03  0.31551394906E+02 -0.34423664726E+02  0.14551555417E+03  0.00000000000E+00 0.  1.
          2    1    6    6  503    0 -0.16353644010E+03 -0.16698853312E+03  0.53289201903E+03  0.58189624624E+03  0.00000000000E+00 0. -1.
         -2    1    6    6    0  503 -0.41772968739E+02 -0.35636701769E+02  0.47331628464E+02  0.72493023688E+02  0.00000000000E+00 0.  1.
<mgrwt>
<rscale>  0 0.10752138E+04</rscale>
<asrwt>0</asrwt>
<pdfrwt beam="1">  1        2 0.13080863E+00 0.10752138E+04</pdfrwt>
<pdfrwt beam="2">  1       -3 0.52295773E-01 0.10752138E+04</pdfrwt>
<totfact> 0.72585337E+01</totfact>
</mgrwt>
</event>
<event>
12    6  0.1402540E-007  0.3973359E+04  0.7818608E-02  0.8009943E-01
         -1   -1    0    0    0  501 -0.00000000000E+00  0.00000000000E+00  0.19439459594E+04  0.19439459594E+04  0.00000000000E+00 0.  1.
          2   -1    0    0  501    0  0.00000000000E+00 -0.00000000000E+00 -0.20303522504E+04  0.20303522504E+04  0.00000000000E+00 0. -1.
         24    2    1    2    0    0 -0.17231877332E+04  0.64396771551E+03 -0.44392439884E+03  0.18940705457E+04  0.79774543228E+02 0.  0.
        254    2    1    2    0    0  0.17231877332E+04 -0.64396771551E+03  0.35751810784E+03  0.20802276642E+04  0.90302688498E+03 0.  0.
         23    2    4    4    0    0  0.10274528174E+04 -0.22493319613E+03 -0.22063532640E+03  0.10791210063E+04  0.97815971749E+02 0.  0.
         23    2    4    4    0    0  0.69573491580E+03 -0.41903451938E+03  0.57815343424E+03  0.10011066579E+04  0.91192902270E+02 0.  0.
          2    1    3    3  502    0 -0.13329079799E+04  0.47928447043E+03 -0.37096687184E+03  0.14642314388E+04  0.00000000000E+00 0. -1.
         -1    1    3    3    0  502 -0.39027975328E+03  0.16468324508E+03 -0.72957527003E+02  0.42983910685E+03  0.00000000000E+00 0.  1.
         11    1    5    5    0    0  0.56895601006E+03 -0.74754929149E+02 -0.11714570026E+03  0.58568110428E+03  0.00000000000E+00 0. -1.
        -11    1    5    5    0    0  0.45849680730E+03 -0.15017826698E+03 -0.10348962615E+03  0.49343990201E+03  0.00000000000E+00 0.  1.
          4    1    6    6  503    0  0.81452755481E+02 -0.74063738860E+02  0.51747116805E+02  0.12164601468E+03  0.00000000000E+00 0. -1.
         -4    1    6    6    0  503  0.61428216032E+03 -0.34497078052E+03  0.52640631744E+03  0.87946064320E+03  0.00000000000E+00 0.  1.
<mgrwt>
<rscale>  0 0.39733588E+04</rscale>
<asrwt>0</asrwt>
<pdfrwt beam="1">  1        2 0.31236188E+00 0.39733588E+04</pdfrwt>
<pdfrwt beam="2">  1       -1 0.29906861E+00 0.39733588E+04</pdfrwt>
<totfact> 0.19354264E-01</totfact>
</mgrwt>
</event>
<event>
12    6  0.1402540E-007  0.1736618E+04  0.7818608E-02  0.8740751E-01
         -1   -1    0    0    0  501 -0.00000000000E+00  0.00000000000E+00  0.13961505256E+04  0.13961505256E+04  0.00000000000E+00 0.  1.
          2   -1    0    0  501    0  0.00000000000E+00 -0.00000000000E+00 -0.54002834698E+03  0.54002834698E+03  0.00000000000E+00 0. -1.
         24    2    1    2    0    0 -0.55286411918E+03  0.24223383257E+03  0.10649518340E+03  0.61831801361E+03  0.81486059901E+02 0.  0.
        254    2    1    2    0    0  0.55286411918E+03 -0.24223383257E+03  0.74962699520E+03  0.13178608590E+04  0.90026698690E+03 0.  0.
         23    2    4    4    0    0  0.31460862449E+03 -0.44132108389E+03  0.81893339829E+03  0.98625482338E+03  0.91125079431E+02 0.  0.
         23    2    4    4    0    0  0.23825549468E+03  0.19908725132E+03 -0.69306403091E+02  0.33160603557E+03  0.93582962843E+02 0.  0.
          2    1    3    3  502    0 -0.42051669085E+03  0.16400648904E+03  0.48340274414E+02  0.45394845287E+03  0.00000000000E+00 0. -1.
         -1    1    3    3    0  502 -0.13234742832E+03  0.78227343535E+02  0.58154908987E+02  0.16436956074E+03  0.00000000000E+00 0.  1.
         11    1    5    5    0    0  0.15277565866E+02 -0.24664705641E+02  0.15233561530E+02  0.32769087873E+02  0.00000000000E+00 0.  1.
        -11    1    5    5    0    0  0.29933105863E+03 -0.41665637825E+03  0.80369983676E+03  0.95348573551E+03  0.00000000000E+00 0. -1.
          1    1    6    6  503    0  0.21024895747E+03  0.12560097495E+03 -0.61938059066E+02  0.25261938205E+03  0.00000000000E+00 0. -1.
         -1    1    6    6    0  503  0.28006537214E+02  0.73486276372E+02 -0.73683440247E+01  0.78986653527E+02  0.00000000000E+00 0.  1.
<mgrwt>
<rscale>  0 0.17366184E+04</rscale>
<asrwt>0</asrwt>
<pdfrwt beam="1">  1        2 0.83081285E-01 0.17366184E+04</pdfrwt>
<pdfrwt beam="2">  1       -1 0.21479239E+00 0.17366184E+04</pdfrwt>
<totfact> 0.72753310E+00</totfact>
</mgrwt>
</event>
<event>
12    6  0.1402540E-007  0.1604495E+04  0.7818608E-02  0.8817791E-01
         -1   -1    0    0    0  501 -0.00000000000E+00  0.00000000000E+00  0.47875890744E+03  0.47875890744E+03  0.00000000000E+00 0.  1.
          2   -1    0    0  501    0  0.00000000000E+00 -0.00000000000E+00 -0.13443116859E+04  0.13443116859E+04  0.00000000000E+00 0. -1.
         24    2    1    2    0    0  0.68012213858E+02 -0.53057755373E+03 -0.41632506629E+03  0.68273605965E+03  0.81631884523E+02 0.  0.
        254    2    1    2    0    0 -0.68012213858E+02  0.53057755373E+03 -0.44922771221E+03  0.11403345337E+04  0.90134294787E+03 0.  0.
         23    2    4    4    0    0  0.48788923485E+02  0.15173710480E+03 -0.65754783624E+03  0.68319203556E+03  0.94750685891E+02 0.  0.
         23    2    4    4    0    0 -0.11680113734E+03  0.37884044893E+03  0.20832012403E+03  0.45714249818E+03  0.91757278425E+02 0.  0.
          2    1    3    3  502    0 -0.94308781833E+01 -0.81300323664E+01 -0.14420610307E+02  0.19052372325E+02  0.00000000000E+00 0. -1.
         -1    1    3    3    0  502  0.77443092041E+02 -0.52244752136E+03 -0.40190445598E+03  0.66368368732E+03  0.00000000000E+00 0.  1.
         11    1    5    5    0    0  0.46376041081E+02  0.15159373998E+02 -0.17891631202E+03  0.18544969807E+03  0.00000000000E+00 0.  1.
        -11    1    5    5    0    0  0.24128824038E+01  0.13657773081E+03 -0.47863152422E+03  0.49774233749E+03  0.00000000000E+00 0. -1.
          2    1    6    6  503    0 -0.70954197042E+02  0.15909949652E+03  0.13696963145E+03  0.22160286056E+03  0.00000000000E+00 0. -1.
         -2    1    6    6    0  503 -0.45846940301E+02  0.21974095241E+03  0.71350492579E+02  0.23553963762E+03  0.00000000000E+00 0.  1.
<mgrwt>
<rscale>  0 0.16044952E+04</rscale>
<asrwt>0</asrwt>
<pdfrwt beam="1">  1        2 0.20681717E+00 0.16044952E+04</pdfrwt>
<pdfrwt beam="2">  1       -1 0.73655219E-01 0.16044952E+04</pdfrwt>
<totfact> 0.31610309E+01</totfact>
</mgrwt>
</event>
<event>
12    6  0.1402540E-007  0.2718646E+04  0.7818608E-02  0.8328980E-01
          2   -1    0    0  501    0  0.00000000000E+00  0.00000000000E+00  0.28580406430E+04  0.28580406430E+04  0.00000000000E+00 0. -1.
         -1   -1    0    0    0  501 -0.00000000000E+00 -0.00000000000E+00 -0.64651253053E+03  0.64651253053E+03  0.00000000000E+00 0.  1.
         24    2    1    2    0    0  0.61054783931E+03  0.39902860781E+03  0.22315924402E+04  0.23490939936E+04  0.79027069976E+02 0.  0.
        254    2    1    2    0    0 -0.61054783931E+03 -0.39902860781E+03 -0.20064327740E+02  0.11554591799E+04  0.89593015643E+03 0.  0.
         23    2    4    4    0    0  0.12641861567E+03  0.93580875453E+02 -0.17329402537E+03  0.25126678112E+03  0.91461081481E+02 0.  0.
         23    2    4    4    0    0 -0.73696645498E+03 -0.49260948326E+03  0.15322969763E+03  0.90419239877E+03  0.91109247608E+02 0.  0.
          4    1    3    3  502    0  0.22203883912E+03  0.12000740850E+03  0.87333191983E+03  0.90907187085E+03  0.00000000000E+00 0. -1.
         -3    1    3    3    0  502  0.38850900019E+03  0.27902119930E+03  0.13582605204E+04  0.14400221228E+04  0.00000000000E+00 0.  1.
         11    1    5    5    0    0  0.10901966315E+03  0.10939518058E+03 -0.16580255403E+03  0.22659011323E+03  0.00000000000E+00 0.  1.
        -11    1    5    5    0    0  0.17398952515E+02 -0.15814305130E+02 -0.74914713420E+01  0.24676667892E+02  0.00000000000E+00 0. -1.
          1    1    6    6  503    0 -0.50027719505E+02 -0.34021325996E+02  0.34810821392E+02  0.69799832574E+02  0.00000000000E+00 0. -1.
         -1    1    6    6    0  503 -0.68693873547E+03 -0.45858815726E+03  0.11841887624E+03  0.83439256620E+03  0.00000000000E+00 0.  1.
<mgrwt>
<rscale>  0 0.27186461E+04</rscale>
<asrwt>0</asrwt>
<pdfrwt beam="1">  1        2 0.43969855E+00 0.27186461E+04</pdfrwt>
<pdfrwt beam="2">  1       -1 0.99463468E-01 0.27186461E+04</pdfrwt>
<totfact> 0.20476480E+00</totfact>
</mgrwt>
</event>
<event>
12    6  0.1402540E-007  0.4184643E+04  0.7818608E-02  0.7968300E-01
          2   -1    0    0  501    0  0.00000000000E+00  0.00000000000E+00  0.12786708498E+04  0.12786708498E+04  0.00000000000E+00 0. -1.
         -1   -1    0    0    0  501 -0.00000000000E+00 -0.00000000000E+00 -0.34237178902E+04  0.34237178902E+04  0.00000000000E+00 0.  1.
         24    2    1    2    0    0  0.15455215322E+04  0.10928671206E+04 -0.17332552948E+04  0.25678251887E+04  0.80974892294E+02 0.  0.
        254    2    1    2    0    0 -0.15455215322E+04 -0.10928671206E+04 -0.41179174551E+03  0.21345635513E+04  0.89654546059E+03 0.  0.
         23    2    4    4    0    0 -0.20227821360E+03 -0.34560538896E+03 -0.42965955363E+03  0.59458962059E+03  0.92573885737E+02 0.  0.
         23    2    4    4    0    0 -0.13432433186E+04 -0.74726173168E+03  0.17867808117E+02  0.15399739307E+04  0.92183187366E+02 0.  0.
          4    1    3    3  502    0  0.15295363902E+03  0.13885860174E+03 -0.19253659643E+03  0.28239487944E+03  0.00000000000E+00 0. -1.
         -3    1    3    3    0  502  0.13925678931E+04  0.95400851890E+03 -0.15407186984E+04  0.22854303093E+04  0.00000000000E+00 0.  1.
         11    1    5    5    0    0 -0.10069118783E+03 -0.20679342200E+03 -0.18325056942E+03  0.29407993111E+03  0.00000000000E+00 0. -1.
        -11    1    5    5    0    0 -0.10158702577E+03 -0.13881196696E+03 -0.24640898421E+03  0.30050968948E+03  0.00000000000E+00 0.  1.
          1    1    6    6  503    0 -0.77504487679E+03 -0.39987818830E+03 -0.26462534541E+02  0.87252357690E+03  0.00000000000E+00 0. -1.
         -1    1    6    6    0  503 -0.56819844178E+03 -0.34738354338E+03  0.44330342658E+02  0.66745035376E+03  0.00000000000E+00 0.  1.
<mgrwt>
<rscale>  0 0.41846425E+04</rscale>
<asrwt>0</asrwt>
<pdfrwt beam="1">  1        2 0.19671860E+00 0.41846425E+04</pdfrwt>
<pdfrwt beam="2">  1       -1 0.52672581E+00 0.41846425E+04</pdfrwt>
<totfact> 0.15355229E-02</totfact>
</mgrwt>
</event>
<event>
12    6  0.1402540E-007  0.2354969E+04  0.7818608E-02  0.8456558E-01
          2   -1    0    0  501    0  0.00000000000E+00  0.00000000000E+00  0.11663923382E+04  0.11663923382E+04  0.00000000000E+00 0. -1.
         -1   -1    0    0    0  501 -0.00000000000E+00 -0.00000000000E+00 -0.11886818552E+04  0.11886818552E+04  0.00000000000E+00 0.  1.
         24    2    1    2    0    0  0.11138404959E+03  0.74551048089E+03 -0.67114279714E+03  0.10124329379E+04  0.79971970236E+02 0.  0.
        254    2    1    2    0    0 -0.11138404959E+03 -0.74551048089E+03  0.64885328014E+03  0.13426412554E+04  0.90193274582E+03 0.  0.
         23    2    4    4    0    0  0.28607625533E+03  0.26235890790E+02  0.14422119277E+03  0.33412933560E+03  0.91185057101E+02 0.  0.
         23    2    4    4    0    0 -0.39746030492E+03 -0.77174637168E+03  0.50463208737E+03  0.10085119198E+04  0.94210363602E+02 0.  0.
          2    1    3    3  502    0  0.16076124361E+02  0.22073503072E+02 -0.15173871940E+02  0.31239841581E+02  0.00000000000E+00 0. -1.
         -1    1    3    3    0  502  0.95307925229E+02  0.72343697782E+03 -0.65596892520E+03  0.98119309634E+03  0.00000000000E+00 0.  1.
         11    1    5    5    0    0  0.27282624832E+03  0.14355901542E+02  0.10800627448E+03  0.29377816292E+03  0.00000000000E+00 0. -1.
        -11    1    5    5    0    0  0.13250007009E+02  0.11879989248E+02  0.36214918288E+02  0.40351172683E+02  0.00000000000E+00 0.  1.
          2    1    6    6  503    0 -0.37238795715E+02 -0.14365526938E+03  0.10150197952E+03  0.17979492811E+03  0.00000000000E+00 0.  1.
         -2    1    6    6    0  503 -0.36022150921E+03 -0.62809110230E+03  0.40313010785E+03  0.82871699171E+03  0.00000000000E+00 0. -1.
<mgrwt>
<rscale>  0 0.23549687E+04</rscale>
<asrwt>0</asrwt>
<pdfrwt beam="1">  1        2 0.17944497E+00 0.23549687E+04</pdfrwt>
<pdfrwt beam="2">  1       -1 0.18287413E+00 0.23549687E+04</pdfrwt>
<totfact> 0.40519618E+00</totfact>
</mgrwt>
</event>
<event>
12    6  0.1402540E-007  0.1624788E+04  0.7818608E-02  0.8805463E-01
         -1   -1    0    0    0  501 -0.00000000000E+00  0.00000000000E+00  0.22562534702E+03  0.22562534702E+03  0.00000000000E+00 0.  1.
          2   -1    0    0  501    0  0.00000000000E+00 -0.00000000000E+00 -0.29251323351E+04  0.29251323351E+04  0.00000000000E+00 0. -1.
         24    2    1    2    0    0  0.25707252266E+03 -0.43796749819E+03 -0.48369785879E+03  0.70588252808E+03  0.80029453745E+02 0.  0.
        254    2    1    2    0    0 -0.25707252266E+03  0.43796749819E+03 -0.22158091293E+04  0.24448751541E+04  0.89983476818E+03 0.  0.
         23    2    4    4    0    0 -0.49715188550E+03  0.48516974683E+03 -0.19515083388E+04  0.20734592203E+04  0.91096987801E+02 0.  0.
         23    2    4    4    0    0  0.24007936284E+03 -0.47202248640E+02 -0.26430079047E+03  0.37141593376E+03  0.90712376592E+02 0.  0.
          4    1    3    3  502    0  0.18711556970E+03 -0.31610955585E+03 -0.39652458317E+03  0.54052681042E+03  0.00000000000E+00 0. -1.
         -3    1    3    3    0  502  0.69956952959E+02 -0.12185794234E+03 -0.87173275614E+02  0.16535571765E+03  0.00000000000E+00 0.  1.
         11    1    5    5    0    0 -0.20511620078E+03  0.14530478347E+03 -0.64552135272E+03  0.69273656807E+03  0.00000000000E+00 0.  1.
        -11    1    5    5    0    0 -0.29203568473E+03  0.33986496337E+03 -0.13059869861E+04  0.13807226522E+04  0.00000000000E+00 0. -1.
          1    1    6    6  503    0  0.16682288175E+03 -0.74493926462E+02 -0.18914952460E+03  0.26297673207E+03  0.00000000000E+00 0. -1.
         -1    1    6    6    0  503  0.73256481093E+02  0.27291677822E+02 -0.75151265873E+02  0.10843920169E+03  0.00000000000E+00 0.  1.
<mgrwt>
<rscale>  0 0.16247880E+04</rscale>
<asrwt>0</asrwt>
<pdfrwt beam="1">  1        2 0.45002033E+00 0.16247880E+04</pdfrwt>
<pdfrwt beam="2">  1       -1 0.34711594E-01 0.16247880E+04</pdfrwt>
<totfact> 0.16722948E+01</totfact>
</mgrwt>
</event>
<event>
12    6  0.1402540E-007  0.2137047E+04  0.7818608E-02  0.8545097E-01
         -1   -1    0    0    0  501 -0.00000000000E+00  0.00000000000E+00  0.68808178567E+03  0.68808178567E+03  0.00000000000E+00 0.  1.
          2   -1    0    0  501    0  0.00000000000E+00 -0.00000000000E+00 -0.16593115240E+04  0.16593115240E+04  0.00000000000E+00 0. -1.
         24    2    1    2    0    0 -0.49857004441E+03 -0.65579006269E+03 -0.73176353505E+03  0.11047605335E+04  0.79907881903E+02 0.  0.
        254    2    1    2    0    0  0.49857004441E+03  0.65579006269E+03 -0.23946620330E+03  0.12426327762E+04  0.89897689540E+03 0.  0.
         23    2    4    4    0    0  0.53768084819E+03  0.25421265165E+02  0.41898804413E+02  0.54594203392E+03  0.80933672558E+02 0.  0.
         23    2    4    4    0    0 -0.39110803780E+02  0.63036879753E+03 -0.28136500771E+03  0.69669074228E+03  0.85540908060E+02 0.  0.
          2    1    3    3  502    0 -0.31177872717E+03 -0.40288431863E+03 -0.50319884003E+03  0.71605224776E+03  0.00000000000E+00 0. -1.
         -1    1    3    3    0  502 -0.18679131725E+03 -0.25290574406E+03 -0.22856469502E+03  0.38870828572E+03  0.00000000000E+00 0.  1.
         11    1    5    5    0    0  0.16878718566E+03 -0.28417484732E+02  0.38796181429E+01  0.17120665559E+03  0.00000000000E+00 0. -1.
        -11    1    5    5    0    0  0.36889366253E+03  0.53838749897E+02  0.38019186270E+02  0.37473537832E+03  0.00000000000E+00 0.  1.
          2    1    6    6  503    0 -0.59810659825E+02  0.52381632563E+03 -0.21436829464E+03  0.56913497852E+03  0.00000000000E+00 0. -1.
         -2    1    6    6    0  503  0.20699856044E+02  0.10655247189E+03 -0.66996713070E+02  0.12755576376E+03  0.00000000000E+00 0.  1.
<mgrwt>
<rscale>  0 0.21370466E+04</rscale>
<asrwt>0</asrwt>
<pdfrwt beam="1">  1        2 0.25527870E+00 0.21370466E+04</pdfrwt>
<pdfrwt beam="2">  1       -1 0.10585874E+00 0.21370466E+04</pdfrwt>
<totfact> 0.90311500E+00</totfact>
</mgrwt>
</event>
<event>
12    6  0.1402540E-007  0.2846132E+04  0.7818608E-02  0.8289088E-01
         -1   -1    0    0    0  501 -0.00000000000E+00  0.00000000000E+00  0.12458313999E+04  0.12458313999E+04  0.00000000000E+00 0.  1.
          2   -1    0    0  501    0  0.00000000000E+00 -0.00000000000E+00 -0.16255146071E+04  0.16255146071E+04  0.00000000000E+00 0. -1.
         24    2    1    2    0    0 -0.11629425478E+04 -0.59240531381E+02 -0.70569803769E+03  0.13639721245E+04  0.80407872484E+02 0.  0.
        254    2    1    2    0    0  0.11629425478E+04  0.59240531381E+02  0.32601483053E+03  0.15073738825E+04  0.89996974493E+03 0.  0.
         23    2    4    4    0    0  0.99640867021E+03 -0.29060718144E+03  0.93186735045E+02  0.10462066622E+04  0.92638223577E+02 0.  0.
         23    2    4    4    0    0  0.16653387762E+03  0.34984771282E+03  0.23282809548E+03  0.46116722029E+03  0.91319923720E+02 0.  0.
          4    1    3    3  502    0 -0.61891740872E+03 -0.67103948525E+02 -0.35479944604E+03  0.71655030922E+03  0.00000000000E+00 0. -1.
         -3    1    3    3    0  502 -0.54402513910E+03  0.78634171442E+01 -0.35089859164E+03  0.64742181530E+03  0.00000000000E+00 0.  1.
         11    1    5    5    0    0  0.73303848701E+03 -0.25579596434E+03  0.69079637879E+02  0.77945429319E+03  0.00000000000E+00 0.  1.
        -11    1    5    5    0    0  0.26337018321E+03 -0.34811217092E+02  0.24107097166E+02  0.26675236901E+03  0.00000000000E+00 0. -1.
          3    1    6    6  503    0  0.49858107886E+02  0.87172571635E+02  0.10899072032E+03  0.14820210958E+03  0.00000000000E+00 0. -1.
         -3    1    6    6    0  503  0.11667576973E+03  0.26267514118E+03  0.12383737516E+03  0.31296511071E+03  0.00000000000E+00 0.  1.
<mgrwt>
<rscale>  0 0.28461322E+04</rscale>
<asrwt>0</asrwt>
<pdfrwt beam="1">  1        2 0.25007917E+00 0.28461322E+04</pdfrwt>
<pdfrwt beam="2">  1       -1 0.19166637E+00 0.28461322E+04</pdfrwt>
<totfact> 0.18319556E+00</totfact>
</mgrwt>
</event>
<event>
12    6  0.1402540E-007  0.3647901E+04  0.7818608E-02  0.8079607E-01
          2   -1    0    0  501    0  0.00000000000E+00  0.00000000000E+00  0.24976354988E+04  0.24976354988E+04  0.00000000000E+00 0. -1.
         -1   -1    0    0    0  501 -0.00000000000E+00 -0.00000000000E+00 -0.13319776942E+04  0.13319776942E+04  0.00000000000E+00 0.  1.
         24    2    1    2    0    0  0.13642209915E+04 -0.34923012637E+02  0.16333897748E+04  0.21299887211E+04  0.81063340997E+02 0.  0.
        254    2    1    2    0    0 -0.13642209915E+04  0.34923012637E+02 -0.46773197017E+03  0.16996244719E+04  0.89868326969E+03 0.  0.
         23    2    4    4    0    0 -0.10955915484E+04  0.18334148201E+03  0.21570462335E+02  0.11147184219E+04  0.90536928083E+02 0.  0.
         23    2    4    4    0    0 -0.26862944316E+03 -0.14841846937E+03 -0.48930243250E+03  0.58490605008E+03  0.92240973452E+02 0.  0.
          4    1    3    3  502    0  0.12477072486E+04 -0.35288126568E+02  0.15266466532E+04  0.19719707488E+04  0.00000000000E+00 0. -1.
         -3    1    3    3    0  502  0.11651374289E+03  0.36511393101E+00  0.10674312151E+03  0.15801797233E+03  0.00000000000E+00 0.  1.
         11    1    5    5    0    0 -0.49396247511E+03  0.74800548253E+02 -0.34668887791E+02  0.50079534804E+03  0.00000000000E+00 0. -1.
        -11    1    5    5    0    0 -0.60162907325E+03  0.10854093376E+03  0.56239350126E+02  0.61392307383E+03  0.00000000000E+00 0.  1.
          4    1    6    6  503    0 -0.17565740639E+03 -0.12763644327E+03 -0.39565033311E+03  0.45131560151E+03  0.00000000000E+00 0. -1.
         -4    1    6    6    0  503 -0.92972036766E+02 -0.20782026099E+02 -0.93652099387E+02  0.13359044857E+03  0.00000000000E+00 0.  1.
<mgrwt>
<rscale>  0 0.36479006E+04</rscale>
<asrwt>0</asrwt>
<pdfrwt beam="1">  1        2 0.38425162E+00 0.36479006E+04</pdfrwt>
<pdfrwt beam="2">  1       -1 0.20491965E+00 0.36479006E+04</pdfrwt>
<totfact> 0.44854742E-01</totfact>
</mgrwt>
</event>
<event>
12    6  0.1402540E-007  0.1951542E+04  0.7818608E-02  0.8629617E-01
          2   -1    0    0  501    0  0.00000000000E+00  0.00000000000E+00  0.29192659010E+04  0.29192659010E+04  0.00000000000E+00 0. -1.
         -1   -1    0    0    0  501 -0.00000000000E+00 -0.00000000000E+00 -0.32615364755E+03  0.32615364755E+03  0.00000000000E+00 0.  1.
         24    2    1    2    0    0 -0.35382843808E+02 -0.74131096490E+03  0.71085588417E+03  0.10307657464E+04  0.79800022498E+02 0.  0.
        254    2    1    2    0    0  0.35382843808E+02  0.74131096490E+03  0.18822563692E+04  0.22146538021E+04  0.90056012087E+03 0.  0.
         23    2    4    4    0    0  0.35739056089E+03  0.73194904351E+03  0.11779878324E+04  0.14351628480E+04  0.92518386191E+02 0.  0.
         23    2    4    4    0    0 -0.32200771708E+03  0.93619213874E+01  0.70426853683E+03  0.77949095406E+03  0.88517569228E+02 0.  0.
          2    1    3    3  502    0 -0.52720061101E+02 -0.53988873041E+03  0.48515296349E+03  0.72775864409E+03  0.00000000000E+00 0. -1.
         -3    1    3    3    0  502  0.17337217293E+02 -0.20142223449E+03  0.22570292068E+03  0.30300710232E+03  0.00000000000E+00 0.  1.
         11    1    5    5    0    0  0.21416697987E+03  0.53176749456E+03  0.84348568093E+03  0.10198589400E+04  0.00000000000E+00 0.  1.
        -11    1    5    5    0    0  0.14322358102E+03  0.20018154895E+03  0.33450215148E+03  0.41530390805E+03  0.00000000000E+00 0. -1.
          2    1    6    6  503    0 -0.23189292085E+03  0.10567421657E+02  0.58955621565E+03  0.63361070742E+03  0.00000000000E+00 0.  1.
         -2    1    6    6    0  503 -0.90114796230E+02 -0.12055002695E+01  0.11471232118E+03  0.14588024664E+03  0.00000000000E+00 0. -1.
<mgrwt>
<rscale>  0 0.19515422E+04</rscale>
<asrwt>0</asrwt>
<pdfrwt beam="1">  1        2 0.44911781E+00 0.19515422E+04</pdfrwt>
<pdfrwt beam="2">  1       -1 0.50177486E-01 0.19515422E+04</pdfrwt>
<totfact> 0.82933302E+00</totfact>
</mgrwt>
</event>
<event>
12    6  0.1402540E-007  0.2116439E+04  0.7818608E-02  0.8554036E-01
          2   -1    0    0  501    0  0.00000000000E+00  0.00000000000E+00  0.20063029725E+04  0.20063029725E+04  0.00000000000E+00 0. -1.
         -1   -1    0    0    0  501 -0.00000000000E+00 -0.00000000000E+00 -0.55815534104E+03  0.55815534104E+03  0.00000000000E+00 0.  1.
         24    2    1    2    0    0  0.26963159618E+02 -0.41123348193E+03  0.15138851468E+04  0.15708374731E+04  0.76433895839E+02 0.  0.
        254    2    1    2    0    0 -0.26963159618E+02  0.41123348193E+03 -0.65737515403E+02  0.99362084042E+03  0.90173220245E+03 0.  0.
         23    2    4    4    0    0 -0.20541695397E+03 -0.12365145868E+03  0.23545148794E+03  0.34837056270E+03  0.91863145900E+02 0.  0.
         23    2    4    4    0    0  0.17845379435E+03  0.53488494061E+03 -0.30118900334E+03  0.64525027771E+03  0.87666691192E+02 0.  0.
          4    1    3    3  502    0 -0.44472901008E+01 -0.33681805268E+03  0.12706897979E+04  0.13145793021E+04  0.00000000000E+00 0. -1.
         -3    1    3    3    0  502  0.31410449719E+02 -0.74415429258E+02  0.24319534893E+03  0.25625817100E+03  0.00000000000E+00 0.  1.
         11    1    5    5    0    0 -0.74730174313E+02 -0.96029633971E+02  0.93505998295E+02  0.15345898889E+03  0.00000000000E+00 0.  1.
        -11    1    5    5    0    0 -0.13068677966E+03 -0.27621824707E+02  0.14194548964E+03  0.19491157381E+03  0.00000000000E+00 0. -1.
          3    1    6    6  503    0  0.15355220107E+03  0.46104062979E+03 -0.29164173375E+03  0.56673771856E+03  0.00000000000E+00 0. -1.
         -3    1    6    6    0  503  0.24901593277E+02  0.73844310823E+02 -0.95472695908E+01  0.78512559157E+02  0.00000000000E+00 0.  1.
<mgrwt>
<rscale>  0 0.21164392E+04</rscale>
<asrwt>0</asrwt>
<pdfrwt beam="1">  1        2 0.30866199E+00 0.21164392E+04</pdfrwt>
<pdfrwt beam="2">  1       -1 0.85870054E-01 0.21164392E+04</pdfrwt>
<totfact> 0.92971822E+00</totfact>
</mgrwt>
</event>
<event>
12    6  0.1402540E-007  0.1482180E+04  0.7818608E-02  0.8896391E-01
          2   -1    0    0  501    0  0.00000000000E+00  0.00000000000E+00  0.96179940033E+03  0.96179940033E+03  0.00000000000E+00 0. -1.
         -1   -1    0    0    0  501 -0.00000000000E+00 -0.00000000000E+00 -0.57102768726E+03  0.57102768726E+03  0.00000000000E+00 0.  1.
         24    2    1    2    0    0  0.21498717128E+03  0.40875892202E+03  0.74614188768E+02  0.47453507741E+03  0.79453901008E+02 0.  0.
        254    2    1    2    0    0 -0.21498717128E+03 -0.40875892202E+03  0.31615752430E+03  0.10582920102E+04  0.89817763193E+03 0.  0.
         23    2    4    4    0    0 -0.55392301996E+03 -0.17362512184E+03  0.17862912541E+03  0.61392331591E+03  0.89538139351E+02 0.  0.
         23    2    4    4    0    0  0.33893584868E+03 -0.23513380017E+03  0.13752839888E+03  0.44436869427E+03  0.91564526108E+02 0.  0.
          2    1    3    3  502    0  0.21307831785E+03  0.36553132887E+03  0.81032139404E+02  0.43079197943E+03  0.00000000000E+00 0. -1.
         -1    1    3    3    0  502  0.19088534261E+01  0.43227593147E+02 -0.64179506358E+01  0.43743097982E+02  0.00000000000E+00 0.  1.
         11    1    5    5    0    0 -0.16580909650E+03 -0.90409511976E+02  0.36779250067E+02  0.19240387100E+03  0.00000000000E+00 0.  1.
        -11    1    5    5    0    0 -0.38811392346E+03 -0.83215609866E+02  0.14184987535E+03  0.42151944492E+03  0.00000000000E+00 0. -1.
          3    1    6    6  503    0  0.32305492667E+03 -0.24346962778E+03  0.12982630905E+03  0.42484916831E+03  0.00000000000E+00 0. -1.
         -3    1    6    6    0  503  0.15880922013E+02  0.83358276012E+01  0.77020898372E+01  0.19519525958E+02  0.00000000000E+00 0.  1.
<mgrwt>
<rscale>  0 0.14821796E+04</rscale>
<asrwt>0</asrwt>
<pdfrwt beam="1">  1        2 0.14796914E+00 0.14821796E+04</pdfrwt>
<pdfrwt beam="2">  1       -1 0.87850413E-01 0.14821796E+04</pdfrwt>
<totfact> 0.37518406E+01</totfact>
</mgrwt>
</event>
<event>
12    6  0.1402540E-007  0.2456284E+04  0.7818608E-02  0.8418727E-01
         -1   -1    0    0    0  501 -0.00000000000E+00  0.00000000000E+00  0.14177208001E+04  0.14177208001E+04  0.00000000000E+00 0.  1.
          2   -1    0    0  501    0  0.00000000000E+00 -0.00000000000E+00 -0.10639135049E+04  0.10639135049E+04  0.00000000000E+00 0. -1.
         24    2    1    2    0    0 -0.27276080596E+03  0.10244355875E+04  0.23373929874E+03  0.10885259507E+04  0.79924685282E+02 0.  0.
        254    2    1    2    0    0  0.27276080596E+03 -0.10244355875E+04  0.12006799643E+03  0.13931083543E+04  0.89580568927E+03 0.  0.
         23    2    4    4    0    0 -0.19949001210E+03 -0.70388409448E+03  0.28705152365E+03  0.79114455187E+03  0.90895771768E+02 0.  0.
         23    2    4    4    0    0  0.47225081806E+03 -0.32055149303E+03 -0.16698352722E+03  0.60196380247E+03  0.93288939742E+02 0.  0.
          2    1    3    3  502    0 -0.14723186749E+03  0.69269245336E+03  0.16726660305E+03  0.72765250926E+03  0.00000000000E+00 0. -1.
         -1    1    3    3    0  502 -0.12552893848E+03  0.33174313415E+03  0.66472695688E+02  0.36087344142E+03  0.00000000000E+00 0.  1.
         11    1    5    5    0    0 -0.11903068263E+03 -0.30679604530E+03  0.16421557287E+03  0.36777557177E+03  0.00000000000E+00 0. -1.
        -11    1    5    5    0    0 -0.80459329464E+02 -0.39708804918E+03  0.12283595078E+03  0.42336898009E+03  0.00000000000E+00 0.  1.
          3    1    6    6  503    0  0.43093116064E+03 -0.30466218625E+03 -0.17687690926E+03  0.55660233018E+03  0.00000000000E+00 0. -1.
         -3    1    6    6    0  503  0.41319657425E+02 -0.15889306776E+02  0.98933820393E+01  0.45361472283E+02  0.00000000000E+00 0.  1.
<mgrwt>
<rscale>  0 0.24562836E+04</rscale>
<asrwt>0</asrwt>
<pdfrwt beam="1">  1        2 0.16367900E+00 0.24562836E+04</pdfrwt>
<pdfrwt beam="2">  1       -1 0.21811089E+00 0.24562836E+04</pdfrwt>
<totfact> 0.26525978E+00</totfact>
</mgrwt>
</event>
<event>
12    6  0.1402540E-007  0.1541419E+04  0.7818608E-02  0.8857368E-01
          2   -1    0    0  501    0  0.00000000000E+00  0.00000000000E+00  0.10643010226E+04  0.10643010226E+04  0.00000000000E+00 0. -1.
         -1   -1    0    0    0  501 -0.00000000000E+00 -0.00000000000E+00 -0.55810625137E+03  0.55810625137E+03  0.00000000000E+00 0.  1.
         24    2    1    2    0    0  0.44531693764E+02  0.50053115876E+03  0.12718967741E+03  0.52438197049E+03  0.79276253064E+02 0.  0.
        254    2    1    2    0    0 -0.44531693764E+02 -0.50053115876E+03  0.37900509379E+03  0.10980253034E+04  0.89972228674E+03 0.  0.
         23    2    4    4    0    0  0.15495217846E+03  0.69910662889E+01  0.49929504540E+03  0.53175429997E+03  0.96995054284E+02 0.  0.
         23    2    4    4    0    0 -0.19948387223E+03 -0.50752222504E+03 -0.12028995160E+03  0.56627100348E+03  0.93917797739E+02 0.  0.
          4    1    3    3  502    0  0.17364230173E+01  0.39178288492E+03  0.94282885367E+02  0.40297159522E+03  0.00000000000E+00 0. -1.
         -3    1    3    3    0  502  0.42795270747E+02  0.10874827384E+03  0.32906792042E+02  0.12141037527E+03  0.00000000000E+00 0.  1.
         11    1    5    5    0    0  0.13680898800E+02 -0.16625235083E+02  0.18633929433E+03  0.18757904479E+03  0.00000000000E+00 0. -1.
        -11    1    5    5    0    0  0.14127127966E+03  0.23616301372E+02  0.31295575107E+03  0.34417525518E+03  0.00000000000E+00 0.  1.
          3    1    6    6  503    0 -0.18024827041E+03 -0.37332398871E+03 -0.11662128658E+03  0.43065155754E+03  0.00000000000E+00 0.  1.
         -3    1    6    6    0  503 -0.19235601818E+02 -0.13419823633E+03 -0.36686650227E+01  0.13561944594E+03  0.00000000000E+00 0. -1.
<mgrwt>
<rscale>  0 0.15414189E+04</rscale>
<asrwt>0</asrwt>
<pdfrwt beam="1">  1        2 0.16373862E+00 0.15414189E+04</pdfrwt>
<pdfrwt beam="2">  1       -1 0.85862500E-01 0.15414189E+04</pdfrwt>
<totfact> 0.33748605E+01</totfact>
</mgrwt>
</event>
<event>
12    6  0.1402540E-007  0.1632583E+04  0.7818608E-02  0.8800778E-01
         -1   -1    0    0    0  501 -0.00000000000E+00  0.00000000000E+00  0.55999539967E+03  0.55999539967E+03  0.00000000000E+00 0.  1.
          2   -1    0    0  501    0  0.00000000000E+00 -0.00000000000E+00 -0.11898874013E+04  0.11898874013E+04  0.00000000000E+00 0. -1.
         24    2    1    2    0    0  0.25285868938E+02 -0.46333327289E+03  0.12422524482E+03  0.48735430727E+03  0.82250911454E+02 0.  0.
        254    2    1    2    0    0 -0.25285868938E+02  0.46333327289E+03 -0.75411724646E+03  0.12625284937E+04  0.89998237711E+03 0.  0.
         23    2    4    4    0    0 -0.28919731562E+03  0.51630835567E+03 -0.77319923665E+03  0.97774165001E+03  0.89063287130E+02 0.  0.
         23    2    4    4    0    0  0.26391144668E+03 -0.52975082782E+02  0.19081990187E+02  0.28478684371E+03  0.91015454250E+02 0.  0.
          2    1    3    3  502    0 -0.21732092904E+02 -0.45859807433E+02  0.19663647393E+02  0.54424854879E+02  0.00000000000E+00 0. -1.
         -1    1    3    3    0  502  0.47017961842E+02 -0.41747346545E+03  0.10456159743E+03  0.43292945239E+03  0.00000000000E+00 0.  1.
         11    1    5    5    0    0 -0.18920108448E+03  0.41474774349E+03 -0.58319555965E+03  0.74022280557E+03  0.00000000000E+00 0. -1.
        -11    1    5    5    0    0 -0.99996231140E+02  0.10156061218E+03 -0.19000367700E+03  0.23751884444E+03  0.00000000000E+00 0.  1.
          2    1    6    6  503    0  0.68421513298E+02 -0.56324496519E+02  0.51173272520E+01  0.88770149422E+02  0.00000000000E+00 0. -1.
         -2    1    6    6    0  503  0.19548993339E+03  0.33494137368E+01  0.13964662935E+02  0.19601669429E+03  0.00000000000E+00 0.  1.
<mgrwt>
<rscale>  0 0.16325826E+04</rscale>
<asrwt>0</asrwt>
<pdfrwt beam="1">  1        2 0.18305960E+00 0.16325826E+04</pdfrwt>
<pdfrwt beam="2">  1       -1 0.86153140E-01 0.16325826E+04</pdfrwt>
<totfact> 0.27857174E+01</totfact>
</mgrwt>
</event>
<event>
12    6  0.1402540E-007  0.1428174E+04  0.7818608E-02  0.8933673E-01
          2   -1    0    0  501    0  0.00000000000E+00  0.00000000000E+00  0.99659845443E+03  0.99659845443E+03  0.00000000000E+00 0. -1.
         -1   -1    0    0    0  501 -0.00000000000E+00 -0.00000000000E+00 -0.51166079850E+03  0.51166079850E+03  0.00000000000E+00 0.  1.
         24    2    1    2    0    0 -0.35402402734E+03  0.19259966828E+03  0.26077743045E+03  0.48668766772E+03  0.80202079343E+02 0.  0.
        254    2    1    2    0    0  0.35402402734E+03 -0.19259966828E+03  0.22416022548E+03  0.10215715852E+04  0.91155529337E+03 0.  0.
         23    2    4    4    0    0  0.29504878035E+03 -0.53642344292E+03  0.23302298243E+03  0.66136092052E+03  0.91075045670E+02 0.  0.
         23    2    4    4    0    0  0.58975246983E+02  0.34382377464E+03 -0.88627569473E+01  0.36021066469E+03  0.89332562544E+02 0.  0.
          2    1    3    3  502    0 -0.18895343721E+03  0.97479718270E+02  0.18437041616E+03  0.28142165386E+03  0.00000000000E+00 0. -1.
         -1    1    3    3    0  502 -0.16507059013E+03  0.95119950007E+02  0.76407014287E+02  0.20526601386E+03  0.00000000000E+00 0.  1.
         11    1    5    5    0    0  0.22152471629E+03 -0.34114331204E+03  0.18699532854E+03  0.44768204361E+03  0.00000000000E+00 0. -1.
        -11    1    5    5    0    0  0.73524064069E+02 -0.19528013088E+03  0.46027653890E+02  0.21367887691E+03  0.00000000000E+00 0.  1.
          3    1    6    6  503    0  0.75852139409E+02  0.29098415214E+03 -0.26833342386E+02  0.30190288524E+03  0.00000000000E+00 0. -1.
         -3    1    6    6    0  503 -0.16876892426E+02  0.52839622504E+02  0.17970585438E+02  0.58307779458E+02  0.00000000000E+00 0.  1.
<mgrwt>
<rscale>  0 0.14281742E+04</rscale>
<asrwt>0</asrwt>
<pdfrwt beam="1">  1        2 0.15332284E+00 0.14281742E+04</pdfrwt>
<pdfrwt beam="2">  1       -1 0.78717046E-01 0.14281742E+04</pdfrwt>
<totfact> 0.45305565E+01</totfact>
</mgrwt>
</event>
<event>
12    6  0.1402540E-007  0.1355322E+04  0.7818608E-02  0.8986809E-01
         -1   -1    0    0    0  501 -0.00000000000E+00  0.00000000000E+00  0.50673657905E+03  0.50673657905E+03  0.00000000000E+00 0.  1.
          2   -1    0    0  501    0  0.00000000000E+00 -0.00000000000E+00 -0.90623937164E+03  0.90623937164E+03  0.00000000000E+00 0. -1.
         24    2    1    2    0    0 -0.12690194607E+03 -0.13265446876E+03  0.22276924691E+03  0.30236142802E+03  0.89972127831E+02 0.  0.
        254    2    1    2    0    0  0.12690194607E+03  0.13265446876E+03 -0.62227203951E+03  0.11106145227E+04  0.90141045856E+03 0.  0.
         23    2    4    4    0    0 -0.42140888198E+02 -0.16101451569E+03  0.16353281992E+03  0.25018444620E+03  0.90264861414E+02 0.  0.
         23    2    4    4    0    0  0.16904283427E+03  0.29366898446E+03 -0.78580485943E+03  0.86043007647E+03  0.89630838035E+02 0.  0.
          4    1    3    3  502    0 -0.12844606639E+03 -0.79951577656E+02  0.15649926643E+03  0.21767560069E+03  0.00000000000E+00 0. -1.
         -3    1    3    3    0  502  0.15441203183E+01 -0.52702891107E+02  0.66269980482E+02  0.84685827336E+02  0.00000000000E+00 0.  1.
         11    1    5    5    0    0  0.14110943895E+02 -0.11257785929E+03  0.82446128832E+02  0.14025069447E+03  0.00000000000E+00 0.  1.
        -11    1    5    5    0    0 -0.56251832093E+02 -0.48436656405E+02  0.81086691091E+02  0.10993375173E+03  0.00000000000E+00 0. -1.
          3    1    6    6  503    0  0.17984344840E+03  0.27233509913E+03 -0.72384616375E+03  0.79401721702E+03  0.00000000000E+00 0. -1.
         -3    1    6    6    0  503 -0.10800614130E+02  0.21333885331E+02 -0.61958695688E+02  0.66412859450E+02  0.00000000000E+00 0.  1.
<mgrwt>
<rscale>  0 0.13553223E+04</rscale>
<asrwt>0</asrwt>
<pdfrwt beam="1">  1        2 0.13942144E+00 0.13553223E+04</pdfrwt>
<pdfrwt beam="2">  1       -1 0.77959474E-01 0.13553223E+04</pdfrwt>
<totfact> 0.53339960E+01</totfact>
</mgrwt>
</event>
<event>
12    6  0.1402540E-007  0.2795313E+04  0.7818608E-02  0.8304725E-01
          2   -1    0    0  501    0  0.00000000000E+00  0.00000000000E+00  0.27636687416E+04  0.27636687416E+04  0.00000000000E+00 0. -1.
         -1   -1    0    0    0  501 -0.00000000000E+00 -0.00000000000E+00 -0.70682976122E+03  0.70682976122E+03  0.00000000000E+00 0.  1.
         24    2    1    2    0    0  0.74632355471E+03  0.10040175693E+04  0.83491736836E+03  0.15062368108E+04  0.81315376016E+02 0.  0.
        254    2    1    2    0    0 -0.74632355471E+03 -0.10040175693E+04  0.12219216121E+04  0.19642616921E+04  0.89452861396E+03 0.  0.
         23    2    4    4    0    0 -0.36565581735E+03 -0.19947361770E+03  0.92908576560E+03  0.10226582121E+04  0.95580113060E+02 0.  0.
         23    2    4    4    0    0 -0.38066773736E+03 -0.80454395160E+03  0.29283584647E+03  0.94160347999E+03  0.93088045579E+02 0.  0.
          4    1    3    3  502    0  0.27606171540E+03  0.39906482918E+03  0.36732743863E+03  0.60859859988E+03  0.00000000000E+00 0. -1.
         -3    1    3    3    0  502  0.47026183931E+03  0.60495274011E+03  0.46758992972E+03  0.89763821090E+03  0.00000000000E+00 0.  1.
         11    1    5    5    0    0 -0.36827774473E+03 -0.19324915603E+03  0.92623885528E+03  0.10153285924E+04  0.00000000000E+00 0. -1.
        -11    1    5    5    0    0  0.26219273785E+01 -0.62244616644E+01  0.28469103247E+01  0.73296196755E+01  0.00000000000E+00 0.  1.
          4    1    6    6  503    0  0.41359297679E+01 -0.22227959902E+02  0.27450140868E+01  0.22775496017E+02  0.00000000000E+00 0.  1.
         -4    1    6    6    0  503 -0.38480366713E+03 -0.78231599169E+03  0.29009083238E+03  0.91882798397E+03  0.00000000000E+00 0. -1.
<mgrwt>
<rscale>  0 0.27953127E+04</rscale>
<asrwt>0</asrwt>
<pdfrwt beam="1">  1        2 0.42517980E+00 0.27953127E+04</pdfrwt>
<pdfrwt beam="2">  1       -1 0.10874304E+00 0.27953127E+04</pdfrwt>
<totfact> 0.18865331E+00</totfact>
</mgrwt>
</event>
<event>
12    6  0.1402540E-007  0.1725220E+04  0.7818608E-02  0.8747110E-01
         -1   -1    0    0    0  501 -0.00000000000E+00  0.00000000000E+00  0.63860899039E+03  0.63860899039E+03  0.00000000000E+00 0.  1.
          2   -1    0    0  501    0  0.00000000000E+00 -0.00000000000E+00 -0.11651819157E+04  0.11651819157E+04  0.00000000000E+00 0. -1.
         24    2    1    2    0    0 -0.13278812368E+03 -0.46503025861E+03  0.22894951092E+03  0.54130176182E+03  0.81877295924E+02 0.  0.
        254    2    1    2    0    0  0.13278812368E+03  0.46503025861E+03 -0.75552243621E+03  0.12624891442E+04  0.88835739457E+03 0.  0.
         23    2    4    4    0    0  0.35038630040E+03  0.61781496554E+03 -0.44214418511E+03  0.84157906619E+03  0.91093101106E+02 0.  0.
         23    2    4    4    0    0 -0.21759817672E+03 -0.15278470693E+03 -0.31337825110E+03  0.42091007805E+03  0.90924322144E+02 0.  0.
          2    1    3    3  502    0 -0.66100335191E+02 -0.27425663236E+03  0.90263170200E+02  0.29619823531E+03  0.00000000000E+00 0. -1.
         -1    1    3    3    0  502 -0.66687788490E+02 -0.19077362625E+03  0.13868634072E+03  0.24510352651E+03  0.00000000000E+00 0.  1.
         11    1    5    5    0    0  0.30826383706E+01  0.40391467848E+02 -0.39720470322E+02  0.56733491844E+02  0.00000000000E+00 0.  1.
        -11    1    5    5    0    0  0.34730366203E+03  0.57742349769E+03 -0.40242371479E+03  0.78484557434E+03  0.00000000000E+00 0. -1.
          4    1    6    6  503    0 -0.15927433878E+03 -0.86309838961E+02 -0.26232320734E+03  0.31879643725E+03  0.00000000000E+00 0. -1.
         -4    1    6    6    0  503 -0.58323837943E+02 -0.66474867966E+02 -0.51055043757E+02  0.10211364080E+03  0.00000000000E+00 0.  1.
<mgrwt>
<rscale>  0 0.17252196E+04</rscale>
<asrwt>0</asrwt>
<pdfrwt beam="1">  1        2 0.17925875E+00 0.17252196E+04</pdfrwt>
<pdfrwt beam="2">  1       -1 0.98247538E-01 0.17252196E+04</pdfrwt>
<totfact> 0.21364644E+01</totfact>
</mgrwt>
</event>
<event>
12    6  0.1402540E-007  0.1873878E+04  0.7818608E-02  0.8667969E-01
          2   -1    0    0  501    0  0.00000000000E+00  0.00000000000E+00  0.16028085840E+04  0.16028085840E+04  0.00000000000E+00 0. -1.
         -1   -1    0    0    0  501 -0.00000000000E+00 -0.00000000000E+00 -0.54769775576E+03  0.54769775576E+03  0.00000000000E+00 0.  1.
         24    2    1    2    0    0 -0.53499262852E+03 -0.48000751655E+03  0.45942472185E+03  0.85703093684E+03  0.82502261319E+02 0.  0.
        254    2    1    2    0    0  0.53499262852E+03  0.48000751655E+03  0.59568610638E+03  0.12934754029E+04  0.89532806952E+03 0.  0.
         23    2    4    4    0    0  0.70598822683E+03  0.16927101340E+03  0.56622547285E+03  0.92502839113E+03  0.89410211319E+02 0.  0.
         23    2    4    4    0    0 -0.17099559831E+03  0.31073650315E+03  0.29460633521E+02  0.36844701177E+03  0.95334162411E+02 0.  0.
          4    1    3    3  502    0 -0.41895734789E+03 -0.41163513550E+03  0.35189021317E+03  0.68468639993E+03  0.00000000000E+00 0. -1.
         -3    1    3    3    0  502 -0.11603528063E+03 -0.68372381054E+02  0.10753450868E+03  0.17234453690E+03  0.00000000000E+00 0.  1.
         11    1    5    5    0    0  0.59845859528E+03  0.10944142442E+03  0.47479704931E+03  0.77172686468E+03  0.00000000000E+00 0. -1.
        -11    1    5    5    0    0  0.10752963156E+03  0.59829588979E+02  0.91428423544E+02  0.15330152645E+03  0.00000000000E+00 0.  1.
          4    1    6    6  503    0 -0.13896791603E+03  0.28790110997E+03  0.64490157672E+00  0.31968663829E+03  0.00000000000E+00 0. -1.
         -4    1    6    6    0  503 -0.32027682277E+02  0.22835393186E+02  0.28815731944E+02  0.48760373475E+02  0.00000000000E+00 0.  1.
<mgrwt>
<rscale>  0 0.18738780E+04</rscale>
<asrwt>0</asrwt>
<pdfrwt beam="1">  1        2 0.24658593E+00 0.18738780E+04</pdfrwt>
<pdfrwt beam="2">  1       -1 0.84261194E-01 0.18738780E+04</pdfrwt>
<totfact> 0.16575705E+01</totfact>
</mgrwt>
</event>
<event>
12    6  0.1402540E-007  0.2367229E+04  0.7818608E-02  0.8451875E-01
         -1   -1    0    0    0  501 -0.00000000000E+00  0.00000000000E+00  0.61970823713E+03  0.61970823713E+03  0.00000000000E+00 0.  1.
          2   -1    0    0  501    0  0.00000000000E+00 -0.00000000000E+00 -0.22606503662E+04  0.22606503662E+04  0.00000000000E+00 0. -1.
         24    2    1    2    0    0  0.71732751491E+02 -0.57477326038E+03 -0.17047657555E+04  0.18022961190E+04  0.80840157494E+02 0.  0.
        254    2    1    2    0    0 -0.71732751491E+02  0.57477326038E+03  0.63823626357E+02  0.10780624844E+04  0.90699248973E+03 0.  0.
         23    2    4    4    0    0 -0.32839987986E+03  0.38956706794E+03  0.36366607782E+03  0.63266402685E+03  0.91661186989E+02 0.  0.
         23    2    4    4    0    0  0.25666712837E+03  0.18520619245E+03 -0.29984245146E+03  0.44539845752E+03  0.91076570853E+02 0.  0.
          4    1    3    3  502    0  0.74050229772E+02 -0.57329891981E+03 -0.16660780240E+04  0.17635110065E+04  0.00000000000E+00 0. -1.
         -3    1    3    3    0  502 -0.23174782811E+01 -0.14743405704E+01 -0.38687731465E+02  0.38785112499E+02  0.00000000000E+00 0.  1.
         11    1    5    5    0    0 -0.25691897432E+03  0.24326103043E+03  0.26749922996E+03  0.44355284502E+03  0.00000000000E+00 0. -1.
        -11    1    5    5    0    0 -0.71480905540E+02  0.14630603750E+03  0.96166847854E+02  0.18911118183E+03  0.00000000000E+00 0.  1.
          1    1    6    6  503    0  0.13509164462E+03  0.13126838645E+03 -0.12645834000E+03  0.22687629555E+03  0.00000000000E+00 0. -1.
         -1    1    6    6    0  503  0.12157548375E+03  0.53937805994E+02 -0.17338411146E+03  0.21852216197E+03  0.00000000000E+00 0.  1.
<mgrwt>
<rscale>  0 0.23672293E+04</rscale>
<asrwt>0</asrwt>
<pdfrwt beam="1">  1        2 0.34779237E+00 0.23672293E+04</pdfrwt>
<pdfrwt beam="2">  1       -1 0.95339728E-01 0.23672293E+04</pdfrwt>
<totfact> 0.51996667E+00</totfact>
</mgrwt>
</event>
<event>
12    6  0.1402540E-007  0.2630263E+04  0.7818608E-02  0.8357993E-01
          2   -1    0    0  501    0  0.00000000000E+00  0.00000000000E+00  0.20828101532E+04  0.20828101532E+04  0.00000000000E+00 0. -1.
         -3   -1    0    0    0  501 -0.00000000000E+00 -0.00000000000E+00 -0.83040283525E+03  0.83040283525E+03  0.00000000000E+00 0.  1.
         24    2    1    2    0    0 -0.38226611173E+03 -0.91377703600E+03 -0.11487433272E+03  0.99998309225E+03  0.75194552764E+02 0.  0.
        254    2    1    2    0    0  0.38226611173E+03  0.91377703600E+03  0.13672816507E+04  0.19132298962E+04  0.89992981494E+03 0.  0.
         23    2    4    4    0    0  0.58663214317E+03  0.36290363591E+03  0.98482100257E+03  0.12057582788E+04  0.90245771834E+02 0.  0.
         23    2    4    4    0    0 -0.20436603145E+03  0.55087340009E+03  0.38246064812E+03  0.70747161747E+03  0.94936633735E+02 0.  0.
          4    1    3    3  502    0 -0.25447367356E+03 -0.61001424456E+03 -0.11221803484E+03  0.67042308764E+03  0.00000000000E+00 0. -1.
         -3    1    3    3    0  502 -0.12779243817E+03 -0.30376279144E+03 -0.26562978806E+01  0.32956000461E+03  0.00000000000E+00 0.  1.
         11    1    5    5    0    0  0.74728456233E+02  0.68274585707E+02  0.10301420236E+03  0.14442190662E+03  0.00000000000E+00 0. -1.
        -11    1    5    5    0    0  0.51190368694E+03  0.29462905020E+03  0.88180680021E+03  0.10613363721E+04  0.00000000000E+00 0.  1.
          4    1    6    6  503    0 -0.41069428793E+02  0.37641183642E+02  0.47598828742E+02  0.73274860524E+02  0.00000000000E+00 0. -1.
         -4    1    6    6    0  503 -0.16329660266E+03  0.51323221645E+03  0.33486181938E+03  0.63419675695E+03  0.00000000000E+00 0.  1.
<mgrwt>
<rscale>  0 0.26302635E+04</rscale>
<asrwt>0</asrwt>
<pdfrwt beam="1">  1        2 0.32043233E+00 0.26302635E+04</pdfrwt>
<pdfrwt beam="2">  1       -3 0.12775428E+00 0.26302635E+04</pdfrwt>
<totfact> 0.16344749E+00</totfact>
</mgrwt>
</event>
<event>
12    6  0.1402540E-007  0.2646548E+04  0.7818608E-02  0.8352560E-01
         -1   -1    0    0    0  501 -0.00000000000E+00  0.00000000000E+00  0.21975241375E+04  0.21975241375E+04  0.00000000000E+00 0.  1.
          2   -1    0    0  501    0  0.00000000000E+00 -0.00000000000E+00 -0.79683030863E+03  0.79683030863E+03  0.00000000000E+00 0. -1.
         24    2    1    2    0    0 -0.10327508604E+03  0.10945407674E+04  0.17066324591E+03  0.11151858162E+04  0.76342821466E+02 0.  0.
        254    2    1    2    0    0  0.10327508604E+03 -0.10945407674E+04  0.12300305829E+04  0.18791686299E+04  0.89978567988E+03 0.  0.
         23    2    4    4    0    0  0.14627541140E+02 -0.47269830619E+03  0.11409294966E+04  0.12385087111E+04  0.92336654253E+02 0.  0.
         23    2    4    4    0    0  0.88647544901E+02 -0.62184246117E+03  0.89101086341E+02  0.64065991874E+03  0.89217118086E+02 0.  0.
          2    1    3    3  502    0 -0.66313487104E+02  0.64818802551E+03  0.13867027428E+03  0.66616412389E+03  0.00000000000E+00 0. -1.
         -1    1    3    3    0  502 -0.36961598936E+02  0.44635274185E+03  0.31992971627E+02  0.44902169233E+03  0.00000000000E+00 0.  1.
         11    1    5    5    0    0 -0.19477781890E+02 -0.21270103174E+02  0.58584511025E+02  0.65298898983E+02  0.00000000000E+00 0. -1.
        -11    1    5    5    0    0  0.34105323030E+02 -0.45142820302E+03  0.10823449856E+04  0.11732098121E+04  0.00000000000E+00 0.  1.
          2    1    6    6  503    0  0.56830378829E+02 -0.14003825967E+03  0.31551738910E+02  0.15438885438E+03  0.00000000000E+00 0. -1.
         -2    1    6    6    0  503  0.31817166072E+02 -0.48180420151E+03  0.57549347432E+02  0.48627106436E+03  0.00000000000E+00 0.  1.
<mgrwt>
<rscale>  0 0.26465478E+04</rscale>
<asrwt>0</asrwt>
<pdfrwt beam="1">  1        2 0.12258928E+00 0.26465478E+04</pdfrwt>
<pdfrwt beam="2">  1       -1 0.33808063E+00 0.26465478E+04</pdfrwt>
<totfact> 0.64825676E-01</totfact>
</mgrwt>
</event>
<event>
12    6  0.1402540E-007  0.3129452E+04  0.7818608E-02  0.8207701E-01
         -1   -1    0    0    0  501 -0.00000000000E+00  0.00000000000E+00  0.60474025446E+03  0.60474025446E+03  0.00000000000E+00 0.  1.
          2   -1    0    0  501    0  0.00000000000E+00 -0.00000000000E+00 -0.40486273338E+04  0.40486273338E+04  0.00000000000E+00 0. -1.
         24    2    1    2    0    0 -0.59590505962E+03 -0.13036404284E+04 -0.16485950554E+04  0.21860460044E+04  0.79688581792E+02 0.  0.
        254    2    1    2    0    0  0.59590505962E+03  0.13036404284E+04 -0.17952920240E+04  0.24673215839E+04  0.90001174451E+03 0.  0.
         23    2    4    4    0    0  0.75117463311E+03  0.74136422948E+03 -0.14047999711E+04  0.17595698554E+04  0.93481907682E+02 0.  0.
         23    2    4    4    0    0 -0.15526957349E+03  0.56227619893E+03 -0.39049205289E+03  0.70775172848E+03  0.90362057671E+02 0.  0.
          4    1    3    3  502    0 -0.96151250059E+02 -0.24190571406E+03 -0.34296625972E+03  0.43056856909E+03  0.00000000000E+00 0. -1.
         -3    1    3    3    0  502 -0.49975380956E+03 -0.10617347143E+04 -0.13056287957E+04  0.17554774353E+04  0.00000000000E+00 0.  1.
         11    1    5    5    0    0  0.51583241856E+03  0.52541087009E+03 -0.10464741826E+04  0.12795498744E+04  0.00000000000E+00 0. -1.
        -11    1    5    5    0    0  0.23534221455E+03  0.21595335940E+03 -0.35832578856E+03  0.48001998097E+03  0.00000000000E+00 0.  1.
          2    1    6    6  503    0 -0.41166496080E+02  0.11946009265E+03 -0.43177404487E+02  0.13352783378E+03  0.00000000000E+00 0. -1.
         -2    1    6    6    0  503 -0.11410307741E+03  0.44281610628E+03 -0.34731464840E+03  0.57422389470E+03  0.00000000000E+00 0.  1.
<mgrwt>
<rscale>  0 0.31294523E+04</rscale>
<asrwt>0</asrwt>
<pdfrwt beam="1">  1        2 0.62286573E+00 0.31294523E+04</pdfrwt>
<pdfrwt beam="2">  1       -1 0.93036964E-01 0.31294523E+04</pdfrwt>
<totfact> 0.33653630E-01</totfact>
</mgrwt>
</event>
<event>
12    6  0.1402540E-007  0.1312790E+04  0.7818608E-02  0.9019484E-01
         -1   -1    0    0    0  501 -0.00000000000E+00  0.00000000000E+00  0.23345803550E+03  0.23345803550E+03  0.00000000000E+00 0.  1.
          2   -1    0    0  501    0  0.00000000000E+00 -0.00000000000E+00 -0.18455320989E+04  0.18455320989E+04  0.00000000000E+00 0. -1.
         24    2    1    2    0    0 -0.25246175822E+03  0.15391410441E+03 -0.69956442501E+03  0.76373226923E+03  0.80436953080E+02 0.  0.
        254    2    1    2    0    0  0.25246175822E+03 -0.15391410441E+03 -0.91250963838E+03  0.13152578652E+04  0.89989050492E+03 0.  0.
         23    2    4    4    0    0  0.12704695462E+02  0.64511969602E+02  0.15424091086E+03  0.19648938150E+03  0.10244322794E+03 0.  0.
         23    2    4    4    0    0  0.23975706276E+03 -0.21842607402E+03 -0.10667505492E+04  0.11187684837E+04  0.92156317048E+02 0.  0.
          4    1    3    3  502    0 -0.15500447479E+03  0.95723205460E+02 -0.52307861651E+03  0.55389580096E+03  0.00000000000E+00 0. -1.
         -3    1    3    3    0  502 -0.97457283434E+02  0.58190898954E+02 -0.17648580850E+03  0.20983646828E+03  0.00000000000E+00 0.  1.
         11    1    5    5    0    0 -0.26938912829E+01 -0.22545685762E+02  0.53487685544E+01  0.23327544272E+02  0.00000000000E+00 0. -1.
        -11    1    5    5    0    0  0.15398586745E+02  0.87057655364E+02  0.14889214231E+03  0.17316183723E+03  0.00000000000E+00 0.  1.
          3    1    6    6  503    0  0.18638141596E+03 -0.12252297111E+03 -0.79482675929E+03  0.82552982257E+03  0.00000000000E+00 0. -1.
         -3    1    6    6    0  503  0.53375646806E+02 -0.95903102905E+02 -0.27192378995E+03  0.29323866109E+03  0.00000000000E+00 0.  1.
<mgrwt>
<rscale>  0 0.13127899E+04</rscale>
<asrwt>0</asrwt>
<pdfrwt beam="1">  1        2 0.28392801E+00 0.13127899E+04</pdfrwt>
<pdfrwt beam="2">  1       -1 0.35916621E-01 0.13127899E+04</pdfrwt>
<totfact> 0.67291389E+01</totfact>
</mgrwt>
</event>
<event>
12    6  0.1402540E-007  0.1719427E+04  0.7818608E-02  0.8750361E-01
         -1   -1    0    0    0  501 -0.00000000000E+00  0.00000000000E+00  0.75139829831E+03  0.75139829831E+03  0.00000000000E+00 0.  1.
          2   -1    0    0  501    0  0.00000000000E+00 -0.00000000000E+00 -0.98364228393E+03  0.98364228393E+03  0.00000000000E+00 0. -1.
         24    2    1    2    0    0 -0.45804206057E+02 -0.36559898885E+03 -0.58929895168E+03  0.69973195301E+03  0.81184393047E+02 0.  0.
        254    2    1    2    0    0  0.45804206057E+02  0.36559898885E+03  0.35705496606E+03  0.10353086292E+04  0.89923026141E+03 0.  0.
         23    2    4    4    0    0 -0.25316497931E+03 -0.55068286935E+02  0.42562972141E+03  0.50657111183E+03  0.91261210930E+02 0.  0.
         23    2    4    4    0    0  0.29896918536E+03  0.42066727578E+03 -0.68574755346E+02  0.52873751740E+03  0.92289406360E+02 0.  0.
          2    1    3    3  502    0 -0.29453527047E+01 -0.22825170315E+03 -0.41578123600E+03  0.47432220200E+03  0.00000000000E+00 0. -1.
         -1    1    3    3    0  502 -0.42858853352E+02 -0.13734728569E+03 -0.17351771567E+03  0.22540975101E+03  0.00000000000E+00 0.  1.
         11    1    5    5    0    0  0.67469863697E+01 -0.66299101613E+01  0.23294768804E+02  0.25142072059E+02  0.00000000000E+00 0.  1.
        -11    1    5    5    0    0 -0.25991196568E+03 -0.48438376774E+02  0.40233495260E+03  0.48142903977E+03  0.00000000000E+00 0. -1.
          1    1    6    6  503    0  0.18750147301E+03  0.18973509944E+03 -0.52025350650E+02  0.27177720186E+03  0.00000000000E+00 0. -1.
         -1    1    6    6    0  503  0.11146771235E+03  0.23093217634E+03 -0.16549404695E+02  0.25696031554E+03  0.00000000000E+00 0.  1.
<mgrwt>
<rscale>  0 0.17194268E+04</rscale>
<asrwt>0</asrwt>
<pdfrwt beam="1">  1        2 0.15132958E+00 0.17194268E+04</pdfrwt>
<pdfrwt beam="2">  1       -1 0.11559974E+00 0.17194268E+04</pdfrwt>
<totfact> 0.18968388E+01</totfact>
</mgrwt>
</event>
<event>
12    6  0.1402540E-007  0.1245936E+04  0.7818608E-02  0.9073572E-01
          2   -1    0    0  501    0  0.00000000000E+00  0.00000000000E+00  0.21841840465E+04  0.21841840465E+04  0.00000000000E+00 0. -1.
         -1   -1    0    0    0  501 -0.00000000000E+00 -0.00000000000E+00 -0.17768155730E+03  0.17768155730E+03  0.00000000000E+00 0.  1.
         24    2    1    2    0    0  0.42084185485E+02 -0.79064691147E+02 -0.38273075657E+02  0.12603049317E+03  0.79978452309E+02 0.  0.
        254    2    1    2    0    0 -0.42084185485E+02  0.79064691147E+02  0.20447755649E+04  0.22358351107E+04  0.89990512126E+03 0.  0.
         23    2    4    4    0    0  0.69088536251E+02 -0.28674379577E+03  0.24666277488E+03  0.39521990490E+03  0.91438604866E+02 0.  0.
         23    2    4    4    0    0 -0.11117272174E+03  0.36580848692E+03  0.17981127900E+04  0.18406152058E+04  0.92084238439E+02 0.  0.
          4    1    3    3  502    0 -0.48715085041E+01 -0.63060494521E+02  0.20523542271E+00  0.63248712919E+02  0.00000000000E+00 0. -1.
         -3    1    3    3    0  502  0.46955693990E+02 -0.16004196626E+02 -0.38478311080E+02  0.62781780249E+02  0.00000000000E+00 0.  1.
         11    1    5    5    0    0  0.29826706418E+01 -0.18576504442E+03  0.17275196525E+03  0.25369428364E+03  0.00000000000E+00 0. -1.
        -11    1    5    5    0    0  0.66105865609E+02 -0.10097875134E+03  0.73910809630E+02  0.14152562125E+03  0.00000000000E+00 0.  1.
          2    1    6    6  503    0  0.12399343104E+02  0.92008445522E+02  0.41533814017E+03  0.42558790918E+03  0.00000000000E+00 0. -1.
         -2    1    6    6    0  503 -0.12357206484E+03  0.27380004139E+03  0.13827746498E+04  0.14150272966E+04  0.00000000000E+00 0.  1.
<mgrwt>
<rscale>  0 0.12459362E+04</rscale>
<asrwt>0</asrwt>
<pdfrwt beam="1">  1        2 0.33602830E+00 0.12459362E+04</pdfrwt>
<pdfrwt beam="2">  1       -1 0.27335626E-01 0.12459362E+04</pdfrwt>
<totfact> 0.71073031E+01</totfact>
</mgrwt>
</event>
<event>
12    6  0.1402540E-007  0.2622132E+04  0.7818608E-02  0.8360722E-01
         -1   -1    0    0    0  501 -0.00000000000E+00  0.00000000000E+00  0.18512696114E+04  0.18512696114E+04  0.00000000000E+00 0.  1.
          2   -1    0    0  501    0  0.00000000000E+00 -0.00000000000E+00 -0.92849483218E+03  0.92849483218E+03  0.00000000000E+00 0. -1.
         24    2    1    2    0    0  0.80347432786E+03 -0.69016947558E+03 -0.80344922946E+02  0.10649335434E+04  0.75652129576E+02 0.  0.
        254    2    1    2    0    0 -0.80347432786E+03  0.69016947558E+03  0.10031197022E+04  0.17148309002E+04  0.90138281475E+03 0.  0.
         23    2    4    4    0    0  0.97270707992E+02  0.40832857465E+03  0.20740580617E+03  0.47710780678E+03  0.91765327598E+02 0.  0.
         23    2    4    4    0    0 -0.90074503585E+03  0.28184090093E+03  0.79571389599E+03  0.12377230934E+04  0.89565275399E+02 0.  0.
          2    1    3    3  502    0  0.60407684296E+03 -0.55988552097E+03 -0.57136804939E+02  0.82561809772E+03  0.00000000000E+00 0. -1.
         -3    1    3    3    0  502  0.19939748490E+03 -0.13028395460E+03 -0.23208118007E+02  0.23931544570E+03  0.00000000000E+00 0.  1.
         11    1    5    5    0    0  0.72275970681E+02  0.39456653533E+03  0.19411292088E+03  0.44563033200E+03  0.00000000000E+00 0. -1.
        -11    1    5    5    0    0  0.24994737310E+02  0.13762039314E+02  0.13292885291E+02  0.31477474782E+02  0.00000000000E+00 0.  1.
          3    1    6    6  503    0 -0.25970004554E+03  0.39762834799E+02  0.22831841251E+03  0.34807254154E+03  0.00000000000E+00 0. -1.
         -3    1    6    6    0  503 -0.64104499032E+03  0.24207806613E+03  0.56739548349E+03  0.88965055184E+03  0.00000000000E+00 0.  1.
<mgrwt>
<rscale>  0 0.26221322E+04</rscale>
<asrwt>0</asrwt>
<pdfrwt beam="1">  1        2 0.14284536E+00 0.26221322E+04</pdfrwt>
<pdfrwt beam="2">  1       -1 0.28481071E+00 0.26221322E+04</pdfrwt>
<totfact> 0.11700080E+00</totfact>
</mgrwt>
</event>
<event>
12    6  0.1402540E-007  0.1745978E+04  0.7818608E-02  0.8735567E-01
         -1   -1    0    0    0  501 -0.00000000000E+00  0.00000000000E+00  0.22453294239E+03  0.22453294239E+03  0.00000000000E+00 0.  1.
          2   -1    0    0  501    0  0.00000000000E+00 -0.00000000000E+00 -0.33941997135E+04  0.33941997135E+04  0.00000000000E+00 0. -1.
         24    2    1    2    0    0  0.44338179153E+03 -0.45921759175E+03 -0.12149266954E+04  0.13748836633E+04  0.82401472134E+02 0.  0.
        254    2    1    2    0    0 -0.44338179153E+03  0.45921759175E+03 -0.19547400756E+04  0.22438489926E+04  0.89798737664E+03 0.  0.
         23    2    4    4    0    0 -0.20932577706E+03 -0.68384234746E+02 -0.39277592503E+02  0.24128575596E+03  0.90456631893E+02 0.  0.
         23    2    4    4    0    0 -0.23405601447E+03  0.52760182650E+03 -0.19154624831E+04  0.20025632366E+04  0.90094878629E+02 0.  0.
          4    1    3    3  502    0  0.25252582363E+03 -0.30362970001E+03 -0.68868544789E+03  0.79388156072E+03  0.00000000000E+00 0. -1.
         -3    1    3    3    0  502  0.19085596790E+03 -0.15558789174E+03 -0.52624124754E+03  0.58100210254E+03  0.00000000000E+00 0.  1.
         11    1    5    5    0    0 -0.19200943539E+03 -0.42823827562E+02 -0.58099616055E+02  0.20512695793E+03  0.00000000000E+00 0.  1.
        -11    1    5    5    0    0 -0.17316341673E+02 -0.25560407184E+02  0.18822023552E+02  0.36158798030E+02  0.00000000000E+00 0. -1.
          4    1    6    6  503    0 -0.10950790851E+03  0.17090782215E+03 -0.77542505347E+03  0.80155191925E+03  0.00000000000E+00 0. -1.
         -4    1    6    6    0  503 -0.12454810595E+03  0.35669400435E+03 -0.11400374297E+04  0.12010113174E+04  0.00000000000E+00 0.  1.
<mgrwt>
<rscale>  0 0.17459778E+04</rscale>
<asrwt>0</asrwt>
<pdfrwt beam="1">  1        2 0.52218456E+00 0.17459778E+04</pdfrwt>
<pdfrwt beam="2">  1       -1 0.34543530E-01 0.17459778E+04</pdfrwt>
<totfact> 0.83171542E+00</totfact>
</mgrwt>
</event>
<event>
12    6  0.1402540E-007  0.1398821E+04  0.7818608E-02  0.8954672E-01
          2   -1    0    0  501    0  0.00000000000E+00  0.00000000000E+00  0.33287568445E+04  0.33287568445E+04  0.00000000000E+00 0. -1.
         -1   -1    0    0    0  501 -0.00000000000E+00 -0.00000000000E+00 -0.14695434593E+03  0.14695434593E+03  0.00000000000E+00 0.  1.
         24    2    1    2    0    0 -0.81585015096E+02  0.24030538976E+03  0.15620491552E+03  0.30944344767E+03  0.83381512550E+02 0.  0.
        254    2    1    2    0    0  0.81585015096E+02 -0.24030538976E+03  0.30255975830E+04  0.31662677427E+04  0.89811351689E+03 0.  0.
         23    2    4    4    0    0 -0.22218659966E+03 -0.50530046518E+02  0.20010954328E+03  0.31670892174E+03  0.91326563130E+02 0.  0.
         23    2    4    4    0    0  0.30377161475E+03 -0.18977534324E+03  0.28254880397E+04  0.28495588210E+04  0.91164338843E+02 0.  0.
          4    1    3    3  502    0 -0.61248839532E+02  0.67274079408E+02  0.71545849650E+02  0.11574122302E+03  0.00000000000E+00 0. -1.
         -3    1    3    3    0  502 -0.20336175564E+02  0.17303131035E+03  0.84659065874E+02  0.19370222465E+03  0.00000000000E+00 0.  1.
         11    1    5    5    0    0 -0.40021780710E+02 -0.98370371020E+01  0.92477499748E+02  0.10124523786E+03  0.00000000000E+00 0. -1.
        -11    1    5    5    0    0 -0.18216481895E+03 -0.40693009416E+02  0.10763204353E+03  0.21546368388E+03  0.00000000000E+00 0.  1.
          1    1    6    6  503    0  0.17412234099E+03 -0.89537144855E+02  0.12047385371E+04  0.12205451375E+04  0.00000000000E+00 0. -1.
         -1    1    6    6    0  503  0.12964927377E+03 -0.10023819839E+03  0.16207495027E+04  0.16290136835E+04  0.00000000000E+00 0.  1.
<mgrwt>
<rscale>  0 0.13988213E+04</rscale>
<asrwt>0</asrwt>
<pdfrwt beam="1">  1        2 0.51211638E+00 0.13988213E+04</pdfrwt>
<pdfrwt beam="2">  1       -1 0.22608363E-01 0.13988213E+04</pdfrwt>
<totfact> 0.19925919E+01</totfact>
</mgrwt>
</event>
<event>
12    6  0.1402540E-007  0.3249049E+04  0.7818608E-02  0.8175982E-01
         -1   -1    0    0    0  501 -0.00000000000E+00  0.00000000000E+00  0.21760878263E+04  0.21760878263E+04  0.00000000000E+00 0.  1.
          2   -1    0    0  501    0  0.00000000000E+00 -0.00000000000E+00 -0.12127632854E+04  0.12127632854E+04  0.00000000000E+00 0. -1.
         24    2    1    2    0    0 -0.13821238982E+04  0.43084470823E+03  0.84794983977E+03  0.16797372761E+04  0.81269633222E+02 0.  0.
        254    2    1    2    0    0  0.13821238982E+04 -0.43084470823E+03  0.11537470107E+03  0.17091138356E+04  0.90103559802E+03 0.  0.
         23    2    4    4    0    0  0.66742337708E+03 -0.95684006053E+02 -0.37354940708E+03  0.77610446431E+03  0.90496335315E+02 0.  0.
         23    2    4    4    0    0  0.71470052111E+03 -0.33516070218E+03  0.48892410815E+03  0.93300937131E+03  0.91269777343E+02 0.  0.
          4    1    3    3  502    0 -0.11340459785E+04  0.36041742179E+03  0.66085741988E+03  0.13611368515E+04  0.00000000000E+00 0. -1.
         -3    1    3    3    0  502 -0.24807791973E+03  0.70427286442E+02  0.18709241989E+03  0.31860042453E+03  0.00000000000E+00 0.  1.
         11    1    5    5    0    0  0.41336026116E+03 -0.54241953572E+02 -0.28003752677E+03  0.50222496098E+03  0.00000000000E+00 0.  1.
        -11    1    5    5    0    0  0.25406311592E+03 -0.41442052481E+02 -0.93511880314E+02  0.27387950333E+03  0.00000000000E+00 0. -1.
          2    1    6    6  503    0  0.35993141389E+03 -0.13459609825E+03  0.27666398259E+03  0.47350785805E+03  0.00000000000E+00 0. -1.
         -2    1    6    6    0  503  0.35476910722E+03 -0.20056460392E+03  0.21226012556E+03  0.45950151326E+03  0.00000000000E+00 0.  1.
<mgrwt>
<rscale>  0 0.32490487E+04</rscale>
<asrwt>0</asrwt>
<pdfrwt beam="1">  1        2 0.18657897E+00 0.32490487E+04</pdfrwt>
<pdfrwt beam="2">  1       -1 0.33478274E+00 0.32490487E+04</pdfrwt>
<totfact> 0.34808228E-01</totfact>
</mgrwt>
</event>
<event>
12    6  0.1402540E-007  0.3036747E+04  0.7818608E-02  0.8233315E-01
         -1   -1    0    0    0  501 -0.00000000000E+00  0.00000000000E+00  0.17540028031E+04  0.17540028031E+04  0.00000000000E+00 0.  1.
          2   -1    0    0  501    0  0.00000000000E+00 -0.00000000000E+00 -0.13143979320E+04  0.13143979320E+04  0.00000000000E+00 0. -1.
         24    2    1    2    0    0 -0.11553701487E+04 -0.44893393521E+02 -0.56772150279E+03  0.12905296271E+04  0.79141748383E+02 0.  0.
        254    2    1    2    0    0  0.11553701487E+04  0.44893393521E+02  0.10073263739E+04  0.17778711079E+04  0.89956859409E+03 0.  0.
         23    2    4    4    0    0  0.31597931626E+03 -0.38401000874E+03  0.24433294032E+03  0.56164785364E+03  0.91886400819E+02 0.  0.
         23    2    4    4    0    0  0.83939083247E+03  0.42890340226E+03  0.76299343360E+03  0.12162232543E+04  0.92222158239E+02 0.  0.
          2    1    3    3  502    0 -0.51886252862E+03 -0.39436096987E+00 -0.29262800604E+03  0.59569256252E+03  0.00000000000E+00 0. -1.
         -1    1    3    3    0  502 -0.63650762012E+03 -0.44499032551E+02 -0.27509349674E+03  0.69483706458E+03  0.00000000000E+00 0.  1.
         11    1    5    5    0    0  0.19728837796E+03 -0.29756866929E+03  0.15089584183E+03  0.38760723948E+03  0.00000000000E+00 0. -1.
        -11    1    5    5    0    0  0.11869093831E+03 -0.86441339453E+02  0.93437098485E+02  0.17404061416E+03  0.00000000000E+00 0.  1.
          2    1    6    6  503    0  0.19768453986E+03  0.80632261304E+02  0.21796251975E+03  0.30510391488E+03  0.00000000000E+00 0. -1.
         -2    1    6    6    0  503  0.64170629261E+03  0.34827114096E+03  0.54503091386E+03  0.91111933942E+03  0.00000000000E+00 0.  1.
<mgrwt>
<rscale>  0 0.30367467E+04</rscale>
<asrwt>0</asrwt>
<pdfrwt beam="1">  1        2 0.20221507E+00 0.30367467E+04</pdfrwt>
<pdfrwt beam="2">  1       -1 0.26984659E+00 0.30367467E+04</pdfrwt>
<totfact> 0.81623817E-01</totfact>
</mgrwt>
</event>
<event>
12    6  0.1402540E-007  0.2676541E+04  0.7818608E-02  0.8342657E-01
         -1   -1    0    0    0  501 -0.00000000000E+00  0.00000000000E+00  0.49292866713E+03  0.49292866713E+03  0.00000000000E+00 0.  1.
          2   -1    0    0  501    0  0.00000000000E+00 -0.00000000000E+00 -0.36333199487E+04  0.36333199487E+04  0.00000000000E+00 0. -1.
         24    2    1    2    0    0 -0.17578532414E+03  0.10955268228E+04 -0.20349436099E+04  0.23191192704E+04  0.78988576961E+02 0.  0.
        254    2    1    2    0    0  0.17578532414E+03 -0.10955268228E+04 -0.11054476716E+04  0.18071293454E+04  0.90145572078E+03 0.  0.
         23    2    4    4    0    0 -0.21642227803E+03 -0.86545733640E+03 -0.97504036056E+03  0.13247770824E+04  0.92063074899E+02 0.  0.
         23    2    4    4    0    0  0.39220760217E+03 -0.23006948640E+03 -0.13040731106E+03  0.48235226297E+03  0.94333806456E+02 0.  0.
          2    1    3    3  502    0 -0.10438809951E+03  0.47134850177E+03 -0.82835141236E+03  0.95876605479E+03  0.00000000000E+00 0. -1.
         -1    1    3    3    0  502 -0.71397224629E+02  0.62417832103E+03 -0.12065921976E+04  0.13603532157E+04  0.00000000000E+00 0.  1.
         11    1    5    5    0    0 -0.15046548912E+03 -0.43201337520E+03 -0.52824785008E+03  0.69879983606E+03  0.00000000000E+00 0.  1.
        -11    1    5    5    0    0 -0.65956788916E+02 -0.43344396120E+03 -0.44679251048E+03  0.62597724633E+03  0.00000000000E+00 0. -1.
          4    1    6    6  503    0  0.16643479908E+03 -0.66876525265E+02 -0.90580774323E+02  0.20094250087E+03  0.00000000000E+00 0. -1.
         -4    1    6    6    0  503  0.22577280309E+03 -0.16319296114E+03 -0.39826536736E+02  0.28140976210E+03  0.00000000000E+00 0.  1.
<mgrwt>
<rscale>  0 0.26765407E+04</rscale>
<asrwt>0</asrwt>
<pdfrwt beam="1">  1        2 0.55897231E+00 0.26765407E+04</pdfrwt>
<pdfrwt beam="2">  1       -1 0.75835178E-01 0.26765407E+04</pdfrwt>
<totfact> 0.11407937E+00</totfact>
</mgrwt>
</event>
<event>
12    6  0.1402540E-007  0.1798461E+04  0.7818608E-02  0.8707118E-01
          2   -1    0    0  501    0  0.00000000000E+00  0.00000000000E+00  0.85717872813E+03  0.85717872813E+03  0.00000000000E+00 0. -1.
         -1   -1    0    0    0  501 -0.00000000000E+00 -0.00000000000E+00 -0.94334491832E+03  0.94334491832E+03  0.00000000000E+00 0.  1.
         24    2    1    2    0    0 -0.37569695235E+03 -0.54486851265E+03  0.87226736177E+02  0.67230238005E+03  0.79700003995E+02 0.  0.
        254    2    1    2    0    0  0.37569695235E+03  0.54486851265E+03 -0.17339292637E+03  0.11282212664E+04  0.89709989576E+03 0.  0.
         23    2    4    4    0    0  0.29381282968E+03 -0.12052142602E+03 -0.29292513498E+03  0.44144783928E+03  0.90662379649E+02 0.  0.
         23    2    4    4    0    0  0.81884122669E+02  0.66538993867E+03  0.11953220861E+03  0.68677342713E+03  0.89000063415E+02 0.  0.
          2    1    3    3  502    0 -0.14598692378E+03 -0.15750556460E+03  0.49401332661E+02  0.22036487121E+03  0.00000000000E+00 0. -1.
         -1    1    3    3    0  502 -0.22971002857E+03 -0.38736294805E+03  0.37825403516E+02  0.45193750884E+03  0.00000000000E+00 0.  1.
         11    1    5    5    0    0  0.52478918969E+02 -0.13671501814E+02 -0.10260432063E+03  0.11605426968E+03  0.00000000000E+00 0. -1.
        -11    1    5    5    0    0  0.24133391071E+03 -0.10684992421E+03 -0.19032081435E+03  0.32539356960E+03  0.00000000000E+00 0.  1.
          3    1    6    6  503    0  0.72317884543E+02  0.23838733712E+03  0.48673694954E+02  0.25382578180E+03  0.00000000000E+00 0. -1.
         -3    1    6    6    0  503  0.95662381261E+01  0.42700260155E+03  0.70858513658E+02  0.43294764534E+03  0.00000000000E+00 0.  1.
<mgrwt>
<rscale>  0 0.17984607E+04</rscale>
<asrwt>0</asrwt>
<pdfrwt beam="1">  1        2 0.13187365E+00 0.17984607E+04</pdfrwt>
<pdfrwt beam="2">  1       -1 0.14512999E+00 0.17984607E+04</pdfrwt>
<totfact> 0.12888428E+01</totfact>
</mgrwt>
</event>
<event>
12    6  0.1402540E-007  0.1561432E+04  0.7818608E-02  0.8844599E-01
          2   -1    0    0  501    0  0.00000000000E+00  0.00000000000E+00  0.17175742677E+04  0.17175742677E+04  0.00000000000E+00 0. -1.
         -1   -1    0    0    0  501 -0.00000000000E+00 -0.00000000000E+00 -0.35487100955E+03  0.35487100955E+03  0.00000000000E+00 0.  1.
         24    2    1    2    0    0  0.36529274176E+03  0.34969691112E+03  0.59583924604E+03  0.78562547156E+03  0.80350840796E+02 0.  0.
        254    2    1    2    0    0 -0.36529274176E+03 -0.34969691112E+03  0.76686401214E+03  0.12868198057E+04  0.90116484754E+03 0.  0.
         23    2    4    4    0    0 -0.23198143031E+03 -0.64246964832E+03  0.44589849392E+03  0.82124420283E+03  0.95047045132E+02 0.  0.
         23    2    4    4    0    0 -0.13331131145E+03  0.29277273720E+03  0.32096551822E+03  0.46557560289E+03  0.10126202007E+03 0.  0.
          4    1    3    3  502    0  0.30918759843E+03  0.25796084382E+03  0.49619675541E+03  0.63902424684E+03  0.00000000000E+00 0. -1.
         -3    1    3    3    0  502  0.56105143336E+02  0.91736067302E+02  0.99642490628E+02  0.14660122473E+03  0.00000000000E+00 0.  1.
         11    1    5    5    0    0 -0.22740533685E+03 -0.63675225309E+03  0.42383998863E+03  0.79800185151E+03  0.00000000000E+00 0. -1.
        -11    1    5    5    0    0 -0.45760934677E+01 -0.57173952227E+01  0.22058505290E+02  0.23242351326E+02  0.00000000000E+00 0.  1.
          2    1    6    6  503    0 -0.11318253730E+03  0.29112867199E+03  0.31692320961E+03  0.44497922558E+03  0.00000000000E+00 0. -1.
         -2    1    6    6    0  503 -0.20128774155E+02  0.16440652057E+01  0.40423086106E+01  0.20596377310E+02  0.00000000000E+00 0.  1.
<mgrwt>
<rscale>  0 0.15614318E+04</rscale>
<asrwt>0</asrwt>
<pdfrwt beam="1">  1        2 0.26424219E+00 0.15614318E+04</pdfrwt>
<pdfrwt beam="2">  1       -1 0.54595541E-01 0.15614318E+04</pdfrwt>
<totfact> 0.35605180E+01</totfact>
</mgrwt>
</event>
<event>
12    6  0.1402540E-007  0.1697075E+04  0.7818608E-02  0.8763034E-01
          2   -1    0    0  501    0  0.00000000000E+00  0.00000000000E+00  0.33010885420E+04  0.33010885420E+04  0.00000000000E+00 0. -1.
         -1   -1    0    0    0  501 -0.00000000000E+00 -0.00000000000E+00 -0.21811476789E+03  0.21811476789E+03  0.00000000000E+00 0.  1.
         24    2    1    2    0    0  0.49282168156E+03 -0.33084618826E+03  0.13654595570E+04  0.14911618360E+04  0.82166959824E+02 0.  0.
        254    2    1    2    0    0 -0.49282168156E+03  0.33084618826E+03  0.17175142171E+04  0.20280414739E+04  0.90042474625E+03 0.  0.
         23    2    4    4    0    0  0.21880900452E+03  0.18237690444E+03  0.79981467786E+03  0.85375805201E+03  0.89780714666E+02 0.  0.
         23    2    4    4    0    0 -0.71163068608E+03  0.14846928382E+03  0.91769953926E+03  0.11742834219E+04  0.91146853497E+02 0.  0.
          4    1    3    3  502    0  0.12686617096E+03 -0.81652848631E+02  0.44230074173E+03  0.46732446882E+03  0.00000000000E+00 0. -1.
         -3    1    3    3    0  502  0.36595551060E+03 -0.24919333963E+03  0.92315881523E+03  0.10238373672E+04  0.00000000000E+00 0.  1.
         11    1    5    5    0    0  0.55920465192E+02  0.95056223515E+02  0.23766513526E+03  0.26200668040E+03  0.00000000000E+00 0. -1.
        -11    1    5    5    0    0  0.16288853932E+03  0.87320680929E+02  0.56214954260E+03  0.59175137161E+03  0.00000000000E+00 0.  1.
          4    1    6    6  503    0 -0.58459958936E+03  0.14328665157E+03  0.79903641193E+03  0.10003733963E+04  0.00000000000E+00 0. -1.
         -4    1    6    6    0  503 -0.12703109672E+03  0.51826322503E+01  0.11866312733E+03  0.17391002558E+03  0.00000000000E+00 0.  1.
<mgrwt>
<rscale>  0 0.16970753E+04</rscale>
<asrwt>0</asrwt>
<pdfrwt beam="1">  1        2 0.50785974E+00 0.16970753E+04</pdfrwt>
<pdfrwt beam="2">  1       -1 0.33556120E-01 0.16970753E+04</pdfrwt>
<totfact> 0.10161106E+01</totfact>
</mgrwt>
</event>
<event>
12    6  0.1402540E-007  0.2016666E+04  0.7818608E-02  0.8598868E-01
         -1   -1    0    0    0  501 -0.00000000000E+00  0.00000000000E+00  0.53642316630E+03  0.53642316630E+03  0.00000000000E+00 0.  1.
          2   -1    0    0  501    0  0.00000000000E+00 -0.00000000000E+00 -0.18953982289E+04  0.18953982289E+04  0.00000000000E+00 0. -1.
         24    2    1    2    0    0 -0.47778491041E+03 -0.56467865242E+03 -0.16419639802E+03  0.76194967641E+03  0.80414247129E+02 0.  0.
        254    2    1    2    0    0  0.47778491041E+03  0.56467865242E+03 -0.11947786645E+04  0.16698717187E+04  0.90212809442E+03 0.  0.
         23    2    4    4    0    0  0.15562558025E+03  0.34112479465E+03 -0.12070918690E+04  0.12672506618E+04  0.90928614540E+02 0.  0.
         23    2    4    4    0    0  0.32215933017E+03  0.22355385777E+03  0.12313204435E+02  0.40262105695E+03  0.90493862555E+02 0.  0.
          2    1    3    3  502    0 -0.12696305497E+03 -0.19903795696E+03 -0.31809294824E+02  0.23821745712E+03  0.00000000000E+00 0. -1.
         -1    1    3    3    0  502 -0.35082185544E+03 -0.36564069546E+03 -0.13238710319E+03  0.52373221929E+03  0.00000000000E+00 0.  1.
         11    1    5    5    0    0  0.60060935489E+02  0.21498563586E+03 -0.79750832709E+03  0.82815799904E+03  0.00000000000E+00 0.  1.
        -11    1    5    5    0    0  0.95564644758E+02  0.12613915879E+03 -0.40958354188E+03  0.43909266275E+03  0.00000000000E+00 0. -1.
          4    1    6    6  503    0  0.11448297253E+03  0.65415634666E+02  0.45510679420E+02  0.13948755572E+03  0.00000000000E+00 0. -1.
         -4    1    6    6    0  503  0.20767635763E+03  0.15813822311E+03 -0.33197474985E+02  0.26313350123E+03  0.00000000000E+00 0.  1.
<mgrwt>
<rscale>  0 0.20166661E+04</rscale>
<asrwt>0</asrwt>
<pdfrwt beam="1">  1        2 0.29159973E+00 0.20166661E+04</pdfrwt>
<pdfrwt beam="2">  1       -1 0.82526641E-01 0.20166661E+04</pdfrwt>
<totfact> 0.11775419E+01</totfact>
</mgrwt>
</event>
<event>
12    6  0.1402540E-007  0.2018116E+04  0.7818608E-02  0.8598197E-01
          2   -1    0    0  501    0  0.00000000000E+00  0.00000000000E+00  0.21840598858E+04  0.21840598858E+04  0.00000000000E+00 0. -1.
         -3   -1    0    0    0  501 -0.00000000000E+00 -0.00000000000E+00 -0.46619532989E+03  0.46619532989E+03  0.00000000000E+00 0.  1.
         24    2    1    2    0    0  0.65241560385E+03 -0.36214892741E+03  0.10887501165E+04  0.13223357133E+04  0.79980978266E+02 0.  0.
        254    2    1    2    0    0 -0.65241560385E+03  0.36214892741E+03  0.62911443948E+03  0.13279195024E+04  0.90043726104E+03 0.  0.
         23    2    4    4    0    0 -0.37433338679E+03  0.64907061910E+03  0.35033306834E+03  0.83217225014E+03  0.91428890921E+02 0.  0.
         23    2    4    4    0    0 -0.27808221706E+03 -0.28692169169E+03  0.27878137114E+03  0.49574725224E+03  0.91610635872E+02 0.  0.
          4    1    3    3  502    0  0.49108223918E+03 -0.25873689741E+03  0.86451174384E+03  0.10273690199E+04  0.00000000000E+00 0. -1.
         -3    1    3    3    0  502  0.16133336467E+03 -0.10341203000E+03  0.22423837263E+03  0.29496669348E+03  0.00000000000E+00 0.  1.
         11    1    5    5    0    0 -0.90961807675E+02  0.89646211339E+02  0.61712713489E+02  0.14184129395E+03  0.00000000000E+00 0. -1.
        -11    1    5    5    0    0 -0.28337157912E+03  0.55942440776E+03  0.28862035485E+03  0.69033095619E+03  0.00000000000E+00 0.  1.
          3    1    6    6  503    0 -0.11111418260E+03 -0.98726404024E+02  0.53302719107E+02  0.15790644157E+03  0.00000000000E+00 0. -1.
         -3    1    6    6    0  503 -0.16696803446E+03 -0.18819528766E+03  0.22547865203E+03  0.33784081067E+03  0.00000000000E+00 0.  1.
<mgrwt>
<rscale>  0 0.20181165E+04</rscale>
<asrwt>0</asrwt>
<pdfrwt beam="1">  1        2 0.33600921E+00 0.20181165E+04</pdfrwt>
<pdfrwt beam="2">  1       -3 0.71722359E-01 0.20181165E+04</pdfrwt>
<totfact> 0.57979470E+00</totfact>
</mgrwt>
</event>
<event>
12    6  0.1402540E-007  0.1110686E+04  0.7818608E-02  0.9194838E-01
         -3   -1    0    0    0  501 -0.00000000000E+00  0.00000000000E+00  0.47191658504E+03  0.47191658504E+03  0.00000000000E+00 0.  1.
          2   -1    0    0  501    0  0.00000000000E+00 -0.00000000000E+00 -0.65351826779E+03  0.65351826779E+03  0.00000000000E+00 0. -1.
         24    2    1    2    0    0  0.60729547879E+02 -0.50493938564E+02 -0.18989662046E+03  0.22059140720E+03  0.79762940343E+02 0.  0.
        254    2    1    2    0    0 -0.60729547879E+02  0.50493938564E+02  0.82949377008E+01  0.90484344563E+03  0.90135183990E+03 0.  0.
         23    2    4    4    0    0 -0.32896225958E+03  0.66608847794E+02 -0.31997566498E+03  0.47285085742E+03  0.92469456290E+02 0.  0.
         23    2    4    4    0    0  0.26823271170E+03 -0.16114909230E+02  0.32827060268E+03  0.43199258821E+03  0.81532384726E+02 0.  0.
          4    1    3    3  502    0  0.25081987516E+02  0.54354746611E+01 -0.12567919824E+03  0.12827280052E+03  0.00000000000E+00 0. -1.
         -1    1    3    3    0  502  0.35647560363E+02 -0.55929413225E+02 -0.64217422219E+02  0.92318606683E+02  0.00000000000E+00 0.  1.
         11    1    5    5    0    0 -0.26071214451E+03  0.64039082844E+02 -0.19990512401E+03  0.33471463223E+03  0.00000000000E+00 0.  1.
        -11    1    5    5    0    0 -0.68250115074E+02  0.25697649499E+01 -0.12007054097E+03  0.13813622518E+03  0.00000000000E+00 0. -1.
          1    1    6    6  503    0  0.18947463879E+02  0.16735608743E+02  0.55650290409E+02  0.61123169176E+02  0.00000000000E+00 0. -1.
         -1    1    6    6    0  503  0.24928524782E+03 -0.32850517973E+02  0.27262031227E+03  0.37086941904E+03  0.00000000000E+00 0.  1.
<mgrwt>
<rscale>  0 0.11106865E+04</rscale>
<asrwt>0</asrwt>
<pdfrwt beam="1">  1        2 0.10054127E+00 0.11106865E+04</pdfrwt>
<pdfrwt beam="2">  1       -3 0.72602552E-01 0.11106865E+04</pdfrwt>
<totfact> 0.50537283E+01</totfact>
</mgrwt>
</event>
<event>
12    6  0.1402540E-007  0.2672821E+04  0.7818608E-02  0.8343878E-01
         -1   -1    0    0    0  501 -0.00000000000E+00  0.00000000000E+00  0.21949543441E+04  0.21949543441E+04  0.00000000000E+00 0.  1.
          2   -1    0    0  501    0  0.00000000000E+00 -0.00000000000E+00 -0.81368107938E+03  0.81368107938E+03  0.00000000000E+00 0. -1.
         24    2    1    2    0    0  0.54453610508E+03  0.74210097150E+03 -0.22795912343E+03  0.95158044892E+03  0.79413897843E+02 0.  0.
        254    2    1    2    0    0 -0.54453610508E+03 -0.74210097150E+03  0.16092323882E+04  0.20570549746E+04  0.89141060553E+03 0.  0.
         23    2    4    4    0    0 -0.36675013348E+03 -0.35217045567E+03  0.15635323489E+03  0.53962078359E+03  0.90634241705E+02 0.  0.
         23    2    4    4    0    0 -0.17778597160E+03 -0.38993051583E+03  0.14528791533E+04  0.15174341910E+04  0.89972390519E+02 0.  0.
          2    1    3    3  502    0  0.90366157054E+02  0.16705877525E+03 -0.66500862943E+02  0.20123876739E+03  0.00000000000E+00 0. -1.
         -1    1    3    3    0  502  0.45416994803E+03  0.57504219625E+03 -0.16145826049E+03  0.75034168153E+03  0.00000000000E+00 0.  1.
         11    1    5    5    0    0 -0.23798897880E+02 -0.18822323353E+01 -0.32016246070E+01  0.24086941254E+02  0.00000000000E+00 0.  1.
        -11    1    5    5    0    0 -0.34295123560E+03 -0.35028822333E+03  0.15955485950E+03  0.51553384234E+03  0.00000000000E+00 0. -1.
          4    1    6    6  503    0 -0.13965699358E+03 -0.30980578255E+03  0.10065046638E+04  0.10623254384E+04  0.00000000000E+00 0. -1.
         -4    1    6    6    0  503 -0.38128978012E+02 -0.80124733285E+02  0.44637448943E+03  0.45510875256E+03  0.00000000000E+00 0.  1.
<mgrwt>
<rscale>  0 0.26728208E+04</rscale>
<asrwt>0</asrwt>
<pdfrwt beam="1">  1        2 0.12518171E+00 0.26728208E+04</pdfrwt>
<pdfrwt beam="2">  1       -1 0.33768528E+00 0.26728208E+04</pdfrwt>
<totfact> 0.63272799E-01</totfact>
</mgrwt>
</event>
<event>
12    6  0.1402540E-007  0.2053234E+04  0.7818608E-02  0.8582129E-01
          2   -1    0    0  501    0  0.00000000000E+00  0.00000000000E+00  0.26746700731E+04  0.26746700731E+04  0.00000000000E+00 0. -1.
         -1   -1    0    0    0  501 -0.00000000000E+00 -0.00000000000E+00 -0.39404573944E+03  0.39404573944E+03  0.00000000000E+00 0.  1.
         24    2    1    2    0    0  0.30207116912E+03 -0.47388399948E+03  0.16229636483E+02  0.56739503738E+03  0.76555151115E+02 0.  0.
        254    2    1    2    0    0 -0.30207116912E+03  0.47388399948E+03  0.22643946972E+04  0.25013207751E+04  0.90183659243E+03 0.  0.
         23    2    4    4    0    0 -0.26374265944E+03  0.54439934567E+03  0.69078415221E+03  0.92271120549E+03  0.91007614065E+02 0.  0.
         23    2    4    4    0    0 -0.38328509684E+02 -0.70515346192E+02  0.15736105450E+04  0.15786095697E+04  0.96522212510E+02 0.  0.
          4    1    3    3  502    0  0.11951744259E+03 -0.16487661203E+03  0.40672012719E+02  0.20766060988E+03  0.00000000000E+00 0. -1.
         -3    1    3    3    0  502  0.18255372653E+03 -0.30900738745E+03 -0.24442376236E+02  0.35973442749E+03  0.00000000000E+00 0.  1.
         11    1    5    5    0    0 -0.90488962646E+02  0.29112738713E+03  0.34288981335E+03  0.45882113290E+03  0.00000000000E+00 0. -1.
        -11    1    5    5    0    0 -0.17325369679E+03  0.25327195854E+03  0.34789433886E+03  0.46389007259E+03  0.00000000000E+00 0.  1.
          2    1    6    6  503    0 -0.23437825836E+02  0.78217818964E+01  0.10629786845E+03  0.10913179550E+03  0.00000000000E+00 0. -1.
         -2    1    6    6    0  503 -0.14890683848E+02 -0.78337128088E+02  0.14673126765E+04  0.14694777742E+04  0.00000000000E+00 0.  1.
<mgrwt>
<rscale>  0 0.20532339E+04</rscale>
<asrwt>0</asrwt>
<pdfrwt beam="1">  1        2 0.41148769E+00 0.20532339E+04</pdfrwt>
<pdfrwt beam="2">  1       -1 0.60622423E-01 0.20532339E+04</pdfrwt>
<totfact> 0.79945790E+00</totfact>
</mgrwt>
</event>
<event>
12    6  0.1402540E-007  0.3183162E+04  0.7818608E-02  0.8193278E-01
         -1   -1    0    0    0  501 -0.00000000000E+00  0.00000000000E+00  0.13331338801E+04  0.13331338801E+04  0.00000000000E+00 0.  1.
          2   -1    0    0  501    0  0.00000000000E+00 -0.00000000000E+00 -0.19001316756E+04  0.19001316756E+04  0.00000000000E+00 0. -1.
         24    2    1    2    0    0 -0.23724406276E+03  0.14181668400E+04  0.14304801492E+02  0.14393836079E+04  0.64332046456E+02 0.  0.
        254    2    1    2    0    0  0.23724406276E+03 -0.14181668400E+04 -0.58130259695E+03  0.17938819477E+04  0.90145316122E+03 0.  0.
         23    2    4    4    0    0  0.39086933153E+03 -0.10344337980E+04 -0.44756425190E+02  0.11104325121E+04  0.90692390011E+02 0.  0.
         23    2    4    4    0    0 -0.15362526877E+03 -0.38373304196E+03 -0.53654617176E+03  0.68344943560E+03  0.91485331628E+02 0.  0.
          4    1    3    3  502    0 -0.86615331051E+02  0.63418866459E+03 -0.19190307534E+02  0.64036376051E+03  0.00000000000E+00 0. -1.
         -3    1    3    3    0  502 -0.15062873171E+03  0.78397817536E+03  0.33495109026E+02  0.79901984743E+03  0.00000000000E+00 0.  1.
         11    1    5    5    0    0  0.11681762373E+03 -0.40735050948E+03  0.10054230373E+02  0.42388899766E+03  0.00000000000E+00 0. -1.
        -11    1    5    5    0    0  0.27405170780E+03 -0.62708328852E+03 -0.54810655563E+02  0.68654351446E+03  0.00000000000E+00 0.  1.
          4    1    6    6  503    0 -0.91399910124E+02 -0.28368379899E+03 -0.43833084814E+03  0.53006072653E+03  0.00000000000E+00 0. -1.
         -4    1    6    6    0  503 -0.62225358646E+02 -0.10004924297E+03 -0.98215323616E+02  0.15338870907E+03  0.00000000000E+00 0.  1.
<mgrwt>
<rscale>  0 0.31831619E+04</rscale>
<asrwt>0</asrwt>
<pdfrwt beam="1">  1        2 0.29232795E+00 0.31831619E+04</pdfrwt>
<pdfrwt beam="2">  1       -1 0.20509752E+00 0.31831619E+04</pdfrwt>
<totfact> 0.10112550E+00</totfact>
</mgrwt>
</event>
<event>
12    6  0.1402540E-007  0.1765987E+04  0.7818608E-02  0.8724599E-01
          2   -1    0    0  501    0  0.00000000000E+00  0.00000000000E+00  0.23514991425E+04  0.23514991425E+04  0.00000000000E+00 0. -1.
         -3   -1    0    0    0  501 -0.00000000000E+00 -0.00000000000E+00 -0.33156630475E+03  0.33156630475E+03  0.00000000000E+00 0.  1.
         24    2    1    2    0    0  0.18375845788E+03  0.62261082730E+03  0.71012649044E+03  0.96552813562E+03  0.80953907559E+02 0.  0.
        254    2    1    2    0    0 -0.18375845788E+03 -0.62261082730E+03  0.13098063473E+04  0.17175373117E+04  0.90162649488E+03 0.  0.
         23    2    4    4    0    0  0.13023989963E+03  0.14841913104E+03  0.84760969055E+02  0.23353337602E+03  0.91448050416E+02 0.  0.
         23    2    4    4    0    0 -0.31399835751E+03 -0.77102995834E+03  0.12250453783E+04  0.14840039356E+04  0.91920274825E+02 0.  0.
          4    1    3    3  502    0  0.14723670705E+03  0.45224735309E+03  0.56685040222E+03  0.73994979207E+03  0.00000000000E+00 0. -1.
         -3    1    3    3    0  502  0.36521750830E+02  0.17036347420E+03  0.14327608821E+03  0.22557834355E+03  0.00000000000E+00 0.  1.
         11    1    5    5    0    0  0.12757156771E+03  0.85437289645E+02  0.49594339866E+02  0.16134941555E+03  0.00000000000E+00 0. -1.
        -11    1    5    5    0    0  0.26683319196E+01  0.62981841400E+02  0.35166629188E+02  0.72183960475E+02  0.00000000000E+00 0.  1.
          2    1    6    6  503    0 -0.82617612564E+02 -0.14880385989E+03  0.30792598719E+03  0.35183330174E+03  0.00000000000E+00 0. -1.
         -2    1    6    6    0  503 -0.23138074495E+03 -0.62222609845E+03  0.91711939110E+03  0.11321706339E+04  0.00000000000E+00 0.  1.
<mgrwt>
<rscale>  0 0.17659874E+04</rscale>
<asrwt>0</asrwt>
<pdfrwt beam="1">  1        2 0.36176909E+00 0.17659874E+04</pdfrwt>
<pdfrwt beam="2">  1       -3 0.51010202E-01 0.17659874E+04</pdfrwt>
<totfact> 0.98382323E+00</totfact>
</mgrwt>
</event>
<event>
12    6  0.1402540E-007  0.3406496E+04  0.7818608E-02  0.8136314E-01
          2   -1    0    0  501    0  0.00000000000E+00  0.00000000000E+00  0.18626724414E+04  0.18626724414E+04  0.00000000000E+00 0. -1.
         -1   -1    0    0    0  501 -0.00000000000E+00 -0.00000000000E+00 -0.15574688695E+04  0.15574688695E+04  0.00000000000E+00 0.  1.
         24    2    1    2    0    0  0.11830698067E+04  0.10460730374E+04  0.36416303751E+02  0.15818738848E+04  0.84118209943E+02 0.  0.
        254    2    1    2    0    0 -0.11830698067E+04 -0.10460730374E+04  0.26878726814E+03  0.18382674260E+04  0.90169704823E+03 0.  0.
         23    2    4    4    0    0 -0.50666351715E+03 -0.52072280973E+03 -0.31584998777E+03  0.79708798478E+03  0.87908341622E+02 0.  0.
         23    2    4    4    0    0 -0.67640628956E+03 -0.52535022768E+03  0.58463725592E+03  0.10411794412E+04  0.93464311392E+02 0.  0.
          2    1    3    3  502    0  0.59332280612E+03  0.57966882905E+03  0.27091900704E+02  0.82992883714E+03  0.00000000000E+00 0. -1.
         -1    1    3    3    0  502  0.58974700059E+03  0.46640420836E+03  0.93244030465E+01  0.75194504771E+03  0.00000000000E+00 0.  1.
         11    1    5    5    0    0 -0.13021255756E+03 -0.98187662320E+02 -0.10066394153E+03  0.19164904462E+03  0.00000000000E+00 0.  1.
        -11    1    5    5    0    0 -0.37645095959E+03 -0.42253514741E+03 -0.21518604624E+03  0.60543894017E+03  0.00000000000E+00 0. -1.
          1    1    6    6  503    0 -0.85321235682E+02 -0.55692799671E+02  0.10734459677E+03  0.14800089070E+03  0.00000000000E+00 0. -1.
         -1    1    6    6    0  503 -0.59108505388E+03 -0.46965742801E+03  0.47729265915E+03  0.89317855050E+03  0.00000000000E+00 0.  1.
<mgrwt>
<rscale>  0 0.34064963E+04</rscale>
<asrwt>0</asrwt>
<pdfrwt beam="1">  1        2 0.28656499E+00 0.34064963E+04</pdfrwt>
<pdfrwt beam="2">  1       -1 0.23961059E+00 0.34064963E+04</pdfrwt>
<totfact> 0.61191593E-01</totfact>
</mgrwt>
</event>
<event>
12    6  0.1402540E-007  0.1254841E+04  0.7818608E-02  0.9066163E-01
          2   -1    0    0  501    0  0.00000000000E+00  0.00000000000E+00  0.44915494300E+03  0.44915494300E+03  0.00000000000E+00 0. -1.
         -1   -1    0    0    0  501 -0.00000000000E+00 -0.00000000000E+00 -0.87643841974E+03  0.87643841974E+03  0.00000000000E+00 0.  1.
         24    2    1    2    0    0  0.14611704173E+03 -0.24727783355E+03 -0.23055967440E+02  0.29886250307E+03  0.79313941121E+02 0.  0.
        254    2    1    2    0    0 -0.14611704173E+03  0.24727783355E+03 -0.40422750930E+03  0.10267308597E+04  0.89904385993E+03 0.  0.
         23    2    4    4    0    0  0.22266678960E+03 -0.22208035869E+03 -0.21970923130E+03  0.39470380327E+03  0.92837282837E+02 0.  0.
         23    2    4    4    0    0 -0.36878383134E+03  0.46935819224E+03 -0.18451827800E+03  0.63202705641E+03  0.95459825260E+02 0.  0.
          4    1    3    3  502    0  0.39300144948E+02 -0.78258484726E+02  0.29008097873E+02  0.92251620944E+02  0.00000000000E+00 0. -1.
         -3    1    3    3    0  502  0.10681689678E+03 -0.16901934882E+03 -0.52064065313E+02  0.20661088212E+03  0.00000000000E+00 0.  1.
         11    1    5    5    0    0 -0.59934147850E+01 -0.88919854129E+01  0.26738585306E+01  0.11051603721E+02  0.00000000000E+00 0. -1.
        -11    1    5    5    0    0  0.22866020439E+03 -0.21318837328E+03 -0.22238308983E+03  0.38365219954E+03  0.00000000000E+00 0.  1.
          4    1    6    6  503    0 -0.56220567093E+02  0.64275825393E+02 -0.63067102467E+02  0.10615834074E+03  0.00000000000E+00 0. -1.
         -4    1    6    6    0  503 -0.31256326424E+03  0.40508236684E+03 -0.12145117553E+03  0.52586871567E+03  0.00000000000E+00 0.  1.
<mgrwt>
<rscale>  0 0.12548413E+04</rscale>
<asrwt>0</asrwt>
<pdfrwt beam="1">  1        2 0.69100762E-01 0.12548413E+04</pdfrwt>
<pdfrwt beam="2">  1       -1 0.13483668E+00 0.12548413E+04</pdfrwt>
<totfact> 0.36231915E+01</totfact>
</mgrwt>
</event>
<event>
12    6  0.1402540E-007  0.1680272E+04  0.7818608E-02  0.8772697E-01
         -1   -1    0    0    0  501 -0.00000000000E+00  0.00000000000E+00  0.97443184266E+03  0.97443184266E+03  0.00000000000E+00 0.  1.
          2   -1    0    0  501    0  0.00000000000E+00 -0.00000000000E+00 -0.72434835801E+03  0.72434835801E+03  0.00000000000E+00 0. -1.
         24    2    1    2    0    0  0.57878466678E+03 -0.81348725792E+02  0.20665326997E+03  0.62510795394E+03  0.80281220738E+02 0.  0.
        254    2    1    2    0    0 -0.57878466678E+03  0.81348725792E+02  0.43430214681E+02  0.10736722467E+04  0.89959802365E+03 0.  0.
         23    2    4    4    0    0 -0.65954279330E+01 -0.28733768355E+03 -0.18046392611E+03  0.35130187750E+03  0.90770790768E+02 0.  0.
         23    2    4    4    0    0 -0.57218923885E+03  0.36868640934E+03  0.22389414079E+03  0.72237036922E+03  0.91433968321E+02 0.  0.
          2    1    3    3  502    0  0.45951121278E+03 -0.59972969041E+02  0.12841813896E+03  0.48087267556E+03  0.00000000000E+00 0. -1.
         -1    1    3    3    0  502  0.11927345400E+03 -0.21375756752E+02  0.78235131004E+02  0.14423527838E+03  0.00000000000E+00 0.  1.
         11    1    5    5    0    0 -0.78985831654E+01 -0.20761007450E+03 -0.79042217673E+02  0.22228810770E+03  0.00000000000E+00 0. -1.
        -11    1    5    5    0    0  0.13031552324E+01 -0.79727609048E+02 -0.10142170843E+03  0.12901376981E+03  0.00000000000E+00 0.  1.
          1    1    6    6  503    0 -0.52642456440E+03  0.36507978054E+03  0.20386778051E+03  0.67228575776E+03  0.00000000000E+00 0. -1.
         -1    1    6    6    0  503 -0.45764674452E+02  0.36066287992E+01  0.20026360276E+02  0.50084611458E+02  0.00000000000E+00 0.  1.
<mgrwt>
<rscale>  0 0.16802715E+04</rscale>
<asrwt>0</asrwt>
<pdfrwt beam="1">  1        2 0.11143821E+00 0.16802715E+04</pdfrwt>
<pdfrwt beam="2">  1       -1 0.14991259E+00 0.16802715E+04</pdfrwt>
<totfact> 0.14917418E+01</totfact>
</mgrwt>
</event>
<event>
12    6  0.1402540E-007  0.2655340E+04  0.7818608E-02  0.8349643E-01
          2   -1    0    0  501    0  0.00000000000E+00  0.00000000000E+00  0.14884001878E+04  0.14884001878E+04  0.00000000000E+00 0. -1.
         -1   -1    0    0    0  501 -0.00000000000E+00 -0.00000000000E+00 -0.11842965601E+04  0.11842965601E+04  0.00000000000E+00 0.  1.
         24    2    1    2    0    0  0.10569578545E+04  0.69324124205E+02 -0.37469071275E+03  0.11263596368E+04  0.79543452833E+02 0.  0.
        254    2    1    2    0    0 -0.10569578545E+04 -0.69324124205E+02  0.67879434049E+03  0.15463371111E+04  0.89912789088E+03 0.  0.
         23    2    4    4    0    0  0.10699549751E+03 -0.31831563551E+02  0.27480367617E+03  0.31026504664E+03  0.91027763939E+02 0.  0.
         23    2    4    4    0    0 -0.11639533520E+04 -0.37492560654E+02  0.40399066432E+03  0.12360720645E+04  0.92046694610E+02 0.  0.
          4    1    3    3  502    0  0.71452372514E+03  0.10607039495E+02 -0.26174365618E+03  0.76102983162E+03  0.00000000000E+00 0. -1.
         -3    1    3    3    0  502  0.34243412933E+03  0.58717084710E+02 -0.11294705657E+03  0.36532980518E+03  0.00000000000E+00 0.  1.
         11    1    5    5    0    0  0.32703668076E+02 -0.62898543209E+01  0.19665507735E+03  0.19945503659E+03  0.00000000000E+00 0. -1.
        -11    1    5    5    0    0  0.74291829434E+02 -0.25541709230E+02  0.78148598816E+02  0.11081001005E+03  0.00000000000E+00 0.  1.
          4    1    6    6  503    0 -0.66696038992E+03 -0.27018783330E+02  0.18355033273E+03  0.69228382981E+03  0.00000000000E+00 0. -1.
         -4    1    6    6    0  503 -0.49699296205E+03 -0.10473777323E+02  0.22044033159E+03  0.54378823464E+03  0.00000000000E+00 0.  1.
<mgrwt>
<rscale>  0 0.26553397E+04</rscale>
<asrwt>0</asrwt>
<pdfrwt beam="1">  1        2 0.22898464E+00 0.26553397E+04</pdfrwt>
<pdfrwt beam="2">  1       -1 0.18219947E+00 0.26553397E+04</pdfrwt>
<totfact> 0.25937109E+00</totfact>
</mgrwt>
</event>
<event>
12    6  0.1402540E-007  0.1461786E+04  0.7818608E-02  0.8910270E-01
          2   -1    0    0  501    0  0.00000000000E+00  0.00000000000E+00  0.28378303114E+04  0.28378303114E+04  0.00000000000E+00 0. -1.
         -1   -1    0    0    0  501 -0.00000000000E+00 -0.00000000000E+00 -0.18824394290E+03  0.18824394290E+03  0.00000000000E+00 0.  1.
         24    2    1    2    0    0 -0.39857013298E+03 -0.18183539162E+03  0.62262216906E+03  0.76536430644E+03  0.78752115005E+02 0.  0.
        254    2    1    2    0    0  0.39857013298E+03  0.18183539162E+03  0.20269641995E+04  0.22607099479E+04  0.90016850758E+03 0.  0.
         23    2    4    4    0    0  0.33693378517E+03 -0.30025479032E+03  0.64912490358E+03  0.79674125361E+03  0.98773326648E+02 0.  0.
         23    2    4    4    0    0  0.61636347810E+02  0.48209018194E+03  0.13778392959E+04  0.14639686943E+04  0.92483672342E+02 0.  0.
          4    1    3    3  502    0 -0.33913736409E+03 -0.14660778715E+03  0.56658454384E+03  0.67640671219E+03  0.00000000000E+00 0. -1.
         -3    1    3    3    0  502 -0.59432768887E+02 -0.35227604474E+02  0.56037625218E+02  0.88957594249E+02  0.00000000000E+00 0.  1.
         11    1    5    5    0    0  0.18091111825E+03 -0.10051756610E+03  0.25930181771E+03  0.33176806125E+03  0.00000000000E+00 0.  1.
        -11    1    5    5    0    0  0.15602266692E+03 -0.19973722422E+03  0.38982308587E+03  0.46497319236E+03  0.00000000000E+00 0. -1.
          3    1    6    6  503    0  0.62030650827E+02  0.33583325381E+03  0.84453682292E+03  0.91097432525E+03  0.00000000000E+00 0. -1.
         -3    1    6    6    0  503 -0.39430301689E+00  0.14625692813E+03  0.53330247299E+03  0.55299436905E+03  0.00000000000E+00 0.  1.
<mgrwt>
<rscale>  0 0.14617857E+04</rscale>
<asrwt>0</asrwt>
<pdfrwt beam="1">  1        2 0.43658925E+00 0.14617857E+04</pdfrwt>
<pdfrwt beam="2">  1       -1 0.28960609E-01 0.14617857E+04</pdfrwt>
<totfact> 0.26431900E+01</totfact>
</mgrwt>
</event>
<event>
12    6  0.1402540E-007  0.1700759E+04  0.7818608E-02  0.8760932E-01
          2   -1    0    0  501    0  0.00000000000E+00  0.00000000000E+00  0.13730361662E+04  0.13730361662E+04  0.00000000000E+00 0. -1.
         -1   -1    0    0    0  501 -0.00000000000E+00 -0.00000000000E+00 -0.52667602178E+03  0.52667602178E+03  0.00000000000E+00 0.  1.
         24    2    1    2    0    0 -0.18864327493E+03 -0.57084604714E+03  0.19887905998E+03  0.63842868497E+03  0.81159168206E+02 0.  0.
        254    2    1    2    0    0  0.18864327493E+03  0.57084604714E+03  0.64748108447E+03  0.12612835030E+04  0.90008489910E+03 0.  0.
         23    2    4    4    0    0  0.32003147727E+03  0.62176853508E+03  0.77715295817E+03  0.10494088492E+04  0.90972274869E+02 0.  0.
         23    2    4    4    0    0 -0.13138820234E+03 -0.50922487945E+02 -0.12967187370E+03  0.21187465381E+03  0.90664847688E+02 0.  0.
          4    1    3    3  502    0 -0.80574622335E+02 -0.30131729698E+03  0.14116355676E+03  0.34236169906E+03  0.00000000000E+00 0. -1.
         -3    1    3    3    0  502 -0.10806865259E+03 -0.26952875016E+03  0.57715503220E+02  0.29606698591E+03  0.00000000000E+00 0.  1.
         11    1    5    5    0    0  0.13414261173E+03  0.31991102283E+03  0.33008802288E+03  0.47884799849E+03  0.00000000000E+00 0. -1.
        -11    1    5    5    0    0  0.18588886554E+03  0.30185751226E+03  0.44706493529E+03  0.57056085074E+03  0.00000000000E+00 0.  1.
          3    1    6    6  503    0 -0.76739465014E+02 -0.74503172216E+02 -0.71536374993E+02  0.12867447730E+03  0.00000000000E+00 0. -1.
         -3    1    6    6    0  503 -0.54648737326E+02  0.23580684270E+02 -0.58135498704E+02  0.83200176512E+02  0.00000000000E+00 0.  1.
<mgrwt>
<rscale>  0 0.17007589E+04</rscale>
<asrwt>0</asrwt>
<pdfrwt beam="1">  1        2 0.21123633E+00 0.17007589E+04</pdfrwt>
<pdfrwt beam="2">  1       -1 0.81027081E-01 0.17007589E+04</pdfrwt>
<totfact> 0.24687727E+01</totfact>
</mgrwt>
</event>
<event>
12    6  0.1402540E-007  0.1782178E+04  0.7818608E-02  0.8715835E-01
         -1   -1    0    0    0  501 -0.00000000000E+00  0.00000000000E+00  0.36249861672E+03  0.36249861672E+03  0.00000000000E+00 0.  1.
          2   -1    0    0  501    0  0.00000000000E+00 -0.00000000000E+00 -0.21904619701E+04  0.21904619701E+04  0.00000000000E+00 0. -1.
         24    2    1    2    0    0  0.51335986990E+03 -0.21420670766E+03 -0.11934280681E+04  0.13191515887E+04  0.80420709165E+02 0.  0.
        254    2    1    2    0    0 -0.51335986990E+03  0.21420670766E+03 -0.63453528522E+03  0.12338089981E+04  0.90012596120E+03 0.  0.
         23    2    4    4    0    0 -0.66988029918E+03  0.20707975027E+03 -0.73670753463E+03  0.10213626254E+04  0.93925411128E+02 0.  0.
         23    2    4    4    0    0  0.15652042928E+03  0.71269573954E+01  0.10217224941E+03  0.21244637269E+03  0.10072166805E+03 0.  0.
          2    1    3    3  502    0  0.25536105188E+03 -0.63194829919E+02 -0.56565923327E+03  0.62383749609E+03  0.00000000000E+00 0. -1.
         -1    1    3    3    0  502  0.25799881802E+03 -0.15101187774E+03 -0.62776883487E+03  0.69531409259E+03  0.00000000000E+00 0.  1.
         11    1    5    5    0    0 -0.25425432550E+03  0.12675732117E+03 -0.29762668468E+03  0.41145391472E+03  0.00000000000E+00 0. -1.
        -11    1    5    5    0    0 -0.41562597368E+03  0.80322429099E+02 -0.43908084994E+03  0.60990871071E+03  0.00000000000E+00 0.  1.
          4    1    6    6  503    0  0.12663518575E+03 -0.37807790418E+02  0.76254097120E+02  0.15257977132E+03  0.00000000000E+00 0. -1.
         -4    1    6    6    0  503  0.29885243525E+02  0.44934747813E+02  0.25918152289E+02  0.59866601371E+02  0.00000000000E+00 0.  1.
<mgrwt>
<rscale>  0 0.17821778E+04</rscale>
<asrwt>0</asrwt>
<pdfrwt beam="1">  1        2 0.33699415E+00 0.17821778E+04</pdfrwt>
<pdfrwt beam="2">  1       -1 0.55769017E-01 0.17821778E+04</pdfrwt>
<totfact> 0.18309326E+01</totfact>
</mgrwt>
</event>
<event>
12    6  0.1402540E-007  0.1914711E+04  0.7818608E-02  0.8647568E-01
         -1   -1    0    0    0  501 -0.00000000000E+00  0.00000000000E+00  0.59498544266E+03  0.59498544266E+03  0.00000000000E+00 0.  1.
          2   -1    0    0  501    0  0.00000000000E+00 -0.00000000000E+00 -0.15404232644E+04  0.15404232644E+04  0.00000000000E+00 0. -1.
         24    2    1    2    0    0  0.38227372599E+03  0.47573725498E+03  0.10564585433E+03  0.62452312248E+03  0.80055896838E+02 0.  0.
        254    2    1    2    0    0 -0.38227372599E+03 -0.47573725498E+03 -0.10510836761E+04  0.15108855846E+04  0.89751836655E+03 0.  0.
         23    2    4    4    0    0 -0.30856422199E+03 -0.65929748357E+03 -0.42461874390E+03  0.84762262414E+03  0.90983429019E+02 0.  0.
         23    2    4    4    0    0 -0.73709504000E+02  0.18356022859E+03 -0.62646493221E+03  0.66326296048E+03  0.91279762073E+02 0.  0.
          2    1    3    3  502    0  0.21889563953E+03  0.31133359541E+03  0.34858699481E+02  0.38217670987E+03  0.00000000000E+00 0. -1.
         -1    1    3    3    0  502  0.16337808646E+03  0.16440365957E+03  0.70787154847E+02  0.24234641261E+03  0.00000000000E+00 0.  1.
         11    1    5    5    0    0 -0.28019337337E+03 -0.52759102391E+03 -0.36688717843E+03  0.70104694328E+03  0.00000000000E+00 0. -1.
        -11    1    5    5    0    0 -0.28370848612E+02 -0.13170645966E+03 -0.57731565470E+02  0.14657568086E+03  0.00000000000E+00 0.  1.
          1    1    6    6  503    0 -0.40303794412E+02  0.16125461485E+03 -0.39832008398E+03  0.43160900819E+03  0.00000000000E+00 0. -1.
         -1    1    6    6    0  503 -0.33405709588E+02  0.22305613740E+02 -0.22814484823E+03  0.23165395229E+03  0.00000000000E+00 0.  1.
<mgrwt>
<rscale>  0 0.19147109E+04</rscale>
<asrwt>0</asrwt>
<pdfrwt beam="1">  1        2 0.23698820E+00 0.19147109E+04</pdfrwt>
<pdfrwt beam="2">  1       -1 0.91536222E-01 0.19147109E+04</pdfrwt>
<totfact> 0.14935566E+01</totfact>
</mgrwt>
</event>
<event>
12    6  0.1402540E-007  0.2234873E+04  0.7818608E-02  0.8504052E-01
         -1   -1    0    0    0  501 -0.00000000000E+00  0.00000000000E+00  0.12428123364E+04  0.12428123364E+04  0.00000000000E+00 0.  1.
          2   -1    0    0  501    0  0.00000000000E+00 -0.00000000000E+00 -0.10047088714E+04  0.10047088714E+04  0.00000000000E+00 0. -1.
         24    2    1    2    0    0  0.81385472381E+03  0.40137896702E+03  0.31861981558E+03  0.96548237842E+03  0.84693857680E+02 0.  0.
        254    2    1    2    0    0 -0.81385472381E+03 -0.40137896702E+03 -0.80516350570E+02  0.12820388294E+04  0.90203996068E+03 0.  0.
         23    2    4    4    0    0 -0.62361809973E+03 -0.16133528350E+03  0.35584345668E+03  0.74157725755E+03  0.91562302427E+02 0.  0.
         23    2    4    4    0    0 -0.19023662407E+03 -0.24004368352E+03 -0.43635980725E+03  0.54046157182E+03  0.88757456535E+02 0.  0.
          2    1    3    3  502    0  0.27446683817E+03  0.92376907266E+02  0.10995480871E+03  0.30976700633E+03  0.00000000000E+00 0. -1.
         -1    1    3    3    0  502  0.53938788564E+03  0.30900205976E+03  0.20866500687E+03  0.65571537210E+03  0.00000000000E+00 0.  1.
         11    1    5    5    0    0 -0.40870275302E+03 -0.61854594283E+02  0.23935931560E+03  0.47765763170E+03  0.00000000000E+00 0. -1.
        -11    1    5    5    0    0 -0.21491534672E+03 -0.99480689220E+02  0.11648414109E+03  0.26391962585E+03  0.00000000000E+00 0.  1.
          3    1    6    6  503    0 -0.12800529834E+03 -0.14747532946E+03 -0.20226133879E+03  0.28114760958E+03  0.00000000000E+00 0. -1.
         -3    1    6    6    0  503 -0.62231325728E+02 -0.92568354066E+02 -0.23409846847E+03  0.25931396224E+03  0.00000000000E+00 0.  1.
<mgrwt>
<rscale>  0 0.22348732E+04</rscale>
<asrwt>0</asrwt>
<pdfrwt beam="1">  1        2 0.15457059E+00 0.22348732E+04</pdfrwt>
<pdfrwt beam="2">  1       -1 0.19120190E+00 0.22348732E+04</pdfrwt>
<totfact> 0.45055798E+00</totfact>
</mgrwt>
</event>
<event>
12    6  0.1402540E-007  0.1463123E+04  0.7818608E-02  0.8909353E-01
         -1   -1    0    0    0  501 -0.00000000000E+00  0.00000000000E+00  0.64787016100E+03  0.64787016100E+03  0.00000000000E+00 0.  1.
          2   -1    0    0  501    0  0.00000000000E+00 -0.00000000000E+00 -0.82606388638E+03  0.82606388638E+03  0.00000000000E+00 0. -1.
         24    2    1    2    0    0  0.12275547596E+02 -0.45239110278E+03 -0.75440421641E+02  0.46823855051E+03  0.93529054434E+02 0.  0.
        254    2    1    2    0    0 -0.12275547596E+02  0.45239110278E+03 -0.10275330374E+03  0.10056954969E+04  0.89222014775E+03 0.  0.
         23    2    4    4    0    0  0.20469761879E+03  0.31751286233E+03 -0.42973570012E+03  0.58003919118E+03  0.95169104559E+02 0.  0.
         23    2    4    4    0    0 -0.21697316638E+03  0.13487824045E+03  0.32698239638E+03  0.42565630569E+03  0.94848871127E+02 0.  0.
          2    1    3    3  502    0 -0.23452896613E+01 -0.14549643060E+03 -0.68711097277E+02  0.16092211342E+03  0.00000000000E+00 0. -1.
         -1    1    3    3    0  502  0.14620837257E+02 -0.30689467219E+03 -0.67293243640E+01  0.30731643709E+03  0.00000000000E+00 0.  1.
         11    1    5    5    0    0  0.33679734434E+01  0.22301880388E+02 -0.67713477274E+02  0.71371087413E+02  0.00000000000E+00 0.  1.
        -11    1    5    5    0    0  0.20132964534E+03  0.29521098195E+03 -0.36202222284E+03  0.50866810377E+03  0.00000000000E+00 0. -1.
          4    1    6    6  503    0 -0.18507324260E+03  0.12797822227E+03  0.22349526637E+03  0.31714454842E+03  0.00000000000E+00 0. -1.
         -4    1    6    6    0  503 -0.31899923781E+02  0.69000181793E+01  0.10348713001E+03  0.10851175727E+03  0.00000000000E+00 0.  1.
<mgrwt>
<rscale>  0 0.14631229E+04</rscale>
<asrwt>0</asrwt>
<pdfrwt beam="1">  1        2 0.12708675E+00 0.14631229E+04</pdfrwt>
<pdfrwt beam="2">  1       -1 0.99672333E-01 0.14631229E+04</pdfrwt>
<totfact> 0.35058559E+01</totfact>
</mgrwt>
</event>
<event>
12    6  0.1402540E-007  0.2088580E+04  0.7818608E-02  0.8566291E-01
          2   -1    0    0  501    0  0.00000000000E+00  0.00000000000E+00  0.85976358752E+03  0.85976358752E+03  0.00000000000E+00 0. -1.
         -1   -1    0    0    0  501 -0.00000000000E+00 -0.00000000000E+00 -0.12684197209E+04  0.12684197209E+04  0.00000000000E+00 0.  1.
         24    2    1    2    0    0  0.60296641376E+03 -0.40665248777E+03  0.26342940639E+03  0.77784163659E+03  0.81901266958E+02 0.  0.
        254    2    1    2    0    0 -0.60296641376E+03  0.40665248777E+03 -0.67208553979E+03  0.13503416718E+04  0.91803535662E+03 0.  0.
         23    2    4    4    0    0  0.20102095966E+03  0.44155555422E+01  0.55402086747E+01  0.22046504314E+03  0.90250861392E+02 0.  0.
         23    2    4    4    0    0 -0.80398737342E+03  0.40223693223E+03 -0.67762574846E+03  0.11298766287E+04  0.96199245480E+02 0.  0.
          2    1    3    3  502    0  0.36925508604E+03 -0.29297561960E+03  0.15440748612E+03  0.49600978218E+03  0.00000000000E+00 0. -1.
         -1    1    3    3    0  502  0.23371132772E+03 -0.11367686817E+03  0.10902192027E+03  0.28183185441E+03  0.00000000000E+00 0.  1.
         11    1    5    5    0    0  0.20804414949E+03  0.13175615102E+02  0.13050568842E+01  0.20846502858E+03  0.00000000000E+00 0.  1.
        -11    1    5    5    0    0 -0.70231898232E+01 -0.87600595599E+01  0.42351517904E+01  0.12000014561E+02  0.00000000000E+00 0. -1.
          1    1    6    6  503    0 -0.53804537536E+03  0.25147160339E+03 -0.49969569617E+03  0.77616144070E+03  0.00000000000E+00 0. -1.
         -1    1    6    6    0  503 -0.26594199807E+03  0.15076532884E+03 -0.17793005229E+03  0.35371518800E+03  0.00000000000E+00 0.  1.
<mgrwt>
<rscale>  0 0.20885795E+04</rscale>
<asrwt>0</asrwt>
<pdfrwt beam="1">  1        2 0.13227132E+00 0.20885795E+04</pdfrwt>
<pdfrwt beam="2">  1       -1 0.19514149E+00 0.20885795E+04</pdfrwt>
<totfact> 0.53481181E+00</totfact>
</mgrwt>
</event>
<event>
12    6  0.1402540E-007  0.2247905E+04  0.7818608E-02  0.8498749E-01
         -1   -1    0    0    0  501 -0.00000000000E+00  0.00000000000E+00  0.10119768981E+04  0.10119768981E+04  0.00000000000E+00 0.  1.
          2   -1    0    0  501    0  0.00000000000E+00 -0.00000000000E+00 -0.12483184460E+04  0.12483184460E+04  0.00000000000E+00 0. -1.
         24    2    1    2    0    0 -0.21724444719E+03  0.91590660754E+03 -0.10671946006E+03  0.95015894287E+03  0.73026775748E+02 0.  0.
        254    2    1    2    0    0  0.21724444719E+03 -0.91590660754E+03 -0.12962208783E+03  0.13101364012E+04  0.90198416872E+03 0.  0.
         23    2    4    4    0    0 -0.27569137113E+03 -0.64555583615E+03 -0.20288093280E+03  0.73603613527E+03  0.88546314619E+02 0.  0.
         23    2    4    4    0    0  0.49293581832E+03 -0.27035077139E+03  0.73258844968E+02  0.57410026597E+03  0.90271792057E+02 0.  0.
          4    1    3    3  502    0 -0.11877553027E+03  0.62136674405E+03 -0.91738198545E+02  0.63923403716E+03  0.00000000000E+00 0. -1.
         -3    1    3    3    0  502 -0.98468916924E+02  0.29453986350E+03 -0.14981261511E+02  0.31092490570E+03  0.00000000000E+00 0.  1.
         11    1    5    5    0    0 -0.80042111785E+02 -0.22137722200E+03 -0.10969460856E+03  0.25970660606E+03  0.00000000000E+00 0.  1.
        -11    1    5    5    0    0 -0.19564925934E+03 -0.42417861415E+03 -0.93186324239E+02  0.47632952922E+03  0.00000000000E+00 0. -1.
          2    1    6    6  503    0  0.49449755219E+03 -0.27244135074E+03  0.68564617828E+02  0.56872948361E+03  0.00000000000E+00 0. -1.
         -2    1    6    6    0  503 -0.15617338672E+01  0.20905793439E+01  0.46942271406E+01  0.53707823557E+01  0.00000000000E+00 0.  1.
<mgrwt>
<rscale>  0 0.22479052E+04</rscale>
<asrwt>0</asrwt>
<pdfrwt beam="1">  1        2 0.19204899E+00 0.22479052E+04</pdfrwt>
<pdfrwt beam="2">  1       -1 0.15568875E+00 0.22479052E+04</pdfrwt>
<totfact> 0.58003469E+00</totfact>
</mgrwt>
</event>
<event>
12    6  0.1402540E-007  0.3281595E+04  0.7818608E-02  0.8167594E-01
          2   -1    0    0  501    0  0.00000000000E+00  0.00000000000E+00  0.32010048686E+04  0.32010048686E+04  0.00000000000E+00 0. -1.
         -1   -1    0    0    0  501 -0.00000000000E+00 -0.00000000000E+00 -0.84105337439E+03  0.84105337439E+03  0.00000000000E+00 0.  1.
         24    2    1    2    0    0  0.11930293588E+04 -0.93838311827E+03  0.10932219061E+04  0.18722847641E+04  0.80213303346E+02 0.  0.
        254    2    1    2    0    0 -0.11930293588E+04  0.93838311827E+03  0.12667295881E+04  0.21697734789E+04  0.89410915036E+03 0.  0.
         23    2    4    4    0    0 -0.96768392882E+03  0.87011817792E+03  0.13737544941E+04  0.18944896280E+04  0.91497054704E+02 0.  0.
         23    2    4    4    0    0 -0.22534543003E+03  0.68264940354E+02 -0.10702490602E+03  0.27528385088E+03  0.94266659702E+02 0.  0.
          4    1    3    3  502    0  0.64351670534E+03 -0.46590096800E+03  0.60195130999E+03  0.99675615957E+03  0.00000000000E+00 0. -1.
         -3    1    3    3    0  502  0.54951265350E+03 -0.47248215027E+03  0.49127059616E+03  0.87552860452E+03  0.00000000000E+00 0.  1.
         11    1    5    5    0    0 -0.29082405994E+03  0.31777929555E+03  0.46821487290E+03  0.63622911103E+03  0.00000000000E+00 0.  1.
        -11    1    5    5    0    0 -0.67685986888E+03  0.55233888236E+03  0.90553962120E+03  0.12582605170E+04  0.00000000000E+00 0. -1.
          3    1    6    6  503    0 -0.15694685425E+03  0.91030581198E+02 -0.73016485623E+02  0.19557681085E+03  0.00000000000E+00 0. -1.
         -3    1    6    6    0  503 -0.68398575779E+02 -0.22765640844E+02 -0.34008420401E+02  0.79707040027E+02  0.00000000000E+00 0.  1.
<mgrwt>
<rscale>  0 0.32815947E+04</rscale>
<asrwt>0</asrwt>
<pdfrwt beam="1">  1        2 0.49246228E+00 0.32815947E+04</pdfrwt>
<pdfrwt beam="2">  1       -1 0.12939283E+00 0.32815947E+04</pdfrwt>
<totfact> 0.63055026E-01</totfact>
</mgrwt>
</event>
<event>
12    6  0.1402540E-007  0.2015982E+04  0.7818608E-02  0.8599185E-01
         -1   -1    0    0    0  501 -0.00000000000E+00  0.00000000000E+00  0.17788160661E+04  0.17788160661E+04  0.00000000000E+00 0.  1.
          2   -1    0    0  501    0  0.00000000000E+00 -0.00000000000E+00 -0.57119241446E+03  0.57119241446E+03  0.00000000000E+00 0. -1.
         24    2    1    2    0    0 -0.67159261845E+03 -0.44236305974E+03  0.48397553908E+03  0.94118047475E+03  0.69761320564E+02 0.  0.
        254    2    1    2    0    0  0.67159261845E+03  0.44236305974E+03  0.72364811252E+03  0.14088280058E+04  0.90244558689E+03 0.  0.
         23    2    4    4    0    0  0.66178942762E+03  0.24651883813E+02  0.71847991678E+03  0.98122426685E+03  0.89524908035E+02 0.  0.
         23    2    4    4    0    0  0.98031908325E+01  0.41771117593E+03  0.51681957423E+01  0.42760373892E+03  0.90771792118E+02 0.  0.
          2    1    3    3  502    0 -0.37972103751E+03 -0.20874088429E+03  0.26450795341E+03  0.50766650522E+03  0.00000000000E+00 0. -1.
         -1    1    3    3    0  502 -0.29187158094E+03 -0.23362217545E+03  0.21946758568E+03  0.43351396954E+03  0.00000000000E+00 0.  1.
         11    1    5    5    0    0  0.53306723096E+02 -0.22570860182E+02  0.58268544353E+02  0.82135703063E+02  0.00000000000E+00 0. -1.
        -11    1    5    5    0    0  0.60848270452E+03  0.47222743995E+02  0.66021137242E+03  0.89908856378E+03  0.00000000000E+00 0.  1.
          2    1    6    6  503    0  0.34347491284E+02  0.64100531469E+02 -0.59678597286E+01  0.72967414932E+02  0.00000000000E+00 0. -1.
         -2    1    6    6    0  503 -0.24544300451E+02  0.35361064446E+03  0.11136055471E+02  0.35463632399E+03  0.00000000000E+00 0.  1.
<mgrwt>
<rscale>  0 0.20159824E+04</rscale>
<asrwt>0</asrwt>
<pdfrwt beam="1">  1        2 0.87875757E-01 0.20159824E+04</pdfrwt>
<pdfrwt beam="2">  1       -1 0.27366401E+00 0.20159824E+04</pdfrwt>
<totfact> 0.27285622E+00</totfact>
</mgrwt>
</event>
<event>
12    6  0.1402540E-007  0.2345733E+04  0.7818608E-02  0.8460104E-01
         -1   -1    0    0    0  501 -0.00000000000E+00  0.00000000000E+00  0.11660919492E+04  0.11660919492E+04  0.00000000000E+00 0.  1.
          2   -1    0    0  501    0  0.00000000000E+00 -0.00000000000E+00 -0.11796808783E+04  0.11796808783E+04  0.00000000000E+00 0. -1.
         24    2    1    2    0    0 -0.94682409321E+03  0.19877499070E+03 -0.25337650575E+03  0.10032721930E+04  0.79800245194E+02 0.  0.
        254    2    1    2    0    0  0.94682409321E+03 -0.19877499070E+03  0.23978757670E+03  0.13425006345E+04  0.89934560171E+03 0.  0.
         23    2    4    4    0    0  0.89770955163E+03 -0.40963429624E+03 -0.23796344129E+02  0.99136779121E+03  0.92526405513E+02 0.  0.
         23    2    4    4    0    0  0.49114541583E+02  0.21085930553E+03  0.26358392082E+03  0.35113284330E+03  0.83330099023E+02 0.  0.
          4    1    3    3  502    0 -0.72263821124E+03  0.12697892300E+03 -0.21661389490E+03  0.76501713099E+03  0.00000000000E+00 0. -1.
         -3    1    3    3    0  502 -0.22418588197E+03  0.71796067703E+02 -0.36762610842E+02  0.23825506200E+03  0.00000000000E+00 0.  1.
         11    1    5    5    0    0  0.46135793985E+03 -0.21195622188E+03 -0.58479698977E+02  0.51107383405E+03  0.00000000000E+00 0.  1.
        -11    1    5    5    0    0  0.43635161178E+03 -0.19767807435E+03  0.34683354848E+02  0.48029395716E+03  0.00000000000E+00 0. -1.
          4    1    6    6  503    0  0.65525780974E+02  0.99159555971E+02  0.12729349262E+03  0.17415475525E+03  0.00000000000E+00 0.  1.
         -4    1    6    6    0  503 -0.16411239391E+02  0.11169974956E+03  0.13629042820E+03  0.17697808805E+03  0.00000000000E+00 0. -1.
<mgrwt>
<rscale>  0 0.23457335E+04</rscale>
<asrwt>0</asrwt>
<pdfrwt beam="1">  1        2 0.18148937E+00 0.23457335E+04</pdfrwt>
<pdfrwt beam="2">  1       -1 0.17939876E+00 0.23457335E+04</pdfrwt>
<totfact> 0.42159109E+00</totfact>
</mgrwt>
</event>
<event>
12    6  0.1402540E-007  0.2347172E+04  0.7818608E-02  0.8459551E-01
         -1   -1    0    0    0  501 -0.00000000000E+00  0.00000000000E+00  0.12518207717E+04  0.12518207717E+04  0.00000000000E+00 0.  1.
          2   -1    0    0  501    0  0.00000000000E+00 -0.00000000000E+00 -0.11002410341E+04  0.11002410341E+04  0.00000000000E+00 0. -1.
         24    2    1    2    0    0  0.44357424027E+03 -0.20502190854E+03  0.94138469875E+03  0.10634568688E+04  0.77092614702E+02 0.  0.
        254    2    1    2    0    0 -0.44357424027E+03  0.20502190854E+03 -0.78980496112E+03  0.12886049370E+04  0.89326296095E+03 0.  0.
         23    2    4    4    0    0  0.24393638361E+03 -0.40696729157E+02 -0.32775522597E+03  0.42058614462E+03  0.91148416765E+02 0.  0.
         23    2    4    4    0    0 -0.68751062388E+03  0.24571863770E+03 -0.46204973515E+03  0.86801879237E+03  0.83175472936E+02 0.  0.
          2    1    3    3  502    0  0.97865753193E+02 -0.64308477581E+02  0.16890016298E+03  0.20552506171E+03  0.00000000000E+00 0. -1.
         -1    1    3    3    0  502  0.34570848707E+03 -0.14071343096E+03  0.77248453576E+03  0.85793180713E+03  0.00000000000E+00 0.  1.
         11    1    5    5    0    0  0.58013409192E+02  0.15272428718E+02 -0.13138070942E+03  0.14442885284E+03  0.00000000000E+00 0. -1.
        -11    1    5    5    0    0  0.18592297442E+03 -0.55969157875E+02 -0.19637451654E+03  0.27615729177E+03  0.00000000000E+00 0.  1.
          3    1    6    6  503    0 -0.13892492648E+03  0.20382608894E+02 -0.10969016408E+03  0.17817833212E+03  0.00000000000E+00 0. -1.
         -3    1    6    6    0  503 -0.54858569740E+03  0.22533602881E+03 -0.35235957107E+03  0.68984046025E+03  0.00000000000E+00 0.  1.
<mgrwt>
<rscale>  0 0.23471724E+04</rscale>
<asrwt>0</asrwt>
<pdfrwt beam="1">  1        2 0.16926785E+00 0.23471724E+04</pdfrwt>
<pdfrwt beam="2">  1       -1 0.19258781E+00 0.23471724E+04</pdfrwt>
<totfact> 0.38001358E+00</totfact>
</mgrwt>
</event>
<event>
12    6  0.1402540E-007  0.1388107E+04  0.7818608E-02  0.8962473E-01
          2   -1    0    0  501    0  0.00000000000E+00  0.00000000000E+00  0.21089572172E+04  0.21089572172E+04  0.00000000000E+00 0. -1.
         -1   -1    0    0    0  501 -0.00000000000E+00 -0.00000000000E+00 -0.22841142732E+03  0.22841142732E+03  0.00000000000E+00 0.  1.
         24    2    1    2    0    0  0.23896931494E+03  0.29612129084E+03  0.35867416502E+03  0.52871853772E+03  0.78115191233E+02 0.  0.
        254    2    1    2    0    0 -0.23896931494E+03 -0.29612129084E+03  0.15218716249E+04  0.18086501068E+04  0.90018210043E+03 0.  0.
         23    2    4    4    0    0 -0.32498977146E+03 -0.39991458248E+03  0.15557415397E+04  0.16414422778E+04  0.91929257100E+02 0.  0.
         23    2    4    4    0    0  0.86020456520E+02  0.10379329164E+03 -0.33869914764E+02  0.16720782903E+03  0.92944718164E+02 0.  0.
          4    1    3    3  502    0  0.21427207166E+03  0.21469007843E+03  0.27704658890E+03  0.41080307069E+03  0.00000000000E+00 0. -1.
         -3    1    3    3    0  502  0.24697243279E+02  0.81431212409E+02  0.81627576124E+02  0.11791546703E+03  0.00000000000E+00 0.  1.
         11    1    5    5    0    0 -0.19196062316E+03 -0.16571261349E+03  0.71822046838E+03  0.76167591029E+03  0.00000000000E+00 0.  1.
        -11    1    5    5    0    0 -0.13302914830E+03 -0.23420196899E+03  0.83752107129E+03  0.87976636753E+03  0.00000000000E+00 0. -1.
          1    1    6    6  503    0  0.10013440558E+03  0.85649864393E+02 -0.47985125816E+02  0.14023327263E+03  0.00000000000E+00 0. -1.
         -1    1    6    6    0  503 -0.14113949061E+02  0.18143427244E+02  0.14115211052E+02  0.26974556406E+02  0.00000000000E+00 0.  1.
<mgrwt>
<rscale>  0 0.13881065E+04</rscale>
<asrwt>0</asrwt>
<pdfrwt beam="1">  1        2 0.32445494E+00 0.13881065E+04</pdfrwt>
<pdfrwt beam="2">  1       -1 0.35140221E-01 0.13881065E+04</pdfrwt>
<totfact> 0.49710369E+01</totfact>
</mgrwt>
</event>
<event>
12    6  0.1402540E-007  0.1481209E+04  0.7818608E-02  0.8897045E-01
         -1   -1    0    0    0  501 -0.00000000000E+00  0.00000000000E+00  0.64978646988E+03  0.64978646988E+03  0.00000000000E+00 0.  1.
          2   -1    0    0  501    0  0.00000000000E+00 -0.00000000000E+00 -0.84411636451E+03  0.84411636451E+03  0.00000000000E+00 0. -1.
         24    2    1    2    0    0 -0.63009423093E+02 -0.32081642100E+03 -0.38158461086E+03  0.50893615624E+03  0.80720706770E+02 0.  0.
        254    2    1    2    0    0  0.63009423093E+02  0.32081642100E+03  0.18725471623E+03  0.98496667815E+03  0.91005585814E+03 0.  0.
         23    2    4    4    0    0  0.94304395038E+02  0.27361421260E+03  0.53832730722E+03  0.61785494212E+03  0.90500737776E+02 0.  0.
         23    2    4    4    0    0 -0.31294971945E+02  0.47202208402E+02 -0.35107259099E+03  0.36711173603E+03  0.91168189856E+02 0.  0.
          2    1    3    3  502    0 -0.19923335585E+02 -0.13036175385E+03 -0.21521167341E+03  0.25240283386E+03  0.00000000000E+00 0. -1.
         -1    1    3    3    0  502 -0.43086087508E+02 -0.19045466715E+03 -0.16637293744E+03  0.25653332238E+03  0.00000000000E+00 0.  1.
         11    1    5    5    0    0  0.99978715499E+02  0.17792228659E+03  0.32185275091E+03  0.38110533568E+03  0.00000000000E+00 0. -1.
        -11    1    5    5    0    0 -0.56743204613E+01  0.95691926011E+02  0.21647455631E+03  0.23674960643E+03  0.00000000000E+00 0.  1.
          3    1    6    6  503    0 -0.52101125977E+02  0.20081741272E+02 -0.10734627514E+03  0.12100010929E+03  0.00000000000E+00 0. -1.
         -3    1    6    6    0  503  0.20806154032E+02  0.27120467130E+02 -0.24372631585E+03  0.24611162674E+03  0.00000000000E+00 0.  1.
<mgrwt>
<rscale>  0 0.14812095E+04</rscale>
<asrwt>0</asrwt>
<pdfrwt beam="1">  1        2 0.12986405E+00 0.14812095E+04</pdfrwt>
<pdfrwt beam="2">  1       -1 0.99967150E-01 0.14812095E+04</pdfrwt>
<totfact> 0.33767361E+01</totfact>
</mgrwt>
</event>
<event>
12    6  0.1402540E-007  0.1384845E+04  0.7818608E-02  0.8964862E-01
         -1   -1    0    0    0  501 -0.00000000000E+00  0.00000000000E+00  0.68336109774E+03  0.68336109774E+03  0.00000000000E+00 0.  1.
          2   -1    0    0  501    0  0.00000000000E+00 -0.00000000000E+00 -0.70160416302E+03  0.70160416302E+03  0.00000000000E+00 0. -1.
         24    2    1    2    0    0  0.88823467815E+02 -0.29957969149E+03  0.23730537268E+03  0.40040373793E+03  0.79823013363E+02 0.  0.
        254    2    1    2    0    0 -0.88823467815E+02  0.29957969149E+03 -0.25554843796E+03  0.98456152283E+03  0.89800823388E+03 0.  0.
         23    2    4    4    0    0  0.34382109407E+03  0.32957278453E+03 -0.24092746864E+03  0.54145159936E+03  0.91063847260E+02 0.  0.
         23    2    4    4    0    0 -0.43264456188E+03 -0.29993093040E+02 -0.14620969326E+02  0.44310992348E+03  0.89731426959E+02 0.  0.
          2    1    3    3  502    0 -0.57287437819E+01 -0.11455197358E+03  0.82128374617E+02  0.14106751246E+03  0.00000000000E+00 0. -1.
         -1    1    3    3    0  502  0.94552211597E+02 -0.18502771791E+03  0.15517699806E+03  0.25933622547E+03  0.00000000000E+00 0.  1.
         11    1    5    5    0    0  0.16598033577E+03  0.14382790010E+03 -0.62124982046E+02  0.22824427727E+03  0.00000000000E+00 0. -1.
        -11    1    5    5    0    0  0.17784075829E+03  0.18574488442E+03 -0.17880248659E+03  0.31320732209E+03  0.00000000000E+00 0.  1.
          1    1    6    6  503    0 -0.14527059198E+03  0.84372890656E+00 -0.46014293626E+02  0.15238625919E+03  0.00000000000E+00 0. -1.
         -1    1    6    6    0  503 -0.28737396990E+03 -0.30836821946E+02  0.31393324300E+02  0.29072366429E+03  0.00000000000E+00 0.  1.
<mgrwt>
<rscale>  0 0.13848451E+04</rscale>
<asrwt>0</asrwt>
<pdfrwt beam="1">  1        2 0.10793910E+00 0.13848451E+04</pdfrwt>
<pdfrwt beam="2">  1       -1 0.10513248E+00 0.13848451E+04</pdfrwt>
<totfact> 0.38612894E+01</totfact>
</mgrwt>
</event>
<event>
12    6  0.1402540E-007  0.1719114E+04  0.7818608E-02  0.8750537E-01
          2   -1    0    0  501    0  0.00000000000E+00  0.00000000000E+00  0.23785010092E+04  0.23785010092E+04  0.00000000000E+00 0. -1.
         -1   -1    0    0    0  501 -0.00000000000E+00 -0.00000000000E+00 -0.31063186711E+03  0.31063186711E+03  0.00000000000E+00 0.  1.
         24    2    1    2    0    0  0.34914508448E+03 -0.24043866798E+02 -0.48524524256E+02  0.36273249573E+03  0.82096506997E+02 0.  0.
        254    2    1    2    0    0 -0.34914508448E+03  0.24043866798E+02  0.21163936663E+04  0.23264003805E+04  0.90029782974E+03 0.  0.
         23    2    4    4    0    0 -0.41516282028E+03  0.13117846265E+03  0.38465506991E+03  0.58805355699E+03  0.90991794572E+02 0.  0.
         23    2    4    4    0    0  0.66017735806E+02 -0.10713459585E+03  0.17317385964E+04  0.17383468235E+04  0.84231523800E+02 0.  0.
          2    1    3    3  502    0  0.49124927057E+02 -0.31947384812E+02  0.66930574048E+00  0.58603257801E+02  0.00000000000E+00 0. -1.
         -1    1    3    3    0  502  0.30002015742E+03  0.79035180141E+01 -0.49193829997E+02  0.30412923793E+03  0.00000000000E+00 0.  1.
         11    1    5    5    0    0 -0.10711048479E+03  0.48145213090E+02  0.15723832137E+03  0.19625113299E+03  0.00000000000E+00 0. -1.
        -11    1    5    5    0    0 -0.30805233549E+03  0.83033249557E+02  0.22741674854E+03  0.39180242400E+03  0.00000000000E+00 0.  1.
          1    1    6    6  503    0  0.61351039345E+02 -0.11759942447E+03  0.13650280707E+04  0.13714573302E+04  0.00000000000E+00 0. -1.
         -1    1    6    6    0  503  0.46666964610E+01  0.10464828623E+02  0.36671052567E+03  0.36688949335E+03  0.00000000000E+00 0.  1.
<mgrwt>
<rscale>  0 0.17191140E+04</rscale>
<asrwt>0</asrwt>
<pdfrwt beam="1">  1        2 0.36592322E+00 0.17191140E+04</pdfrwt>
<pdfrwt beam="2">  1       -1 0.47789520E-01 0.17191140E+04</pdfrwt>
<totfact> 0.19373662E+01</totfact>
</mgrwt>
</event>
<event>
12    6  0.1402540E-007  0.2284476E+04  0.7818608E-02  0.8484067E-01
         -1   -1    0    0    0  501 -0.00000000000E+00  0.00000000000E+00  0.80601083900E+03  0.80601083900E+03  0.00000000000E+00 0.  1.
          2   -1    0    0  501    0  0.00000000000E+00 -0.00000000000E+00 -0.16187226678E+04  0.16187226678E+04  0.00000000000E+00 0. -1.
         24    2    1    2    0    0  0.56367997092E+03 -0.63990554624E+03  0.11612683518E+03  0.86443020563E+03  0.80869777037E+02 0.  0.
        254    2    1    2    0    0 -0.56367997092E+03  0.63990554624E+03 -0.92883866394E+03  0.15603033011E+04  0.91901627308E+03 0.  0.
         23    2    4    4    0    0 -0.49380035310E+03  0.63758062745E+02 -0.57396328606E+02  0.50928179222E+03  0.90386536968E+02 0.  0.
         23    2    4    4    0    0 -0.69879617822E+02  0.57614748349E+03 -0.87144233534E+03  0.10510215089E+04  0.91680884994E+02 0.  0.
          4    1    3    3  502    0  0.33403607238E+03 -0.39235133910E+03  0.31109206521E+02  0.51622422810E+03  0.00000000000E+00 0. -1.
         -3    1    3    3    0  502  0.22964389854E+03 -0.24755420714E+03  0.85017628654E+02  0.34820597753E+03  0.00000000000E+00 0.  1.
         11    1    5    5    0    0 -0.46905705051E+03  0.80799018459E+02 -0.52717005038E+02  0.47887585096E+03  0.00000000000E+00 0.  1.
        -11    1    5    5    0    0 -0.24743302590E+02 -0.17040955714E+02 -0.46793235678E+01  0.30405941257E+02  0.00000000000E+00 0. -1.
          1    1    6    6  503    0 -0.57464161844E+02  0.20395184242E+03 -0.26408485748E+03  0.33858425225E+03  0.00000000000E+00 0. -1.
         -1    1    6    6    0  503 -0.12415455978E+02  0.37219564108E+03 -0.60735747785E+03  0.71243725667E+03  0.00000000000E+00 0.  1.
<mgrwt>
<rscale>  0 0.22844763E+04</rscale>
<asrwt>0</asrwt>
<pdfrwt beam="1">  1        2 0.24903426E+00 0.22844763E+04</pdfrwt>
<pdfrwt beam="2">  1       -1 0.12400167E+00 0.22844763E+04</pdfrwt>
<totfact> 0.64252784E+00</totfact>
</mgrwt>
</event>
<event>
12    6  0.1402540E-007  0.2467512E+04  0.7818608E-02  0.8414652E-01
         -1   -1    0    0    0  501 -0.00000000000E+00  0.00000000000E+00  0.63509973112E+03  0.63509973112E+03  0.00000000000E+00 0.  1.
          2   -1    0    0  501    0  0.00000000000E+00 -0.00000000000E+00 -0.23967170424E+04  0.23967170424E+04  0.00000000000E+00 0. -1.
         24    2    1    2    0    0 -0.79639794677E+03  0.24470707025E+03 -0.15678483988E+04  0.17772380379E+04  0.79342308058E+02 0.  0.
        254    2    1    2    0    0  0.79639794677E+03 -0.24470707025E+03 -0.19376891242E+03  0.12545787356E+04  0.91776368010E+03 0.  0.
         23    2    4    4    0    0  0.97021940856E+03 -0.10229554168E+03 -0.68867836692E+02  0.98248680246E+03  0.93527853980E+02 0.  0.
         23    2    4    4    0    0 -0.17382146180E+03 -0.14241152857E+03 -0.12490107573E+03  0.27209193313E+03  0.89099928756E+02 0.  0.
          2    1    3    3  502    0 -0.56068501812E+03  0.14227839271E+03 -0.11328233198E+04  0.12719667859E+04  0.00000000000E+00 0. -1.
         -1    1    3    3    0  502 -0.23571292865E+03  0.10242867754E+03 -0.43502507897E+03  0.50527125195E+03  0.00000000000E+00 0.  1.
         11    1    5    5    0    0  0.28769480361E+03 -0.69561630647E+01 -0.56222990401E+02  0.29321956428E+03  0.00000000000E+00 0.  1.
        -11    1    5    5    0    0  0.68252460495E+03 -0.95339378616E+02 -0.12644846291E+02  0.68926723817E+03  0.00000000000E+00 0. -1.
          4    1    6    6  503    0 -0.10598952012E+03 -0.10505164991E+03 -0.12497913586E+03  0.19465202779E+03  0.00000000000E+00 0. -1.
         -4    1    6    6    0  503 -0.67831941676E+02 -0.37359878656E+02  0.78060125939E-01  0.77439905334E+02  0.00000000000E+00 0.  1.
<mgrwt>
<rscale>  0 0.24675124E+04</rscale>
<asrwt>0</asrwt>
<pdfrwt beam="1">  1        2 0.36872570E+00 0.24675124E+04</pdfrwt>
<pdfrwt beam="2">  1       -1 0.97707652E-01 0.24675124E+04</pdfrwt>
<totfact> 0.40806147E+00</totfact>
</mgrwt>
</event>
<event>
12    6  0.1402540E-007  0.3121340E+04  0.7818608E-02  0.8209906E-01
          2   -1    0    0  501    0  0.00000000000E+00  0.00000000000E+00  0.17137994743E+04  0.17137994743E+04  0.00000000000E+00 0. -1.
         -1   -1    0    0    0  501 -0.00000000000E+00 -0.00000000000E+00 -0.14212227180E+04  0.14212227180E+04  0.00000000000E+00 0.  1.
         24    2    1    2    0    0  0.12650771068E+04 -0.68087532703E+02 -0.53119134627E+03  0.13760715103E+04  0.79702928064E+02 0.  0.
        254    2    1    2    0    0 -0.12650771068E+04  0.68087532703E+02  0.82376810265E+03  0.17589506820E+04  0.90014310889E+03 0.  0.
         23    2    4    4    0    0 -0.64322502030E+03 -0.38470142071E+03  0.25236072595E+03  0.79602877635E+03  0.90786931566E+02 0.  0.
         23    2    4    4    0    0 -0.62185208653E+03  0.45278895342E+03  0.57140737671E+03  0.96292190566E+03  0.94838559627E+02 0.  0.
          4    1    3    3  502    0  0.99780996450E+03 -0.46900808395E+02 -0.38366639323E+03  0.10700580883E+04  0.00000000000E+00 0. -1.
         -3    1    3    3    0  502  0.26726714233E+03 -0.21186724307E+02 -0.14752495304E+03  0.30601342196E+03  0.00000000000E+00 0.  1.
         11    1    5    5    0    0 -0.63812718760E+03 -0.36612077054E+03  0.24558147191E+03  0.77560362655E+03  0.00000000000E+00 0. -1.
        -11    1    5    5    0    0 -0.50978327019E+01 -0.18580650176E+02  0.67792540311E+01  0.20425149802E+02  0.00000000000E+00 0.  1.
          4    1    6    6  503    0 -0.29937336481E+03  0.19852312113E+03  0.21142699449E+03  0.41681796409E+03  0.00000000000E+00 0. -1.
         -4    1    6    6    0  503 -0.32247872172E+03  0.25426583228E+03  0.35998038221E+03  0.54610394158E+03  0.00000000000E+00 0.  1.
<mgrwt>
<rscale>  0 0.31213399E+04</rscale>
<asrwt>0</asrwt>
<pdfrwt beam="1">  1        2 0.26366146E+00 0.31213399E+04</pdfrwt>
<pdfrwt beam="2">  1       -1 0.21864965E+00 0.31213399E+04</pdfrwt>
<totfact> 0.10443885E+00</totfact>
</mgrwt>
</event>
<event>
12    6  0.1402540E-007  0.2661058E+04  0.7818608E-02  0.8347752E-01
         -1   -1    0    0    0  501 -0.00000000000E+00  0.00000000000E+00  0.58324995175E+03  0.58324995175E+03  0.00000000000E+00 0.  1.
          2   -1    0    0  501    0  0.00000000000E+00 -0.00000000000E+00 -0.30352474569E+04  0.30352474569E+04  0.00000000000E+00 0. -1.
         24    2    1    2    0    0  0.98799422225E+03  0.35473558337E+02 -0.19720908005E+04  0.22074926686E+04  0.80565499643E+02 0.  0.
        254    2    1    2    0    0 -0.98799422225E+03 -0.35473558337E+02 -0.47990670459E+03  0.14110047400E+04  0.88500450550E+03 0.  0.
         23    2    4    4    0    0 -0.98095702794E+03 -0.30677979356E+03 -0.31924267136E+03  0.10803882134E+04  0.94510718954E+02 0.  0.
         23    2    4    4    0    0 -0.70371943093E+01  0.27130623522E+03 -0.16066403323E+03  0.33061652665E+03  0.99185486589E+02 0.  0.
          2    1    3    3  502    0  0.50837788399E+03  0.41804849607E+01 -0.92958939002E+03  0.10595291329E+04  0.00000000000E+00 0. -1.
         -1    1    3    3    0  502  0.47961633826E+03  0.31293073377E+02 -0.10425014105E+04  0.11479635357E+04  0.00000000000E+00 0.  1.
         11    1    5    5    0    0 -0.37282994063E+03 -0.15604591410E+03 -0.97365147667E+02  0.41573124000E+03  0.00000000000E+00 0. -1.
        -11    1    5    5    0    0 -0.60812708732E+03 -0.15073387946E+03 -0.22187752369E+03  0.66465697338E+03  0.00000000000E+00 0.  1.
          1    1    6    6  503    0 -0.33912243974E+02  0.39926626201E+02 -0.10364185741E+02  0.53400300722E+02  0.00000000000E+00 0. -1.
         -1    1    6    6    0  503  0.26875049665E+02  0.23137960902E+03 -0.15029984749E+03  0.27721622593E+03  0.00000000000E+00 0.  1.
<mgrwt>
<rscale>  0 0.26610584E+04</rscale>
<asrwt>0</asrwt>
<pdfrwt beam="1">  1        2 0.46696115E+00 0.26610584E+04</pdfrwt>
<pdfrwt beam="2">  1       -1 0.89730762E-01 0.26610584E+04</pdfrwt>
<totfact> 0.20124621E+00</totfact>
</mgrwt>
</event>
<event>
12    6  0.1402540E-007  0.1720101E+04  0.7818608E-02  0.8749982E-01
         -1   -1    0    0    0  501 -0.00000000000E+00  0.00000000000E+00  0.37611974184E+03  0.37611974184E+03  0.00000000000E+00 0.  1.
          2   -1    0    0  501    0  0.00000000000E+00 -0.00000000000E+00 -0.19666271297E+04  0.19666271297E+04  0.00000000000E+00 0. -1.
         24    2    1    2    0    0 -0.27334725978E+03 -0.43433014857E+03 -0.10572965436E+04  0.11780036839E+04  0.80344856179E+02 0.  0.
        254    2    1    2    0    0  0.27334725978E+03  0.43433014857E+03 -0.53321084433E+03  0.11647431876E+04  0.89941730373E+03 0.  0.
         23    2    4    4    0    0  0.27645883716E+03 -0.16085295848E+03 -0.44695706104E+03  0.55677674681E+03  0.89031278146E+02 0.  0.
         23    2    4    4    0    0 -0.31115773731E+01  0.59518310705E+03 -0.86253783292E+02  0.60796644083E+03  0.89055405270E+02 0.  0.
          2    1    3    3  502    0 -0.17324263672E+03 -0.19990925290E+03 -0.53527764957E+03  0.59707527390E+03  0.00000000000E+00 0. -1.
         -1    1    3    3    0  502 -0.10010462307E+03 -0.23442089568E+03 -0.52201889399E+03  0.58092841002E+03  0.00000000000E+00 0.  1.
         11    1    5    5    0    0  0.10217135686E+03 -0.83228145262E+02 -0.24973652842E+03  0.28237252691E+03  0.00000000000E+00 0. -1.
        -11    1    5    5    0    0  0.17428748029E+03 -0.77624813214E+02 -0.19722053261E+03  0.27440421990E+03  0.00000000000E+00 0.  1.
          3    1    6    6  503    0  0.14847944804E+02  0.26852366993E+03  0.26577024749E+01  0.26894699507E+03  0.00000000000E+00 0. -1.
         -3    1    6    6    0  503 -0.17959522177E+02  0.32665943712E+03 -0.88911485767E+02  0.33901944576E+03  0.00000000000E+00 0.  1.
<mgrwt>
<rscale>  0 0.17201015E+04</rscale>
<asrwt>0</asrwt>
<pdfrwt beam="1">  1        2 0.30255802E+00 0.17201015E+04</pdfrwt>
<pdfrwt beam="2">  1       -1 0.57864575E-01 0.17201015E+04</pdfrwt>
<totfact> 0.22829022E+01</totfact>
</mgrwt>
</event>
<event>
12    6  0.1402540E-007  0.3599796E+04  0.7818608E-02  0.8090538E-01
         -1   -1    0    0    0  501 -0.00000000000E+00  0.00000000000E+00  0.76196589763E+03  0.76196589763E+03  0.00000000000E+00 0.  1.
          2   -1    0    0  501    0  0.00000000000E+00 -0.00000000000E+00 -0.42516775046E+04  0.42516775046E+04  0.00000000000E+00 0. -1.
         24    2    1    2    0    0  0.80934391693E+03  0.12613600882E+04 -0.56023755140E+03  0.16019127750E+04  0.78686574242E+02 0.  0.
        254    2    1    2    0    0 -0.80934391693E+03 -0.12613600882E+04 -0.29294740556E+04  0.34117306272E+04  0.90112195754E+03 0.  0.
         23    2    4    4    0    0 -0.84662551384E+03 -0.52878976933E+03 -0.15377260090E+04  0.18359332546E+04  0.98266249385E+02 0.  0.
         23    2    4    4    0    0  0.37281596906E+02 -0.73257031884E+03 -0.13917480467E+04  0.15757973727E+04  0.90141803868E+02 0.  0.
          4    1    3    3  502    0  0.60508671870E+03  0.88500841996E+03 -0.41814693173E+03  0.11507461480E+04  0.00000000000E+00 0. -1.
         -3    1    3    3    0  502  0.20425719823E+03  0.37635166821E+03 -0.14209061967E+03  0.45116662708E+03  0.00000000000E+00 0.  1.
         11    1    5    5    0    0 -0.66541302710E+03 -0.36984204247E+03 -0.11382913559E+04  0.13694030977E+04  0.00000000000E+00 0. -1.
        -11    1    5    5    0    0 -0.18121248674E+03 -0.15894772686E+03 -0.39943465305E+03  0.46653015688E+03  0.00000000000E+00 0.  1.
          3    1    6    6  503    0  0.22352854112E+02 -0.71681964423E+03 -0.13562387280E+04  0.15341817167E+04  0.00000000000E+00 0. -1.
         -3    1    6    6    0  503  0.14928742795E+02 -0.15750674606E+02 -0.35509318649E+02  0.41615655983E+02  0.00000000000E+00 0.  1.
<mgrwt>
<rscale>  0 0.35997963E+04</rscale>
<asrwt>0</asrwt>
<pdfrwt beam="1">  1        2 0.65410423E+00 0.35997963E+04</pdfrwt>
<pdfrwt beam="2">  1       -1 0.11722552E+00 0.35997963E+04</pdfrwt>
<totfact> 0.12648356E-01</totfact>
</mgrwt>
</event>
<event>
12    6  0.1402540E-007  0.1119349E+04  0.7818608E-02  0.9186536E-01
         -1   -1    0    0    0  501 -0.00000000000E+00  0.00000000000E+00  0.44115358705E+03  0.44115358705E+03  0.00000000000E+00 0.  1.
          2   -1    0    0  501    0  0.00000000000E+00 -0.00000000000E+00 -0.71003746708E+03  0.71003746708E+03  0.00000000000E+00 0. -1.
         24    2    1    2    0    0 -0.35232249977E+02 -0.17810854452E+03 -0.18355732819E+02  0.19967019399E+03  0.81038807806E+02 0.  0.
        254    2    1    2    0    0  0.35232249977E+02  0.17810854452E+03 -0.25052814722E+03  0.95152086014E+03  0.89981310818E+03 0.  0.
         23    2    4    4    0    0  0.84724310432E+02  0.45439581299E+03  0.11256797614E+03  0.48451771856E+03  0.91826503279E+02 0.  0.
         23    2    4    4    0    0 -0.49492060455E+02 -0.27628726847E+03 -0.36309612336E+03  0.46700314157E+03  0.86423496066E+02 0.  0.
          2    1    3    3  502    0 -0.27724511003E+02 -0.80974526578E+02 -0.47621725834E+02  0.97945654504E+02  0.00000000000E+00 0. -1.
         -1    1    3    3    0  502 -0.75077389743E+01 -0.97134017946E+02  0.29265993015E+02  0.10172453949E+03  0.00000000000E+00 0.  1.
         11    1    5    5    0    0  0.91696235459E+01  0.26948880378E+03  0.85906446695E+02  0.28299861297E+03  0.00000000000E+00 0. -1.
        -11    1    5    5    0    0  0.75554686886E+02  0.18490700921E+03  0.26661529447E+02  0.20151910559E+03  0.00000000000E+00 0.  1.
          3    1    6    6  503    0  0.17425667645E+02 -0.13032526720E+03 -0.13919800165E+03  0.19147953631E+03  0.00000000000E+00 0. -1.
         -3    1    6    6    0  503 -0.66917728100E+02 -0.14596200127E+03 -0.22389812172E+03  0.27552360526E+03  0.00000000000E+00 0.  1.
<mgrwt>
<rscale>  0 0.11193491E+04</rscale>
<asrwt>0</asrwt>
<pdfrwt beam="1">  1        2 0.10923653E+00 0.11193491E+04</pdfrwt>
<pdfrwt beam="2">  1       -1 0.67869783E-01 0.11193491E+04</pdfrwt>
<totfact> 0.10020929E+02</totfact>
</mgrwt>
</event>
<event>
12    6  0.1402540E-007  0.4401568E+04  0.7818608E-02  0.7928100E-01
          2   -1    0    0  501    0  0.00000000000E+00  0.00000000000E+00  0.36456078672E+04  0.36456078672E+04  0.00000000000E+00 0. -1.
         -3   -1    0    0    0  501 -0.00000000000E+00 -0.00000000000E+00 -0.13285715287E+04  0.13285715287E+04  0.00000000000E+00 0.  1.
         24    2    1    2    0    0 -0.15599537281E+04 -0.13614678641E+04  0.15572554202E+04  0.25919920286E+04  0.79547807011E+02 0.  0.
        254    2    1    2    0    0  0.15599537281E+04  0.13614678641E+04  0.75978091829E+03  0.23821873673E+04  0.90027730746E+03 0.  0.
         23    2    4    4    0    0  0.18208098532E+02  0.53801621820E+02  0.28240826383E+03  0.30288937182E+03  0.93602322173E+02 0.  0.
         23    2    4    4    0    0  0.15417456296E+04  0.13076662423E+04  0.47737265446E+03  0.20792979955E+04  0.92870422006E+02 0.  0.
          2    1    3    3  502    0 -0.11078009248E+04 -0.93591806822E+03  0.11251874636E+04  0.18355414317E+04  0.00000000000E+00 0. -1.
         -1    1    3    3    0  502 -0.45215280328E+03 -0.42554979592E+03  0.43206795663E+03  0.75645059684E+03  0.00000000000E+00 0.  1.
         11    1    5    5    0    0  0.25587463536E+02  0.29570949142E+02  0.30189894775E+02  0.49402318467E+02  0.00000000000E+00 0.  1.
        -11    1    5    5    0    0 -0.73793650033E+01  0.24230672679E+02  0.25221836906E+03  0.25348705335E+03  0.00000000000E+00 0. -1.
          4    1    6    6  503    0  0.11636685211E+04  0.10083518375E+04  0.40037888578E+03  0.15909748922E+04  0.00000000000E+00 0. -1.
         -4    1    6    6    0  503  0.37807710843E+03  0.29931440480E+03  0.76993768679E+02  0.48832310334E+03  0.00000000000E+00 0.  1.
<mgrwt>
<rscale>  0 0.44015683E+04</rscale>
<asrwt>0</asrwt>
<pdfrwt beam="1">  1        2 0.56086274E+00 0.44015683E+04</pdfrwt>
<pdfrwt beam="2">  1       -3 0.20439562E+00 0.44015683E+04</pdfrwt>
<totfact> 0.42509241E-02</totfact>
</mgrwt>
</event>
<event>
12    6  0.1402540E-007  0.1723721E+04  0.7818608E-02  0.8747950E-01
         -1   -1    0    0    0  501 -0.00000000000E+00  0.00000000000E+00  0.47829824370E+03  0.47829824370E+03  0.00000000000E+00 0.  1.
          2   -1    0    0  501    0  0.00000000000E+00 -0.00000000000E+00 -0.15530128007E+04  0.15530128007E+04  0.00000000000E+00 0. -1.
         24    2    1    2    0    0  0.52906165239E+03  0.50167469280E+02 -0.72576544423E+01  0.53774765240E+03  0.81834327206E+02 0.  0.
        254    2    1    2    0    0 -0.52906165239E+03 -0.50167469280E+02 -0.10674569026E+04  0.14935633920E+04  0.89935774868E+03 0.  0.
         23    2    4    4    0    0 -0.31105544489E+03  0.40813307557E+03 -0.44273903347E+03  0.68352130240E+03  0.88630818029E+02 0.  0.
         23    2    4    4    0    0 -0.21800620750E+03 -0.45830054485E+03 -0.62471786910E+03  0.81004208961E+03  0.91267053504E+02 0.  0.
          2    1    3    3  502    0  0.13681673137E+03 -0.15465496921E+02 -0.23685482180E+02  0.13971042067E+03  0.00000000000E+00 0. -1.
         -1    1    3    3    0  502  0.39224492103E+03  0.65632966200E+02  0.16427827738E+02  0.39803723174E+03  0.00000000000E+00 0.  1.
         11    1    5    5    0    0 -0.13023352821E+03  0.13020691939E+03 -0.20472353129E+03  0.27536582575E+03  0.00000000000E+00 0.  1.
        -11    1    5    5    0    0 -0.18082191669E+03  0.27792615617E+03 -0.23801550217E+03  0.40815547664E+03  0.00000000000E+00 0. -1.
          1    1    6    6  503    0 -0.80971639426E+02 -0.17177581119E+03 -0.30566720325E+03  0.35985521372E+03  0.00000000000E+00 0. -1.
         -1    1    6    6    0  503 -0.13703456808E+03 -0.28652473365E+03 -0.31905066585E+03  0.45018687589E+03  0.00000000000E+00 0.  1.
<mgrwt>
<rscale>  0 0.17237207E+04</rscale>
<asrwt>0</asrwt>
<pdfrwt beam="1">  1        2 0.23892505E+00 0.17237207E+04</pdfrwt>
<pdfrwt beam="2">  1       -1 0.73584345E-01 0.17237207E+04</pdfrwt>
<totfact> 0.23858110E+01</totfact>
</mgrwt>
</event>
<event>
12    6  0.1402540E-007  0.3541940E+04  0.7818608E-02  0.8103922E-01
          2   -1    0    0  501    0  0.00000000000E+00  0.00000000000E+00  0.25237822675E+04  0.25237822675E+04  0.00000000000E+00 0. -1.
         -1   -1    0    0    0  501 -0.00000000000E+00 -0.00000000000E+00 -0.12427121339E+04  0.12427121339E+04  0.00000000000E+00 0.  1.
         24    2    1    2    0    0  0.84012664126E+03  0.14255154412E+04  0.64406230843E+03  0.17773260340E+04  0.78514505228E+02 0.  0.
        254    2    1    2    0    0 -0.84012664126E+03 -0.14255154412E+04  0.63700782521E+03  0.19891683674E+04  0.90172322691E+03 0.  0.
         23    2    4    4    0    0  0.13388027131E+03 -0.13643536483E+03  0.24588396763E+03  0.32428530108E+03  0.90352062160E+02 0.  0.
         23    2    4    4    0    0 -0.97400691257E+03 -0.12890800764E+04  0.39112385758E+03  0.16648830663E+04  0.91874063018E+02 0.  0.
          2    1    3    3  502    0  0.61576732963E+03  0.97936859029E+03  0.46474374892E+03  0.12467233021E+04  0.00000000000E+00 0. -1.
         -1    1    3    3    0  502  0.22435931163E+03  0.44614685092E+03  0.17931855952E+03  0.53060273189E+03  0.00000000000E+00 0.  1.
         11    1    5    5    0    0  0.14012530892E+03 -0.14079940969E+03  0.21603913298E+03  0.29348336060E+03  0.00000000000E+00 0. -1.
        -11    1    5    5    0    0 -0.62450376122E+01  0.43640448556E+01  0.29844834646E+02  0.30801940480E+02  0.00000000000E+00 0.  1.
          1    1    6    6  503    0 -0.64662665789E+03 -0.86873903395E+03  0.30565883574E+03  0.11252825724E+04  0.00000000000E+00 0. -1.
         -1    1    6    6    0  503 -0.32738025467E+03 -0.42034104243E+03  0.85465021843E+02  0.53960049394E+03  0.00000000000E+00 0.  1.
<mgrwt>
<rscale>  0 0.35419401E+04</rscale>
<asrwt>0</asrwt>
<pdfrwt beam="1">  1        2 0.38827419E+00 0.35419401E+04</pdfrwt>
<pdfrwt beam="2">  1       -1 0.19118648E+00 0.35419401E+04</pdfrwt>
<totfact> 0.54388553E-01</totfact>
</mgrwt>
</event>
<event>
12    6  0.1402540E-007  0.1621451E+04  0.7818608E-02  0.8807477E-01
          2   -1    0    0  501    0  0.00000000000E+00  0.00000000000E+00  0.83497256816E+03  0.83497256816E+03  0.00000000000E+00 0. -1.
         -1   -1    0    0    0  501 -0.00000000000E+00 -0.00000000000E+00 -0.78718259557E+03  0.78718259557E+03  0.00000000000E+00 0.  1.
         24    2    1    2    0    0 -0.32572574502E+03 -0.44566001817E+03  0.96364203827E+02  0.56611859264E+03  0.80585906857E+02 0.  0.
        254    2    1    2    0    0  0.32572574502E+03  0.44566001817E+03 -0.48574231233E+02  0.10560365711E+04  0.89896811444E+03 0.  0.
         23    2    4    4    0    0  0.61664194046E+02  0.36591678987E+03 -0.43113721089E+03  0.57581683886E+03  0.89376548134E+02 0.  0.
         23    2    4    4    0    0  0.26406155097E+03  0.79743228300E+02  0.38256297966E+03  0.48021973224E+03  0.90382922405E+02 0.  0.
          2    1    3    3  502    0 -0.17888116434E+03 -0.25578541848E+03  0.94349606024E+02  0.32607744390E+03  0.00000000000E+00 0. -1.
         -1    1    3    3    0  502 -0.14684458068E+03 -0.18987459969E+03  0.20145978026E+01  0.24004114873E+03  0.00000000000E+00 0.  1.
         11    1    5    5    0    0  0.71903172889E+02  0.27218841093E+03 -0.36354417867E+03  0.45980535791E+03  0.00000000000E+00 0.  1.
        -11    1    5    5    0    0 -0.10238978842E+02  0.93728378941E+02 -0.67593032223E+02  0.11601148095E+03  0.00000000000E+00 0. -1.
          4    1    6    6  503    0  0.77039321598E+02  0.34182993575E+02  0.56142976071E+02  0.10126977774E+03  0.00000000000E+00 0. -1.
         -4    1    6    6    0  503  0.18702222937E+03  0.45560234725E+02  0.32642000359E+03  0.37894995449E+03  0.00000000000E+00 0.  1.
<mgrwt>
<rscale>  0 0.16214510E+04</rscale>
<asrwt>0</asrwt>
<pdfrwt beam="1">  1        2 0.12845732E+00 0.16214510E+04</pdfrwt>
<pdfrwt beam="2">  1       -1 0.12110502E+00 0.16214510E+04</pdfrwt>
<totfact> 0.21516113E+01</totfact>
</mgrwt>
</event>
<event>
12    6  0.1402540E-007  0.1423386E+04  0.7818608E-02  0.8937062E-01
         -1   -1    0    0    0  501 -0.00000000000E+00  0.00000000000E+00  0.28500755458E+03  0.28500755458E+03  0.00000000000E+00 0.  1.
          2   -1    0    0  501    0  0.00000000000E+00 -0.00000000000E+00 -0.17771701040E+04  0.17771701040E+04  0.00000000000E+00 0. -1.
         24    2    1    2    0    0  0.17046431642E+03  0.31068598705E+03 -0.78211371515E+03  0.86226175045E+03  0.78800997131E+02 0.  0.
        254    2    1    2    0    0 -0.17046431642E+03 -0.31068598705E+03 -0.71004883431E+03  0.11999159082E+04  0.90002498512E+03 0.  0.
         23    2    4    4    0    0 -0.19894291466E+03 -0.54531559169E+03 -0.18297699654E+03  0.61492323509E+03  0.87764605372E+02 0.  0.
         23    2    4    4    0    0  0.28478598234E+02  0.23462960465E+03 -0.52707183777E+03  0.58499267307E+03  0.92464173842E+02 0.  0.
          4    1    3    3  502    0  0.15542955228E+03  0.21223424269E+03 -0.58453172098E+03  0.64099848075E+03  0.00000000000E+00 0. -1.
         -3    1    3    3    0  502  0.15034764146E+02  0.98451744361E+02 -0.19758199417E+03  0.22126326970E+03  0.00000000000E+00 0.  1.
         11    1    5    5    0    0 -0.14030922077E+03 -0.25870460648E+03 -0.83381749110E+02  0.30588767045E+03  0.00000000000E+00 0.  1.
        -11    1    5    5    0    0 -0.58633693885E+02 -0.28661098521E+03 -0.99595247429E+02  0.30903556464E+03  0.00000000000E+00 0. -1.
          4    1    6    6  503    0  0.18338831734E+02  0.22520360685E+03 -0.41901961896E+03  0.47605715871E+03  0.00000000000E+00 0. -1.
         -4    1    6    6    0  503  0.10139766501E+02  0.94259977968E+01 -0.10805221881E+03  0.10893551436E+03  0.00000000000E+00 0.  1.
<mgrwt>
<rscale>  0 0.14233860E+04</rscale>
<asrwt>0</asrwt>
<pdfrwt beam="1">  1        2 0.27341079E+00 0.14233860E+04</pdfrwt>
<pdfrwt beam="2">  1       -1 0.43847316E-01 0.14233860E+04</pdfrwt>
<totfact> 0.50555094E+01</totfact>
</mgrwt>
</event>
<event>
12    6  0.1402540E-007  0.2200587E+04  0.7818608E-02  0.8518184E-01
         -3   -1    0    0    0  501 -0.00000000000E+00  0.00000000000E+00  0.79541765316E+03  0.79541765316E+03  0.00000000000E+00 0.  1.
          4   -1    0    0  501    0  0.00000000000E+00 -0.00000000000E+00 -0.15220254538E+04  0.15220254538E+04  0.00000000000E+00 0. -1.
         24    2    1    2    0    0  0.68154635913E+03  0.54636238657E+03 -0.58511059521E+03  0.10545021544E+04  0.81259386779E+02 0.  0.
        254    2    1    2    0    0 -0.68154635913E+03 -0.54636238657E+03 -0.14149720546E+03  0.12629409526E+04  0.90109993531E+03 0.  0.
         23    2    4    4    0    0  0.14110797379E+03 -0.34454468802E+03  0.51613629678E+02  0.38936758238E+03  0.10159057599E+03 0.  0.
         23    2    4    4    0    0 -0.82265433292E+03 -0.20181769855E+03 -0.19311083514E+03  0.87357337019E+03  0.91367956816E+02 0.  0.
          4    1    3    3  502    0  0.90914351863E+02  0.46167338734E+02 -0.87503536149E+02  0.13436410004E+03  0.00000000000E+00 0. -1.
         -3    1    3    3    0  502  0.59063200727E+03  0.50019504783E+03 -0.49760705906E+03  0.92013805438E+03  0.00000000000E+00 0.  1.
         11    1    5    5    0    0  0.10791564161E+03 -0.17588187480E+03 -0.10436212533E+02  0.20661348969E+03  0.00000000000E+00 0.  1.
        -11    1    5    5    0    0  0.33192332180E+02 -0.16866281322E+03  0.62049842212E+02  0.18275409269E+03  0.00000000000E+00 0. -1.
          3    1    6    6  503    0 -0.27742821868E+03 -0.10316539752E+03 -0.95106538752E+02  0.31089350183E+03  0.00000000000E+00 0. -1.
         -3    1    6    6    0  503 -0.54522611424E+03 -0.98652301030E+02 -0.98004296387E+02  0.56267986836E+03  0.00000000000E+00 0.  1.
<mgrwt>
<rscale>  0 0.22005871E+04</rscale>
<asrwt>0</asrwt>
<pdfrwt beam="1">  1        4 0.23415776E+00 0.22005871E+04</pdfrwt>
<pdfrwt beam="2">  1       -3 0.12237195E+00 0.22005871E+04</pdfrwt>
<totfact> 0.89094167E-02</totfact>
</mgrwt>
</event>
<event>
12    6  0.1402540E-007  0.2025493E+04  0.7818608E-02  0.8594794E-01
          2   -1    0    0  501    0  0.00000000000E+00  0.00000000000E+00  0.25390375278E+04  0.25390375278E+04  0.00000000000E+00 0. -1.
         -1   -1    0    0    0  501 -0.00000000000E+00 -0.00000000000E+00 -0.40395434966E+03  0.40395434966E+03  0.00000000000E+00 0.  1.
         24    2    1    2    0    0 -0.16070699047E+03  0.78808489588E+03  0.71327116156E+03  0.10780286982E+04  0.80533125285E+02 0.  0.
        254    2    1    2    0    0  0.16070699047E+03 -0.78808489588E+03  0.14218120166E+04  0.18649631793E+04  0.89979648235E+03 0.  0.
         23    2    4    4    0    0 -0.24252928473E+03 -0.75603154674E+02  0.76705190689E+03  0.81282201286E+03  0.88174292129E+02 0.  0.
         23    2    4    4    0    0  0.40323627520E+03 -0.71248174121E+03  0.65476010967E+03  0.10521411664E+04  0.89780329746E+02 0.  0.
          4    1    3    3  502    0 -0.13695670117E+03  0.62298639522E+03  0.52186729942E+03  0.82414480816E+03  0.00000000000E+00 0. -1.
         -3    1    3    3    0  502 -0.23750289298E+02  0.16509850067E+03  0.19140386214E+03  0.25388389001E+03  0.00000000000E+00 0.  1.
         11    1    5    5    0    0 -0.22406536854E+03 -0.76597055618E+02  0.60454548906E+03  0.64926700721E+03  0.00000000000E+00 0. -1.
        -11    1    5    5    0    0 -0.18463916187E+02  0.99390094399E+00  0.16250641782E+03  0.16355500565E+03  0.00000000000E+00 0.  1.
          3    1    6    6  503    0  0.17751169851E+03 -0.22827930041E+03  0.24041842175E+03  0.37606230816E+03  0.00000000000E+00 0. -1.
         -3    1    6    6    0  503  0.22572457669E+03 -0.48420244080E+03  0.41434168792E+03  0.67607885823E+03  0.00000000000E+00 0.  1.
<mgrwt>
<rscale>  0 0.20254928E+04</rscale>
<asrwt>0</asrwt>
<pdfrwt beam="1">  1        2 0.39062115E+00 0.20254928E+04</pdfrwt>
<pdfrwt beam="2">  1       -1 0.62146825E-01 0.20254928E+04</pdfrwt>
<totfact> 0.91618947E+00</totfact>
</mgrwt>
</event>
<event>
12    6  0.1402540E-007  0.2195219E+04  0.7818608E-02  0.8520421E-01
          2   -1    0    0  501    0  0.00000000000E+00  0.00000000000E+00  0.32069663010E+04  0.32069663010E+04  0.00000000000E+00 0. -1.
         -1   -1    0    0    0  501 -0.00000000000E+00 -0.00000000000E+00 -0.37566548265E+03  0.37566548265E+03  0.00000000000E+00 0.  1.
         24    2    1    2    0    0  0.10708849033E+03  0.90391049818E+03  0.11335349127E+04  0.14562106666E+04  0.84415482466E+02 0.  0.
        254    2    1    2    0    0 -0.10708849033E+03 -0.90391049818E+03  0.16977659057E+04  0.21264211171E+04  0.90040855348E+03 0.  0.
         23    2    4    4    0    0  0.73953935895E+02  0.64220164424E+02  0.73134911965E+03  0.74358559680E+03  0.91948848859E+02 0.  0.
         23    2    4    4    0    0 -0.18104242623E+03 -0.96813066261E+03  0.96641678602E+03  0.13828355203E+04  0.90660530812E+02 0.  0.
          4    1    3    3  502    0  0.52506463461E+02  0.59924664219E+03  0.80381210239E+03  0.10039757780E+04  0.00000000000E+00 0. -1.
         -3    1    3    3    0  502  0.54582026871E+02  0.30466385599E+03  0.32972281029E+03  0.45223488856E+03  0.00000000000E+00 0.  1.
         11    1    5    5    0    0 -0.21003081071E+02  0.21953729522E+02  0.15992222910E+03  0.16278272333E+03  0.00000000000E+00 0. -1.
        -11    1    5    5    0    0  0.94957016966E+02  0.42266434901E+02  0.57142689055E+03  0.58080287347E+03  0.00000000000E+00 0.  1.
          4    1    6    6  503    0 -0.94828120979E+02 -0.57917638000E+03  0.51555021480E+03  0.78117198853E+03  0.00000000000E+00 0. -1.
         -4    1    6    6    0  503 -0.86214305249E+02 -0.38895428261E+03  0.45086657122E+03  0.60166353174E+03  0.00000000000E+00 0.  1.
<mgrwt>
<rscale>  0 0.21952189E+04</rscale>
<asrwt>0</asrwt>
<pdfrwt beam="1">  1        2 0.49337941E+00 0.21952189E+04</pdfrwt>
<pdfrwt beam="2">  1       -1 0.57794692E-01 0.21952189E+04</pdfrwt>
<totfact> 0.40574394E+00</totfact>
</mgrwt>
</event>
<event>
12    6  0.1402540E-007  0.1689342E+04  0.7818608E-02  0.8767466E-01
          2   -1    0    0  501    0  0.00000000000E+00  0.00000000000E+00  0.13482825734E+04  0.13482825734E+04  0.00000000000E+00 0. -1.
         -1   -1    0    0    0  501 -0.00000000000E+00 -0.00000000000E+00 -0.52916884978E+03  0.52916884978E+03  0.00000000000E+00 0.  1.
         24    2    1    2    0    0 -0.23633160349E+03 -0.55289508415E+03  0.33782770210E+03  0.69410592703E+03  0.78165726175E+02 0.  0.
        254    2    1    2    0    0  0.23633160349E+03  0.55289508415E+03  0.48128602149E+03  0.11833454961E+04  0.89840120648E+03 0.  0.
         23    2    4    4    0    0 -0.16954704255E+03 -0.65982865580E+01  0.44620475135E+03  0.48573530003E+03  0.89723823704E+02 0.  0.
         23    2    4    4    0    0  0.40587864604E+03  0.55949337070E+03  0.35081270133E+02  0.69761019608E+03  0.87515615664E+02 0.  0.
          2    1    3    3  502    0 -0.16673822323E+03 -0.44672742694E+03  0.29204831061E+03  0.55915940911E+03  0.00000000000E+00 0. -1.
         -1    1    3    3    0  502 -0.69593380264E+02 -0.10616765721E+03  0.45779391487E+02  0.13494651792E+03  0.00000000000E+00 0.  1.
         11    1    5    5    0    0 -0.16100547462E+03 -0.26057051205E+02  0.42701074511E+03  0.45709945222E+03  0.00000000000E+00 0. -1.
        -11    1    5    5    0    0 -0.85415679325E+01  0.19458764647E+02  0.19194006240E+02  0.28635847812E+02  0.00000000000E+00 0.  1.
          3    1    6    6  503    0  0.36555757822E+03  0.52020369971E+03  0.54313760406E+02  0.63811771387E+03  0.00000000000E+00 0. -1.
         -3    1    6    6    0  503  0.40321067826E+02  0.39289670990E+02 -0.19232490273E+02  0.59492482208E+02  0.00000000000E+00 0.  1.
<mgrwt>
<rscale>  0 0.16893420E+04</rscale>
<asrwt>0</asrwt>
<pdfrwt beam="1">  1        2 0.20742809E+00 0.16893420E+04</pdfrwt>
<pdfrwt beam="2">  1       -1 0.81410593E-01 0.16893420E+04</pdfrwt>
<totfact> 0.25280514E+01</totfact>
</mgrwt>
</event>
<event>
12    6  0.1402540E-007  0.1109597E+04  0.7818608E-02  0.9195888E-01
          2   -1    0    0  501    0  0.00000000000E+00  0.00000000000E+00  0.71883161523E+03  0.71883161523E+03  0.00000000000E+00 0. -1.
         -1   -1    0    0    0  501 -0.00000000000E+00 -0.00000000000E+00 -0.42819666028E+03  0.42819666028E+03  0.00000000000E+00 0.  1.
         24    2    1    2    0    0 -0.86780024676E+02 -0.14751016356E+03  0.84574987185E+02  0.20642896261E+03  0.78549138174E+02 0.  0.
        254    2    1    2    0    0  0.86780024676E+02  0.14751016356E+03  0.20605996776E+03  0.94059931290E+03  0.90165200387E+03 0.  0.
         23    2    4    4    0    0 -0.10960355122E+03 -0.13510616719E+03  0.46182687570E+03  0.50230978036E+03  0.93618574433E+02 0.  0.
         23    2    4    4    0    0  0.19638357589E+03  0.28261633075E+03 -0.25576690794E+03  0.43828953254E+03  0.90788236281E+02 0.  0.
          2    1    3    3  502    0 -0.84548801186E+01 -0.60026988769E+02  0.62274803392E+02  0.86907281145E+02  0.00000000000E+00 0. -1.
         -1    1    3    3    0  502 -0.78325144557E+02 -0.87483174795E+02  0.22300183793E+02  0.11952168146E+03  0.00000000000E+00 0.  1.
         11    1    5    5    0    0 -0.11100076966E+03 -0.68858931619E+02  0.28625027929E+03  0.31464574639E+03  0.00000000000E+00 0.  1.
        -11    1    5    5    0    0  0.13972184410E+01 -0.66247235570E+02  0.17557659642E+03  0.18766403398E+03  0.00000000000E+00 0. -1.
          3    1    6    6  503    0  0.71583659078E+02  0.16690043747E+03 -0.16519553239E+03  0.24549855437E+03  0.00000000000E+00 0. -1.
         -3    1    6    6    0  503  0.12479991682E+03  0.11571589328E+03 -0.90571375552E+02  0.19279097817E+03  0.00000000000E+00 0.  1.
<mgrwt>
<rscale>  0 0.11095969E+04</rscale>
<asrwt>0</asrwt>
<pdfrwt beam="1">  1        2 0.11058948E+00 0.11095969E+04</pdfrwt>
<pdfrwt beam="2">  1       -1 0.65876409E-01 0.11095969E+04</pdfrwt>
<totfact> 0.10486198E+02</totfact>
</mgrwt>
</event>
<event>
12    6  0.1402540E-007  0.2397106E+04  0.7818608E-02  0.8440588E-01
          2   -1    0    0  501    0  0.00000000000E+00  0.00000000000E+00  0.12764892023E+04  0.12764892023E+04  0.00000000000E+00 0. -1.
         -1   -1    0    0    0  501 -0.00000000000E+00 -0.00000000000E+00 -0.11253756011E+04  0.11253756011E+04  0.00000000000E+00 0.  1.
         24    2    1    2    0    0 -0.87777953585E+03  0.23107035606E+02 -0.47077964444E+03  0.99949021246E+03  0.79475546756E+02 0.  0.
        254    2    1    2    0    0  0.87777953585E+03 -0.23107035606E+02  0.62189324572E+03  0.14023745909E+04  0.89937335718E+03 0.  0.
         23    2    4    4    0    0  0.50015286229E+03 -0.19933065880E+03  0.77566627786E+03  0.94860182999E+03  0.91113446068E+02 0.  0.
         23    2    4    4    0    0  0.37762667356E+03  0.17622362319E+03 -0.15377303214E+03  0.45377276095E+03  0.92773397140E+02 0.  0.
          2    1    3    3  502    0 -0.30845064504E+03  0.20334803713E+02 -0.20692346535E+03  0.37198471095E+03  0.00000000000E+00 0. -1.
         -1    1    3    3    0  502 -0.56932889081E+03  0.27722318925E+01 -0.26385617908E+03  0.62750550151E+03  0.00000000000E+00 0.  1.
         11    1    5    5    0    0  0.19231874405E+03 -0.30693969809E+02  0.26152305527E+03  0.32607196680E+03  0.00000000000E+00 0.  1.
        -11    1    5    5    0    0  0.30783411825E+03 -0.16863668899E+03  0.51414322259E+03  0.62252986319E+03  0.00000000000E+00 0. -1.
          1    1    6    6  503    0  0.20639773033E+03  0.12703546291E+03 -0.49552116178E+02  0.24737308693E+03  0.00000000000E+00 0. -1.
         -1    1    6    6    0  503  0.17122894323E+03  0.49188160279E+02 -0.10422091596E+03  0.20639967402E+03  0.00000000000E+00 0.  1.
<mgrwt>
<rscale>  0 0.23971064E+04</rscale>
<asrwt>0</asrwt>
<pdfrwt beam="1">  1        2 0.19638295E+00 0.23971064E+04</pdfrwt>
<pdfrwt beam="2">  1       -1 0.17313471E+00 0.23971064E+04</pdfrwt>
<totfact> 0.40822653E+00</totfact>
</mgrwt>
</event>
<event>
12    6  0.1402540E-007  0.2106759E+04  0.7818608E-02  0.8558272E-01
          2   -1    0    0  501    0  0.00000000000E+00  0.00000000000E+00  0.11263767328E+04  0.11263767328E+04  0.00000000000E+00 0. -1.
         -1   -1    0    0    0  501 -0.00000000000E+00 -0.00000000000E+00 -0.98511339350E+03  0.98511339350E+03  0.00000000000E+00 0.  1.
         24    2    1    2    0    0 -0.27799212883E+03 -0.72537096153E+03 -0.31016075988E+03  0.84020266412E+03  0.79360974694E+02 0.  0.
        254    2    1    2    0    0  0.27799212883E+03  0.72537096153E+03  0.45142409916E+03  0.12712874622E+04  0.89941394175E+03 0.  0.
         23    2    4    4    0    0  0.48412387948E+03  0.63409380837E+03  0.53480444547E+02  0.80488310245E+03  0.92335053761E+02 0.  0.
         23    2    4    4    0    0 -0.20613175066E+03  0.91277153160E+02  0.39794365462E+03  0.46640435972E+03  0.91389590185E+02 0.  0.
          4    1    3    3  502    0 -0.85163894390E+02 -0.30952896429E+03 -0.10263639284E+03  0.33703901521E+03  0.00000000000E+00 0. -1.
         -3    1    3    3    0  502 -0.19282823444E+03 -0.41584199725E+03 -0.20752436703E+03  0.50316364891E+03  0.00000000000E+00 0.  1.
         11    1    5    5    0    0  0.41782286942E+03  0.53753027865E+03  0.77803882094E+02  0.68525046133E+03  0.00000000000E+00 0.  1.
        -11    1    5    5    0    0  0.66301010064E+02  0.96563529720E+02 -0.24323437548E+02  0.11963264112E+03  0.00000000000E+00 0. -1.
          3    1    6    6  503    0 -0.48880468936E+01  0.33204291615E+02  0.48096082637E+02  0.58648539190E+02  0.00000000000E+00 0. -1.
         -3    1    6    6    0  503 -0.20124370376E+03  0.58072861545E+02  0.34984757198E+03  0.40775582053E+03  0.00000000000E+00 0.  1.
<mgrwt>
<rscale>  0 0.21067594E+04</rscale>
<asrwt>0</asrwt>
<pdfrwt beam="1">  1        2 0.17328873E+00 0.21067594E+04</pdfrwt>
<pdfrwt beam="2">  1       -1 0.15155591E+00 0.21067594E+04</pdfrwt>
<totfact> 0.74789332E+00</totfact>
</mgrwt>
</event>
<event>
12    6  0.1402540E-007  0.1737068E+04  0.7818608E-02  0.8740501E-01
         -1   -1    0    0    0  501 -0.00000000000E+00  0.00000000000E+00  0.32706521859E+03  0.32706521859E+03  0.00000000000E+00 0.  1.
          2   -1    0    0  501    0  0.00000000000E+00 -0.00000000000E+00 -0.23064237407E+04  0.23064237407E+04  0.00000000000E+00 0. -1.
         24    2    1    2    0    0 -0.65176941031E+02 -0.63010515922E+03 -0.72459849117E+03  0.96582796070E+03  0.80623389587E+02 0.  0.
        254    2    1    2    0    0  0.65176941031E+02  0.63010515922E+03 -0.12547600309E+04  0.16676609986E+04  0.89743519300E+03 0.  0.
         23    2    4    4    0    0  0.17543486793E+03 -0.18286431328E+03 -0.37846203522E+03  0.46374356132E+03  0.87222867444E+02 0.  0.
         23    2    4    4    0    0 -0.11025792690E+03  0.81296947250E+03 -0.87629799573E+03  0.12039174373E+04  0.91884954045E+02 0.  0.
          4    1    3    3  502    0  0.32847997303E+01 -0.31811482367E+03 -0.38901416034E+03  0.50253342963E+03  0.00000000000E+00 0. -1.
         -3    1    3    3    0  502 -0.68461740762E+02 -0.31199033554E+03 -0.33558433083E+03  0.46329453107E+03  0.00000000000E+00 0.  1.
         11    1    5    5    0    0 -0.84201885200E+01 -0.16172186927E+01 -0.21977922094E+02  0.23591185442E+02  0.00000000000E+00 0. -1.
        -11    1    5    5    0    0  0.18385505645E+03 -0.18124709459E+03 -0.35648411312E+03  0.44015237588E+03  0.00000000000E+00 0.  1.
          3    1    6    6  503    0  0.30392749194E+01  0.18516068787E+03 -0.16014667204E+03  0.24482784582E+03  0.00000000000E+00 0. -1.
         -3    1    6    6    0  503 -0.11329720182E+03  0.62780878463E+03 -0.71615132369E+03  0.95908959145E+03  0.00000000000E+00 0.  1.
<mgrwt>
<rscale>  0 0.17370676E+04</rscale>
<asrwt>0</asrwt>
<pdfrwt beam="1">  1        2 0.35483444E+00 0.17370676E+04</pdfrwt>
<pdfrwt beam="2">  1       -1 0.50317723E-01 0.17370676E+04</pdfrwt>
<totfact> 0.19276266E+01</totfact>
</mgrwt>
</event>
<event>
12    6  0.1402540E-007  0.2555102E+04  0.7818608E-02  0.8383614E-01
         -1   -1    0    0    0  501 -0.00000000000E+00  0.00000000000E+00  0.50803487472E+03  0.50803487472E+03  0.00000000000E+00 0.  1.
          2   -1    0    0  501    0  0.00000000000E+00 -0.00000000000E+00 -0.32126476039E+04  0.32126476039E+04  0.00000000000E+00 0. -1.
         24    2    1    2    0    0  0.43192585869E+03  0.95848780394E+03 -0.63091619616E+03  0.12286799526E+04  0.79626387568E+02 0.  0.
        254    2    1    2    0    0 -0.43192585869E+03 -0.95848780394E+03 -0.20736965330E+04  0.24920025260E+04  0.89699524022E+03 0.  0.
         23    2    4    4    0    0  0.11689939280E+03 -0.78853758973E+02  0.37790916767E+01  0.16832019866E+03  0.91836944649E+02 0.  0.
         23    2    4    4    0    0 -0.54882525149E+03 -0.87963404496E+03 -0.20774756247E+04  0.23236823274E+04  0.92894443247E+02 0.  0.
          2    1    3    3  502    0  0.18407406701E+03  0.33287886890E+03 -0.20201271791E+03  0.43069797039E+03  0.00000000000E+00 0. -1.
         -1    1    3    3    0  502  0.24785179168E+03  0.62560893504E+03 -0.42890347825E+03  0.79798198219E+03  0.00000000000E+00 0.  1.
         11    1    5    5    0    0  0.50878852788E+02  0.60271928930E+01  0.27576796184E+02  0.58184743730E+02  0.00000000000E+00 0. -1.
        -11    1    5    5    0    0  0.66020540011E+02 -0.84880951866E+02 -0.23797704507E+02  0.11013545493E+03  0.00000000000E+00 0.  1.
          3    1    6    6  503    0 -0.52045461113E+03 -0.79544686424E+03 -0.18619805710E+04  0.20905933040E+04  0.00000000000E+00 0. -1.
         -3    1    6    6    0  503 -0.28370640362E+02 -0.84187180721E+02 -0.21549505374E+03  0.23308902338E+03  0.00000000000E+00 0.  1.
<mgrwt>
<rscale>  0 0.25551024E+04</rscale>
<asrwt>0</asrwt>
<pdfrwt beam="1">  1        2 0.49425349E+00 0.25551024E+04</pdfrwt>
<pdfrwt beam="2">  1       -1 0.78159210E-01 0.25551024E+04</pdfrwt>
<totfact> 0.21059693E+00</totfact>
</mgrwt>
</event>
<event>
12    6  0.1402540E-007  0.1065330E+04  0.7818608E-02  0.9239659E-01
         -1   -1    0    0    0  501 -0.00000000000E+00  0.00000000000E+00  0.97514313964E+03  0.97514313964E+03  0.00000000000E+00 0.  1.
          2   -1    0    0  501    0  0.00000000000E+00 -0.00000000000E+00 -0.29096423948E+03  0.29096423948E+03  0.00000000000E+00 0. -1.
         24    2    1    2    0    0  0.11225222301E+03 -0.15428216541E+02  0.18655077793E+03  0.23103728825E+03  0.75752520610E+02 0.  0.
        254    2    1    2    0    0 -0.11225222301E+03  0.15428216541E+02  0.49762812224E+03  0.10350700909E+04  0.90049861385E+03 0.  0.
         23    2    4    4    0    0 -0.11428150021E+03 -0.26289004501E+03  0.64203736987E+03  0.70851856816E+03  0.87264769895E+02 0.  0.
         23    2    4    4    0    0  0.20292772043E+01  0.27831826155E+03 -0.14440924763E+03  0.32655152271E+03  0.91195907291E+02 0.  0.
          2    1    3    3  502    0  0.94184879713E+02 -0.26234103393E+02  0.92271099762E+02  0.13443576756E+03  0.00000000000E+00 0. -1.
         -1    1    3    3    0  502  0.18067343295E+02  0.10805886851E+02  0.94279678167E+02  0.96601520690E+02  0.00000000000E+00 0.  1.
         11    1    5    5    0    0  0.13594868137E+02 -0.42441239224E+02  0.86107945336E+02  0.96956987766E+02  0.00000000000E+00 0.  1.
        -11    1    5    5    0    0 -0.12787636835E+03 -0.22044880578E+03  0.55592942453E+03  0.61156158039E+03  0.00000000000E+00 0. -1.
          4    1    6    6  503    0  0.40746527162E+02  0.18084213920E+03 -0.11284489049E+03  0.21702103146E+03  0.00000000000E+00 0. -1.
         -4    1    6    6    0  503 -0.38717249958E+02  0.97476122352E+02 -0.31564357147E+02  0.10953049126E+03  0.00000000000E+00 0.  1.
<mgrwt>
<rscale>  0 0.10653296E+04</rscale>
<asrwt>0</asrwt>
<pdfrwt beam="1">  1        2 0.44763730E-01 0.10653296E+04</pdfrwt>
<pdfrwt beam="2">  1       -1 0.15002202E+00 0.10653296E+04</pdfrwt>
<totfact> 0.45185547E+01</totfact>
</mgrwt>
</event>
<event>
12    6  0.1402540E-007  0.1389300E+04  0.7818608E-02  0.8961601E-01
          2   -1    0    0  501    0  0.00000000000E+00  0.00000000000E+00  0.89687140620E+03  0.89687140620E+03  0.00000000000E+00 0. -1.
         -1   -1    0    0    0  501 -0.00000000000E+00 -0.00000000000E+00 -0.53802398153E+03  0.53802398153E+03  0.00000000000E+00 0.  1.
         24    2    1    2    0    0 -0.69526951358E+02  0.28882751897E+03 -0.16770101275E+03  0.34999691528E+03  0.78223259650E+02 0.  0.
        254    2    1    2    0    0  0.69526951358E+02 -0.28882751897E+03  0.52654843741E+03  0.10848984724E+04  0.90083078649E+03 0.  0.
         23    2    4    4    0    0  0.37106926765E+03 -0.20119498027E+03 -0.36792272511E+02  0.43356300004E+03  0.91931399437E+02 0.  0.
         23    2    4    4    0    0 -0.30154231630E+03 -0.87632538706E+02  0.56334070992E+03  0.65133547241E+03  0.90983030318E+02 0.  0.
          2    1    3    3  502    0 -0.32668647819E+02  0.11845637966E+03 -0.26580541128E+02  0.12572064110E+03  0.00000000000E+00 0. -1.
         -1    1    3    3    0  502 -0.36858303539E+02  0.17037113931E+03 -0.14112047162E+03  0.22427627418E+03  0.00000000000E+00 0.  1.
         11    1    5    5    0    0  0.27504469337E+03 -0.14287242075E+03  0.14024738491E+02  0.31025603177E+03  0.00000000000E+00 0. -1.
        -11    1    5    5    0    0  0.96024574282E+02 -0.58322559518E+02 -0.50817011002E+02  0.12330696826E+03  0.00000000000E+00 0.  1.
          3    1    6    6  503    0 -0.21442237721E+03 -0.77431275975E+02  0.47483875040E+03  0.52672990918E+03  0.00000000000E+00 0. -1.
         -3    1    6    6    0  503 -0.87119939087E+02 -0.10201262731E+02  0.88501959528E+02  0.12460556323E+03  0.00000000000E+00 0.  1.
<mgrwt>
<rscale>  0 0.13892996E+04</rscale>
<asrwt>0</asrwt>
<pdfrwt beam="1">  1        2 0.13798022E+00 0.13892996E+04</pdfrwt>
<pdfrwt beam="2">  1       -1 0.82772920E-01 0.13892996E+04</pdfrwt>
<totfact> 0.47512747E+01</totfact>
</mgrwt>
</event>
<event>
12    6  0.1402540E-007  0.2024485E+04  0.7818608E-02  0.8595258E-01
         -1   -1    0    0    0  501 -0.00000000000E+00  0.00000000000E+00  0.64670760720E+03  0.64670760720E+03  0.00000000000E+00 0.  1.
          2   -1    0    0  501    0  0.00000000000E+00 -0.00000000000E+00 -0.15843868574E+04  0.15843868574E+04  0.00000000000E+00 0. -1.
         24    2    1    2    0    0  0.69005581404E+03  0.40243949574E+03 -0.23528343449E+03  0.83668192844E+03  0.80893637668E+02 0.  0.
        254    2    1    2    0    0 -0.69005581404E+03 -0.40243949574E+03 -0.70239581567E+03  0.13944125361E+04  0.90160516013E+03 0.  0.
         23    2    4    4    0    0 -0.29280956441E+03 -0.51906827196E+02 -0.79152185161E+03  0.85028255032E+03  0.89676162259E+02 0.  0.
         23    2    4    4    0    0 -0.39724624963E+03 -0.35053266854E+03  0.89126035939E+02  0.54412998580E+03  0.86349618411E+02 0.  0.
          4    1    3    3  502    0  0.52676611895E+03  0.31186121521E+03 -0.21515977782E+03  0.64887109014E+03  0.00000000000E+00 0. -1.
         -3    1    3    3    0  502  0.16328969509E+03  0.90578280522E+02 -0.20123656664E+02  0.18781083830E+03  0.00000000000E+00 0.  1.
         11    1    5    5    0    0 -0.23116531768E+03 -0.82191376609E+01 -0.53496315777E+03  0.58282976802E+03  0.00000000000E+00 0. -1.
        -11    1    5    5    0    0 -0.61644246727E+02 -0.43687689535E+02 -0.25655869384E+03  0.26745278230E+03  0.00000000000E+00 0.  1.
          3    1    6    6  503    0 -0.20158446022E+03 -0.21399623954E+03  0.15344108456E+02  0.29439111197E+03  0.00000000000E+00 0. -1.
         -3    1    6    6    0  503 -0.19566178941E+03 -0.13653642900E+03  0.73781927483E+02  0.24973887383E+03  0.00000000000E+00 0.  1.
<mgrwt>
<rscale>  0 0.20244852E+04</rscale>
<asrwt>0</asrwt>
<pdfrwt beam="1">  1        2 0.24375182E+00 0.20244852E+04</pdfrwt>
<pdfrwt beam="2">  1       -1 0.99493480E-01 0.20244852E+04</pdfrwt>
<totfact> 0.11589403E+01</totfact>
</mgrwt>
</event>
<event>
12    6  0.1402540E-007  0.2935084E+04  0.7818608E-02  0.8262515E-01
         -1   -1    0    0    0  501 -0.00000000000E+00  0.00000000000E+00  0.58490714294E+03  0.58490714294E+03  0.00000000000E+00 0.  1.
          2   -1    0    0  501    0  0.00000000000E+00 -0.00000000000E+00 -0.36820879109E+04  0.36820879109E+04  0.00000000000E+00 0. -1.
         24    2    1    2    0    0 -0.13980054987E+03  0.62063690921E+03  0.29129806957E+03  0.70437269580E+03  0.80944193403E+02 0.  0.
        254    2    1    2    0    0  0.13980054987E+03 -0.62063690921E+03 -0.33884788375E+04  0.35626223580E+04  0.89763849454E+03 0.  0.
         23    2    4    4    0    0 -0.29149007543E+03 -0.20177105147E+02 -0.56769416972E+03  0.64506934149E+03  0.92001116055E+02 0.  0.
         23    2    4    4    0    0  0.43129062529E+03 -0.60045980406E+03 -0.28207846678E+04  0.29175530165E+04  0.93412432302E+02 0.  0.
          2    1    3    3  502    0 -0.51764384302E+02  0.16450829532E+03  0.43473642033E+02  0.17785524525E+03  0.00000000000E+00 0. -1.
         -1    1    3    3    0  502 -0.88036165563E+02  0.45612861388E+03  0.24782442753E+03  0.52651745055E+03  0.00000000000E+00 0.  1.
         11    1    5    5    0    0 -0.53741674606E+02  0.12810770674E+02 -0.18729852098E+03  0.19527677639E+03  0.00000000000E+00 0. -1.
        -11    1    5    5    0    0 -0.23774840082E+03 -0.32987875821E+02 -0.38039564874E+03  0.44979256510E+03  0.00000000000E+00 0.  1.
          2    1    6    6  503    0  0.40724673862E+03 -0.51669242695E+03 -0.24724888121E+04  0.25585194735E+04  0.00000000000E+00 0. -1.
         -2    1    6    6    0  503  0.24043886676E+02 -0.83767377106E+02 -0.34829585567E+03  0.35903354304E+03  0.00000000000E+00 0.  1.
<mgrwt>
<rscale>  0 0.29350840E+04</rscale>
<asrwt>0</asrwt>
<pdfrwt beam="1">  1        2 0.56647505E+00 0.29350840E+04</pdfrwt>
<pdfrwt beam="2">  1       -1 0.89985716E-01 0.29350840E+04</pdfrwt>
<totfact> 0.71058634E-01</totfact>
</mgrwt>
</event>
<event>
12    6  0.1402540E-007  0.2517102E+04  0.7818608E-02  0.8396918E-01
         -1   -1    0    0    0  501 -0.00000000000E+00  0.00000000000E+00  0.55441861732E+03  0.55441861732E+03  0.00000000000E+00 0.  1.
          2   -1    0    0  501    0  0.00000000000E+00 -0.00000000000E+00 -0.28569588433E+04  0.28569588433E+04  0.00000000000E+00 0. -1.
         24    2    1    2    0    0  0.46871853213E+03 -0.66823615994E+03 -0.15004445402E+02  0.82108730004E+03  0.87878285651E+02 0.  0.
        254    2    1    2    0    0 -0.46871853213E+03  0.66823615994E+03 -0.22875357805E+04  0.25902901605E+04  0.90030358256E+03 0.  0.
         23    2    4    4    0    0 -0.23712142558E+03  0.20949252831E+03 -0.19300171634E+04  0.19578651990E+04  0.90311664857E+02 0.  0.
         23    2    4    4    0    0 -0.23159710654E+03  0.45874363163E+03 -0.35751861717E+03  0.63242496151E+03  0.89770991954E+02 0.  0.
          2    1    3    3  502    0  0.40122061471E+02 -0.74210108977E+02 -0.26712201693E+02  0.88489896657E+02  0.00000000000E+00 0. -1.
         -1    1    3    3    0  502  0.42859647066E+03 -0.59402605097E+03  0.11707756291E+02  0.73259740338E+03  0.00000000000E+00 0.  1.
         11    1    5    5    0    0 -0.17327657223E+03  0.13395998234E+03 -0.10704286897E+04  0.10926058883E+04  0.00000000000E+00 0. -1.
        -11    1    5    5    0    0 -0.63844853354E+02  0.75532545966E+02 -0.85958847366E+03  0.86525931076E+03  0.00000000000E+00 0.  1.
          4    1    6    6  503    0 -0.12916165627E+03  0.22309717649E+03 -0.12765370976E+03  0.28766395885E+03  0.00000000000E+00 0. -1.
         -4    1    6    6    0  503 -0.10243545028E+03  0.23564645514E+03 -0.22986490741E+03  0.34476100266E+03  0.00000000000E+00 0.  1.
<mgrwt>
<rscale>  0 0.25171024E+04</rscale>
<asrwt>0</asrwt>
<pdfrwt beam="1">  1        2 0.43953213E+00 0.25171024E+04</pdfrwt>
<pdfrwt beam="2">  1       -1 0.85295172E-01 0.25171024E+04</pdfrwt>
<totfact> 0.29382669E+00</totfact>
</mgrwt>
</event>
<event>
12    6  0.1402540E-007  0.1273261E+04  0.7818608E-02  0.9051042E-01
         -3   -1    0    0    0  501 -0.00000000000E+00  0.00000000000E+00  0.47336605301E+03  0.47336605301E+03  0.00000000000E+00 0.  1.
          2   -1    0    0  501    0  0.00000000000E+00 -0.00000000000E+00 -0.85620565266E+03  0.85620565266E+03  0.00000000000E+00 0. -1.
         24    2    1    2    0    0  0.73359305147E+00 -0.41225554311E+02 -0.42209031878E+03  0.42781853653E+03  0.56288351360E+02 0.  0.
        254    2    1    2    0    0 -0.73359305147E+00  0.41225554311E+02  0.39250719134E+02  0.90175316915E+03  0.89995448476E+03 0.  0.
         23    2    4    4    0    0 -0.12953318189E+01  0.16084404945E+03 -0.39797928665E+03  0.43903409989E+03  0.92146308298E+02 0.  0.
         23    2    4    4    0    0  0.56173876746E+00 -0.11961849514E+03  0.43723000579E+03  0.46271906926E+03  0.92897573522E+02 0.  0.
          4    1    3    3  502    0 -0.18435042715E+02 -0.29920441760E+02 -0.36265049210E+03  0.36434936950E+03  0.00000000000E+00 0. -1.
         -3    1    3    3    0  502  0.19168635767E+02 -0.11305112550E+02 -0.59439826683E+02  0.63469167026E+02  0.00000000000E+00 0.  1.
         11    1    5    5    0    0 -0.53277372147E+01  0.49357848989E+02 -0.24335166058E+03  0.24836387166E+03  0.00000000000E+00 0. -1.
        -11    1    5    5    0    0  0.40324053958E+01  0.11148620046E+03 -0.15462762607E+03  0.19067022823E+03  0.00000000000E+00 0.  1.
          3    1    6    6  503    0 -0.15137943058E+02  0.11407974591E+02  0.43115408489E+02  0.47098170384E+02  0.00000000000E+00 0. -1.
         -3    1    6    6    0  503  0.15699681825E+02 -0.13102646973E+03  0.39411459730E+03  0.41562089888E+03  0.00000000000E+00 0.  1.
<mgrwt>
<rscale>  0 0.12732615E+04</rscale>
<asrwt>0</asrwt>
<pdfrwt beam="1">  1        2 0.13172395E+00 0.12732615E+04</pdfrwt>
<pdfrwt beam="2">  1       -3 0.72825547E-01 0.12732615E+04</pdfrwt>
<totfact> 0.35050354E+01</totfact>
</mgrwt>
</event>
<event>
12    6  0.1402540E-007  0.2095322E+04  0.7818608E-02  0.8563307E-01
         -1   -1    0    0    0  501 -0.00000000000E+00  0.00000000000E+00  0.94592375101E+03  0.94592375101E+03  0.00000000000E+00 0.  1.
          2   -1    0    0  501    0  0.00000000000E+00 -0.00000000000E+00 -0.11603405158E+04  0.11603405158E+04  0.00000000000E+00 0. -1.
         24    2    1    2    0    0  0.23282372137E+03  0.80042546199E+03 -0.26647725939E+03  0.87851295931E+03  0.76727338459E+02 0.  0.
        254    2    1    2    0    0 -0.23282372137E+03 -0.80042546199E+03  0.52060494597E+02  0.12277513075E+04  0.89987508718E+03 0.  0.
         23    2    4    4    0    0 -0.20763959381E+03  0.14882344342E+03  0.36778645880E+02  0.27360454027E+03  0.90797342666E+02 0.  0.
         23    2    4    4    0    0 -0.25184127556E+02 -0.94924890541E+03  0.15281848717E+02  0.95414676722E+03  0.91949952679E+02 0.  0.
          2    1    3    3  502    0  0.15143309355E+03  0.49001855418E+03 -0.20182056069E+03  0.55116395381E+03  0.00000000000E+00 0. -1.
         -1    1    3    3    0  502  0.81390627814E+02  0.31040690781E+03 -0.64656698692E+02  0.32734900549E+03  0.00000000000E+00 0.  1.
         11    1    5    5    0    0 -0.43213291489E+01  0.23150131917E+02  0.24920265834E+02  0.34287346684E+02  0.00000000000E+00 0. -1.
        -11    1    5    5    0    0 -0.20331826466E+03  0.12567331150E+03  0.11858380046E+02  0.23931719359E+03  0.00000000000E+00 0.  1.
          1    1    6    6  503    0 -0.51371663729E+02 -0.38998405327E+03 -0.12849394196E+02  0.39356284958E+03  0.00000000000E+00 0. -1.
         -1    1    6    6    0  503  0.26187536173E+02 -0.55926485214E+03  0.28131242913E+02  0.56058391764E+03  0.00000000000E+00 0.  1.
<mgrwt>
<rscale>  0 0.20953221E+04</rscale>
<asrwt>0</asrwt>
<pdfrwt beam="1">  1        2 0.17851392E+00 0.20953221E+04</pdfrwt>
<pdfrwt beam="2">  1       -1 0.14552673E+00 0.20953221E+04</pdfrwt>
<totfact> 0.79602810E+00</totfact>
</mgrwt>
</event>
<event>
12    6  0.1402540E-007  0.2780318E+04  0.7818608E-02  0.8309405E-01
         -1   -1    0    0    0  501 -0.00000000000E+00  0.00000000000E+00  0.11092446553E+04  0.11092446553E+04  0.00000000000E+00 0.  1.
          2   -1    0    0  501    0  0.00000000000E+00 -0.00000000000E+00 -0.17422146326E+04  0.17422146326E+04  0.00000000000E+00 0. -1.
         24    2    1    2    0    0  0.10491384355E+04  0.63876811291E+03 -0.86632306963E+02  0.12339457565E+04  0.80005090209E+02 0.  0.
        254    2    1    2    0    0 -0.10491384355E+04 -0.63876811291E+03 -0.54633767028E+03  0.16175135314E+04  0.89952710662E+03 0.  0.
         23    2    4    4    0    0 -0.12554853669E+03  0.54073940912E+02  0.18554893622E+03  0.24767150560E+03  0.90699177518E+02 0.  0.
         23    2    4    4    0    0 -0.92358989879E+03 -0.69284205383E+03 -0.73188660650E+03  0.13698420258E+04  0.88095165997E+02 0.  0.
          4    1    3    3  502    0  0.50709911829E+03  0.32297724555E+03 -0.80595570166E+02  0.60659662285E+03  0.00000000000E+00 0. -1.
         -3    1    3    3    0  502  0.54203931718E+03  0.31579086736E+03 -0.60367367973E+01  0.62734913363E+03  0.00000000000E+00 0.  1.
         11    1    5    5    0    0 -0.13075397179E+03  0.25894692715E+02  0.13597342305E+03  0.19040984225E+03  0.00000000000E+00 0. -1.
        -11    1    5    5    0    0  0.52054350985E+01  0.28179248198E+02  0.49575513174E+02  0.57261663353E+02  0.00000000000E+00 0.  1.
          4    1    6    6  503    0 -0.13141388281E+03 -0.13238903192E+03 -0.97404490886E+02  0.21043787495E+03  0.00000000000E+00 0. -1.
         -4    1    6    6    0  503 -0.79217601598E+03 -0.56045302190E+03 -0.63448211562E+03  0.11594041509E+04  0.00000000000E+00 0.  1.
<mgrwt>
<rscale>  0 0.27803182E+04</rscale>
<asrwt>0</asrwt>
<pdfrwt beam="1">  1        2 0.26803302E+00 0.27803182E+04</pdfrwt>
<pdfrwt beam="2">  1       -1 0.17065302E+00 0.27803182E+04</pdfrwt>
<totfact> 0.22430316E+00</totfact>
</mgrwt>
</event>
<event>
12    6  0.1402540E-007  0.2378132E+04  0.7818608E-02  0.8447736E-01
         -1   -1    0    0    0  501 -0.00000000000E+00  0.00000000000E+00  0.12835183594E+04  0.12835183594E+04  0.00000000000E+00 0.  1.
          2   -1    0    0  501    0  0.00000000000E+00 -0.00000000000E+00 -0.11015641961E+04  0.11015641961E+04  0.00000000000E+00 0. -1.
         24    2    1    2    0    0  0.93880995178E+03  0.38109767623E+03 -0.17047207366E+02  0.10167312352E+04  0.82778215598E+02 0.  0.
        254    2    1    2    0    0 -0.93880995178E+03 -0.38109767623E+03  0.19900137066E+03  0.13683513203E+04  0.89787762299E+03 0.  0.
         23    2    4    4    0    0 -0.61792917140E+03  0.17810221793E+03  0.28859716742E+03  0.71097314466E+03  0.92938831954E+02 0.  0.
         23    2    4    4    0    0 -0.32088078038E+03 -0.55919989417E+03 -0.89595796765E+02  0.65737817565E+03  0.91922043926E+02 0.  0.
          2    1    3    3  502    0  0.90781737843E+03  0.38330678653E+03 -0.14128707226E+02  0.98552326484E+03  0.00000000000E+00 0. -1.
         -1    1    3    3    0  502  0.30992573356E+02 -0.22091102984E+01 -0.29185001404E+01  0.31207970370E+02  0.00000000000E+00 0.  1.
         11    1    5    5    0    0 -0.18994126568E+03  0.79990001965E+02  0.13224400226E+03  0.24487662394E+03  0.00000000000E+00 0.  1.
        -11    1    5    5    0    0 -0.42798790572E+03  0.98112215970E+02  0.15635316517E+03  0.46609652072E+03  0.00000000000E+00 0. -1.
          1    1    6    6  503    0 -0.19090351797E+03 -0.40329221891E+03 -0.37187835855E+02  0.44774066394E+03  0.00000000000E+00 0. -1.
         -1    1    6    6    0  503 -0.12997726241E+03 -0.15590767526E+03 -0.52407960910E+02  0.20963751171E+03  0.00000000000E+00 0.  1.
<mgrwt>
<rscale>  0 0.23781319E+04</rscale>
<asrwt>0</asrwt>
<pdfrwt beam="1">  1        2 0.16947142E+00 0.23781319E+04</pdfrwt>
<pdfrwt beam="2">  1       -1 0.19746436E+00 0.23781319E+04</pdfrwt>
<totfact> 0.34984318E+00</totfact>
</mgrwt>
</event>
<event>
12    6  0.1402540E-007  0.2265886E+04  0.7818608E-02  0.8491495E-01
         -1   -1    0    0    0  501 -0.00000000000E+00  0.00000000000E+00  0.79307487841E+03  0.79307487841E+03  0.00000000000E+00 0.  1.
          2   -1    0    0  501    0  0.00000000000E+00 -0.00000000000E+00 -0.16184593707E+04  0.16184593707E+04  0.00000000000E+00 0. -1.
         24    2    1    2    0    0  0.52476589321E+03  0.56973113432E+03  0.24262243404E+03  0.81534560465E+03  0.77136252440E+02 0.  0.
        254    2    1    2    0    0 -0.52476589321E+03 -0.56973113432E+03 -0.10680069264E+04  0.15961886445E+04  0.89844676301E+03 0.  0.
         23    2    4    4    0    0 -0.17156367084E+03 -0.72318752832E+03 -0.88863560284E+03  0.11620323419E+04  0.90618070564E+02 0.  0.
         23    2    4    4    0    0 -0.35320222237E+03  0.15345639401E+03 -0.17937132351E+03  0.43415630258E+03  0.89537414659E+02 0.  0.
          4    1    3    3  502    0  0.31623572370E+03  0.38982204031E+03  0.13646075731E+03  0.52018054014E+03  0.00000000000E+00 0. -1.
         -3    1    3    3    0  502  0.20853016952E+03  0.17990909401E+03  0.10616167673E+03  0.29516506452E+03  0.00000000000E+00 0.  1.
         11    1    5    5    0    0 -0.18203461362E+03 -0.69909871647E+03 -0.85409809286E+03  0.11186416621E+04  0.00000000000E+00 0. -1.
        -11    1    5    5    0    0  0.10470942778E+02 -0.24088811846E+02 -0.34537509985E+02  0.43390679815E+02  0.00000000000E+00 0.  1.
          2    1    6    6  503    0 -0.23458672213E+03  0.77178255483E+02 -0.73021075236E+02  0.25752570891E+03  0.00000000000E+00 0. -1.
         -2    1    6    6    0  503 -0.11861550024E+03  0.76278138523E+02 -0.10635024827E+03  0.17663059367E+03  0.00000000000E+00 0.  1.
<mgrwt>
<rscale>  0 0.22658857E+04</rscale>
<asrwt>0</asrwt>
<pdfrwt beam="1">  1        2 0.24899375E+00 0.22658857E+04</pdfrwt>
<pdfrwt beam="2">  1       -1 0.12201152E+00 0.22658857E+04</pdfrwt>
<totfact> 0.67005341E+00</totfact>
</mgrwt>
</event>
<event>
12    6  0.1402540E-007  0.1260094E+04  0.7818608E-02  0.9061823E-01
         -1   -1    0    0    0  501 -0.00000000000E+00  0.00000000000E+00  0.25689979606E+03  0.25689979606E+03  0.00000000000E+00 0.  1.
          2   -1    0    0  501    0  0.00000000000E+00 -0.00000000000E+00 -0.15451915438E+04  0.15451915438E+04  0.00000000000E+00 0. -1.
         24    2    1    2    0    0  0.13312795380E+02 -0.28808001264E+03 -0.19375329706E+03  0.35661024458E+03  0.80394043378E+02 0.  0.
        254    2    1    2    0    0 -0.13312795380E+02  0.28808001264E+03 -0.10945384507E+04  0.14454810953E+04  0.89901827155E+03 0.  0.
         23    2    4    4    0    0 -0.36409218134E+03  0.29567545631E+03 -0.93439982996E+03  0.10494637270E+04  0.91016372766E+02 0.  0.
         23    2    4    4    0    0  0.35077938596E+03 -0.75954436692E+01 -0.16013862070E+03  0.39601736825E+03  0.89897217609E+02 0.  0.
          4    1    3    3  502    0  0.96409173773E+01 -0.96570683997E+02 -0.22391805295E+02  0.99600387750E+02  0.00000000000E+00 0. -1.
         -3    1    3    3    0  502  0.36718780031E+01 -0.19150932864E+03 -0.17136149177E+03  0.25700985683E+03  0.00000000000E+00 0.  1.
         11    1    5    5    0    0 -0.22442071553E+03  0.23518579481E+03 -0.61392912882E+03  0.69468409429E+03  0.00000000000E+00 0. -1.
        -11    1    5    5    0    0 -0.13967146581E+03  0.60489661502E+02 -0.32047070114E+03  0.35477963273E+03  0.00000000000E+00 0.  1.
          3    1    6    6  503    0  0.31826177578E+03 -0.34298850619E+02 -0.14263271920E+03  0.35044409207E+03  0.00000000000E+00 0. -1.
         -3    1    6    6    0  503  0.32517610175E+02  0.26703406949E+02 -0.17505901500E+02  0.45573276177E+02  0.00000000000E+00 0.  1.
<mgrwt>
<rscale>  0 0.12600943E+04</rscale>
<asrwt>0</asrwt>
<pdfrwt beam="1">  1        2 0.23772178E+00 0.12600943E+04</pdfrwt>
<pdfrwt beam="2">  1       -1 0.39523045E-01 0.12600943E+04</pdfrwt>
<totfact> 0.83433673E+01</totfact>
</mgrwt>
</event>
<event>
12    6  0.1402540E-007  0.1764428E+04  0.7818608E-02  0.8725448E-01
         -1   -1    0    0    0  501 -0.00000000000E+00  0.00000000000E+00  0.44976389709E+03  0.44976389709E+03  0.00000000000E+00 0.  1.
          2   -1    0    0  501    0  0.00000000000E+00 -0.00000000000E+00 -0.17304676412E+04  0.17304676412E+04  0.00000000000E+00 0. -1.
         24    2    1    2    0    0  0.60250558023E+03  0.30124113025E+02 -0.18060933571E+03  0.63466510113E+03  0.79117773338E+02 0.  0.
        254    2    1    2    0    0 -0.60250558023E+03 -0.30124113025E+02 -0.11000944084E+04  0.15455664371E+04  0.90257823366E+03 0.  0.
         23    2    4    4    0    0 -0.26145926997E+03  0.32982353117E+03 -0.91022695519E+03  0.10070559813E+04  0.92217828362E+02 0.  0.
         23    2    4    4    0    0 -0.34104631026E+03 -0.35994764419E+03 -0.18986745319E+03  0.53851045588E+03  0.89827440183E+02 0.  0.
          4    1    3    3  502    0  0.23927766068E+03  0.32475699493E+02 -0.10665836348E+03  0.26397817421E+03  0.00000000000E+00 0. -1.
         -3    1    3    3    0  502  0.36322791955E+03 -0.23515864682E+01 -0.73950972229E+02  0.37068692692E+03  0.00000000000E+00 0.  1.
         11    1    5    5    0    0 -0.85183193653E+02  0.18117715070E+03 -0.43284894300E+03  0.47690622125E+03  0.00000000000E+00 0. -1.
        -11    1    5    5    0    0 -0.17627607631E+03  0.14864638047E+03 -0.47737801219E+03  0.53014976000E+03  0.00000000000E+00 0.  1.
          3    1    6    6  503    0 -0.28968125462E+03 -0.29483934862E+03 -0.12091042626E+03  0.43065624569E+03  0.00000000000E+00 0. -1.
         -3    1    6    6    0  503 -0.51365055643E+02 -0.65108295574E+02 -0.68957026926E+02  0.10785421019E+03  0.00000000000E+00 0.  1.
<mgrwt>
<rscale>  0 0.17644284E+04</rscale>
<asrwt>0</asrwt>
<pdfrwt beam="1">  1        2 0.26622579E+00 0.17644284E+04</pdfrwt>
<pdfrwt beam="2">  1       -1 0.69194446E-01 0.17644284E+04</pdfrwt>
<totfact> 0.21489322E+01</totfact>
</mgrwt>
</event>
<event>
12    6  0.1402540E-007  0.1944841E+04  0.7818608E-02  0.8632853E-01
         -1   -1    0    0    0  501 -0.00000000000E+00  0.00000000000E+00  0.19299823724E+03  0.19299823724E+03  0.00000000000E+00 0.  1.
          2   -1    0    0  501    0  0.00000000000E+00 -0.00000000000E+00 -0.48995330378E+04  0.48995330378E+04  0.00000000000E+00 0. -1.
         24    2    1    2    0    0 -0.72148395001E+03  0.10614370969E+03 -0.12749500578E+04  0.14709730261E+04  0.80364273002E+02 0.  0.
        254    2    1    2    0    0  0.72148395001E+03 -0.10614370969E+03 -0.34315847428E+04  0.36215582490E+04  0.89894645370E+03 0.  0.
         23    2    4    4    0    0  0.10528394567E+03 -0.14756370336E+03 -0.89015555513E+02  0.22117137827E+03  0.90184553428E+02 0.  0.
         23    2    4    4    0    0  0.61620000433E+03  0.41419993673E+02 -0.33425691873E+04  0.34003868707E+04  0.91891444512E+02 0.  0.
          2    1    3    3  502    0 -0.44447875242E+03  0.95343319643E+02 -0.84198214100E+03  0.95686239121E+03  0.00000000000E+00 0. -1.
         -1    1    3    3    0  502 -0.27700519759E+03  0.10800390045E+02 -0.43296791677E+03  0.51411063485E+03  0.00000000000E+00 0.  1.
         11    1    5    5    0    0  0.45658222219E+02 -0.11970179651E+03 -0.87860699799E+02  0.15534701772E+03  0.00000000000E+00 0.  1.
        -11    1    5    5    0    0  0.59625723454E+02 -0.27861906850E+02 -0.11548557138E+01  0.65824360555E+02  0.00000000000E+00 0. -1.
          3    1    6    6  503    0  0.40532156910E+03  0.41352766425E+02 -0.24170034984E+04  0.24511021066E+04  0.00000000000E+00 0. -1.
         -3    1    6    6    0  503  0.21087843524E+03  0.67227248862E-01 -0.92556568893E+03  0.94928476417E+03  0.00000000000E+00 0.  1.
<mgrwt>
<rscale>  0 0.19448406E+04</rscale>
<asrwt>0</asrwt>
<pdfrwt beam="1">  1        2 0.75377436E+00 0.19448406E+04</pdfrwt>
<pdfrwt beam="2">  1       -1 0.29692035E-01 0.19448406E+04</pdfrwt>
<totfact> 0.51632905E-01</totfact>
</mgrwt>
</event>
<event>
12    6  0.1402540E-007  0.2210783E+04  0.7818608E-02  0.8513953E-01
          2   -1    0    0  501    0  0.00000000000E+00  0.00000000000E+00  0.21097996857E+04  0.21097996857E+04  0.00000000000E+00 0. -1.
         -1   -1    0    0    0  501 -0.00000000000E+00 -0.00000000000E+00 -0.57915012972E+03  0.57915012972E+03  0.00000000000E+00 0.  1.
         24    2    1    2    0    0  0.14079338012E+03 -0.88494645793E+03  0.89014725215E+03  0.12656943963E+04  0.81652709880E+02 0.  0.
        254    2    1    2    0    0 -0.14079338012E+03  0.88494645793E+03  0.64050230385E+03  0.14232554191E+04  0.90136550722E+03 0.  0.
         23    2    4    4    0    0 -0.47248825379E+03  0.65312214447E+03  0.24246978577E+03  0.84797715200E+03  0.10227398371E+03 0.  0.
         23    2    4    4    0    0  0.33169487367E+03  0.23182431346E+03  0.39803251808E+03  0.57527826715E+03  0.93547836235E+02 0.  0.
          4    1    3    3  502    0 -0.52003962100E+01 -0.76087731970E+02  0.97971699158E+02  0.12415651780E+03  0.00000000000E+00 0. -1.
         -3    1    3    3    0  502  0.14599377633E+03 -0.80885872596E+03  0.79217555299E+03  0.11415378785E+04  0.00000000000E+00 0.  1.
         11    1    5    5    0    0 -0.20625467775E+03  0.22729966915E+03  0.13006452748E+03  0.33335103569E+03  0.00000000000E+00 0. -1.
        -11    1    5    5    0    0 -0.26623357605E+03  0.42582247531E+03  0.11240525829E+03  0.51462611631E+03  0.00000000000E+00 0.  1.
          1    1    6    6  503    0  0.13325511332E+03  0.95655518200E+02  0.99631456357E+02  0.19192011485E+03  0.00000000000E+00 0. -1.
         -1    1    6    6    0  503  0.19843976035E+03  0.13616879526E+03  0.29840106173E+03  0.38335815230E+03  0.00000000000E+00 0.  1.
<mgrwt>
<rscale>  0 0.22107834E+04</rscale>
<asrwt>0</asrwt>
<pdfrwt beam="1">  1        2 0.32458456E+00 0.22107834E+04</pdfrwt>
<pdfrwt beam="2">  1       -1 0.89100021E-01 0.22107834E+04</pdfrwt>
<totfact> 0.74472993E+00</totfact>
</mgrwt>
</event>
<event>
12    6  0.1402540E-007  0.1974386E+04  0.7818608E-02  0.8618691E-01
          2   -1    0    0  501    0  0.00000000000E+00  0.00000000000E+00  0.13163527754E+04  0.13163527754E+04  0.00000000000E+00 0. -1.
         -1   -1    0    0    0  501 -0.00000000000E+00 -0.00000000000E+00 -0.74034087818E+03  0.74034087818E+03  0.00000000000E+00 0.  1.
         24    2    1    2    0    0  0.60929973269E+03  0.48786440023E+03  0.21693892697E+03  0.81324268434E+03  0.71016394839E+02 0.  0.
        254    2    1    2    0    0 -0.60929973269E+03 -0.48786440023E+03  0.35907297026E+03  0.12434509692E+04  0.89887656421E+03 0.  0.
         23    2    4    4    0    0 -0.13715279754E+03 -0.47020390075E+03 -0.17133680017E+03  0.52703716734E+03  0.92245750641E+02 0.  0.
         23    2    4    4    0    0 -0.47214693515E+03 -0.17660499480E+02  0.53040977043E+03  0.71641380191E+03  0.93164313900E+02 0.  0.
          4    1    3    3  502    0  0.59362954694E+03  0.46229520618E+03  0.21762616651E+03  0.78324583944E+03  0.00000000000E+00 0. -1.
         -3    1    3    3    0  502  0.15670185755E+02  0.25569194051E+02 -0.68723953865E+00  0.29996844905E+02  0.00000000000E+00 0.  1.
         11    1    5    5    0    0 -0.84716169457E+02 -0.36873220244E+03 -0.96391339628E+02  0.39042484147E+03  0.00000000000E+00 0. -1.
        -11    1    5    5    0    0 -0.52436628085E+02 -0.10147169831E+03 -0.74945460543E+02  0.13661232587E+03  0.00000000000E+00 0.  1.
          1    1    6    6  503    0 -0.24431577900E+03 -0.45615178650E+02  0.31864956574E+03  0.40411445178E+03  0.00000000000E+00 0.  1.
         -1    1    6    6    0  503 -0.22783115615E+03  0.27954679169E+02  0.21176020469E+03  0.31229935013E+03  0.00000000000E+00 0. -1.
<mgrwt>
<rscale>  0 0.19743857E+04</rscale>
<asrwt>0</asrwt>
<pdfrwt beam="1">  1        2 0.20251581E+00 0.19743857E+04</pdfrwt>
<pdfrwt beam="2">  1       -1 0.11389860E+00 0.19743857E+04</pdfrwt>
<totfact> 0.12056075E+01</totfact>
</mgrwt>
</event>
<event>
12    6  0.1402540E-007  0.1611759E+04  0.7818608E-02  0.8813357E-01
          2   -1    0    0  501    0  0.00000000000E+00  0.00000000000E+00  0.26321988128E+04  0.26321988128E+04  0.00000000000E+00 0. -1.
         -1   -1    0    0    0  501 -0.00000000000E+00 -0.00000000000E+00 -0.24672965745E+03  0.24672965745E+03  0.00000000000E+00 0.  1.
         24    2    1    2    0    0  0.54394855093E+03 -0.36259172758E+02  0.94837440259E+03  0.10967793334E+04  0.79474178963E+02 0.  0.
        254    2    1    2    0    0 -0.54394855093E+03  0.36259172758E+02  0.14370947527E+04  0.17821491368E+04  0.90200857186E+03 0.  0.
         23    2    4    4    0    0  0.12561912363E+03  0.15781636815E+03  0.85164770818E+03  0.87995502123E+03  0.91273491584E+02 0.  0.
         23    2    4    4    0    0 -0.66956767456E+03 -0.12155719540E+03  0.58544704455E+03  0.90219411554E+03  0.90049750566E+02 0.  0.
          2    1    3    3  502    0  0.48510530312E+03 -0.56413321817E+02  0.82848370798E+03  0.96171454829E+03  0.00000000000E+00 0. -1.
         -1    1    3    3    0  502  0.58843247808E+02  0.20154149059E+02  0.11989069460E+03  0.13506478516E+03  0.00000000000E+00 0.  1.
         11    1    5    5    0    0  0.29454531732E+02  0.95781277171E+02  0.50689896578E+03  0.51670899354E+03  0.00000000000E+00 0. -1.
        -11    1    5    5    0    0  0.96164591901E+02  0.62035090984E+02  0.34474874240E+03  0.36324602769E+03  0.00000000000E+00 0.  1.
          2    1    6    6  503    0 -0.15858444270E+02  0.39853289828E+01  0.34245010865E+02  0.37948568760E+02  0.00000000000E+00 0. -1.
         -2    1    6    6    0  503 -0.65370923029E+03 -0.12554252438E+03  0.55120203369E+03  0.86424554678E+03  0.00000000000E+00 0.  1.
<mgrwt>
<rscale>  0 0.16117587E+04</rscale>
<asrwt>0</asrwt>
<pdfrwt beam="1">  1        2 0.40495364E+00 0.16117587E+04</pdfrwt>
<pdfrwt beam="2">  1       -1 0.37958411E-01 0.16117587E+04</pdfrwt>
<totfact> 0.21362613E+01</totfact>
</mgrwt>
</event>
<event>
12    6  0.1402540E-007  0.2794340E+04  0.7818608E-02  0.8305028E-01
         -1   -1    0    0    0  501 -0.00000000000E+00  0.00000000000E+00  0.69062189474E+03  0.69062189474E+03  0.00000000000E+00 0.  1.
          2   -1    0    0  501    0  0.00000000000E+00 -0.00000000000E+00 -0.28265593077E+04  0.28265593077E+04  0.00000000000E+00 0. -1.
         24    2    1    2    0    0 -0.76554227120E+02  0.11844819887E+04 -0.46068818735E+03  0.12756724273E+04  0.79046849690E+02 0.  0.
        254    2    1    2    0    0  0.76554227120E+02 -0.11844819887E+04 -0.16752492256E+04  0.22415087751E+04  0.89946844849E+03 0.  0.
         23    2    4    4    0    0  0.27092650347E+03 -0.55946412362E+03 -0.26059435066E+03  0.68012936961E+03  0.90913518798E+02 0.  0.
         23    2    4    4    0    0 -0.19437227635E+03 -0.62501786511E+03 -0.14146548749E+04  0.15613794055E+04  0.90715595723E+02 0.  0.
          2    1    3    3  502    0 -0.69347713776E+02  0.11299133855E+04 -0.45600254856E+03  0.12204309437E+04  0.00000000000E+00 0. -1.
         -1    1    3    3    0  502 -0.72065133441E+01  0.54568603269E+02 -0.46856387914E+01  0.55241483580E+02  0.00000000000E+00 0.  1.
         11    1    5    5    0    0  0.60826828059E+02 -0.70276517275E+02 -0.62827906447E+02  0.11218751143E+03  0.00000000000E+00 0. -1.
        -11    1    5    5    0    0  0.21009967541E+03 -0.48918760635E+03 -0.19776644421E+03  0.56794185818E+03  0.00000000000E+00 0.  1.
          4    1    6    6  503    0 -0.70734947242E+02 -0.10854868373E+03 -0.26332554289E+03  0.29347332254E+03  0.00000000000E+00 0. -1.
         -4    1    6    6    0  503 -0.12363732911E+03 -0.51646918138E+03 -0.11513293320E+04  0.12679060830E+04  0.00000000000E+00 0.  1.
<mgrwt>
<rscale>  0 0.27943398E+04</rscale>
<asrwt>0</asrwt>
<pdfrwt beam="1">  1        2 0.43485528E+00 0.27943398E+04</pdfrwt>
<pdfrwt beam="2">  1       -1 0.10624952E+00 0.27943398E+04</pdfrwt>
<totfact> 0.18251640E+00</totfact>
</mgrwt>
</event>
<event>
12    6  0.1402540E-007  0.1481144E+04  0.7818608E-02  0.8897090E-01
          2   -1    0    0  501    0  0.00000000000E+00  0.00000000000E+00  0.14428815033E+04  0.14428815033E+04  0.00000000000E+00 0. -1.
         -1   -1    0    0    0  501 -0.00000000000E+00 -0.00000000000E+00 -0.38010509086E+03  0.38010509086E+03  0.00000000000E+00 0.  1.
         24    2    1    2    0    0 -0.22431836850E+03  0.27886499592E+03  0.69647665537E+03  0.78725500552E+03  0.81279123053E+02 0.  0.
        254    2    1    2    0    0  0.22431836850E+03 -0.27886499592E+03  0.36629975705E+03  0.10357315886E+04  0.90026662453E+03 0.  0.
         23    2    4    4    0    0 -0.25880221872E+03  0.14720762564E+03  0.59027422634E+02  0.31617184306E+03  0.88497029693E+02 0.  0.
         23    2    4    4    0    0  0.48312058722E+03 -0.42607262155E+03  0.30727233441E+03  0.71955974555E+03  0.91687290770E+02 0.  0.
          2    1    3    3  502    0  0.32958989952E+01  0.60560928420E+01  0.41967394210E+02  0.42530005731E+02  0.00000000000E+00 0. -1.
         -1    1    3    3    0  502 -0.22761426750E+03  0.27280890308E+03  0.65450926116E+03  0.74472499979E+03  0.00000000000E+00 0.  1.
         11    1    5    5    0    0 -0.15627324226E+03  0.13651853595E+03  0.37641846574E+02  0.21089226045E+03  0.00000000000E+00 0. -1.
        -11    1    5    5    0    0 -0.10252897645E+03  0.10689089685E+02  0.21385576060E+02  0.10527958261E+03  0.00000000000E+00 0.  1.
          2    1    6    6  503    0  0.29093858592E+03 -0.30354327111E+03  0.22766755338E+03  0.47813836185E+03  0.00000000000E+00 0. -1.
         -2    1    6    6    0  503  0.19218200130E+03 -0.12252935044E+03  0.79604781036E+02  0.24142138370E+03  0.00000000000E+00 0.  1.
<mgrwt>
<rscale>  0 0.14811436E+04</rscale>
<asrwt>0</asrwt>
<pdfrwt beam="1">  1        2 0.22198177E+00 0.14811436E+04</pdfrwt>
<pdfrwt beam="2">  1       -1 0.58477707E-01 0.14811436E+04</pdfrwt>
<totfact> 0.44686582E+01</totfact>
</mgrwt>
</event>
<event>
12    6  0.1402540E-007  0.3422653E+04  0.7818608E-02  0.8132369E-01
          2   -1    0    0  501    0  0.00000000000E+00  0.00000000000E+00  0.22694110732E+04  0.22694110732E+04  0.00000000000E+00 0. -1.
         -1   -1    0    0    0  501 -0.00000000000E+00 -0.00000000000E+00 -0.12904836929E+04  0.12904836929E+04  0.00000000000E+00 0.  1.
         24    2    1    2    0    0 -0.31901905763E+03 -0.15233125605E+04  0.80520302172E+03  0.17539438349E+04  0.75582760487E+02 0.  0.
        254    2    1    2    0    0  0.31901905763E+03  0.15233125605E+04  0.17372435864E+03  0.18059509312E+04  0.89945777955E+03 0.  0.
         23    2    4    4    0    0  0.23114273445E+03  0.12094838130E+02 -0.92807606951E+02  0.26626018815E+03  0.93316596003E+02 0.  0.
         23    2    4    4    0    0  0.87876323177E+02  0.15112177223E+04  0.26653196559E+03  0.15396907431E+04  0.90039120016E+02 0.  0.
          2    1    3    3  502    0 -0.73600033776E+02 -0.52288280852E+03  0.28040603764E+03  0.59787201169E+03  0.00000000000E+00 0. -1.
         -1    1    3    3    0  502 -0.24541902385E+03 -0.10004297519E+04  0.52479698408E+03  0.11560718232E+04  0.00000000000E+00 0.  1.
         11    1    5    5    0    0  0.48606615278E+02  0.41041050886E+02 -0.35028122680E+02  0.72621899487E+02  0.00000000000E+00 0. -1.
        -11    1    5    5    0    0  0.18253611917E+03 -0.28946212757E+02 -0.57779484271E+02  0.19363828867E+03  0.00000000000E+00 0.  1.
          4    1    6    6  503    0 -0.84699792589E+01  0.15833007966E+02  0.35625869184E+01  0.18306193363E+02  0.00000000000E+00 0. -1.
         -4    1    6    6    0  503  0.96346302436E+02  0.14953847144E+04  0.26296937867E+03  0.15213845497E+04  0.00000000000E+00 0.  1.
<mgrwt>
<rscale>  0 0.34226528E+04</rscale>
<asrwt>0</asrwt>
<pdfrwt beam="1">  1        2 0.34914017E+00 0.34226528E+04</pdfrwt>
<pdfrwt beam="2">  1       -1 0.19853595E+00 0.34226528E+04</pdfrwt>
<totfact> 0.68330233E-01</totfact>
</mgrwt>
</event>
<event>
12    6  0.1402540E-007  0.1292874E+04  0.7818608E-02  0.9035235E-01
          2   -1    0    0  501    0  0.00000000000E+00  0.00000000000E+00  0.25749369619E+04  0.25749369619E+04  0.00000000000E+00 0. -1.
         -1   -1    0    0    0  501 -0.00000000000E+00 -0.00000000000E+00 -0.16228773375E+03  0.16228773375E+03  0.00000000000E+00 0.  1.
         24    2    1    2    0    0  0.42516493529E+02  0.22013090772E+03  0.12466788600E+03  0.26855011339E+03  0.79446918445E+02 0.  0.
        254    2    1    2    0    0 -0.42516493529E+02 -0.22013090772E+03  0.22879813421E+04  0.24686745822E+04  0.89957228851E+03 0.  0.
         23    2    4    4    0    0  0.35877154324E+03  0.10173809943E+03  0.12315950167E+04  0.12900885841E+04  0.91840125848E+02 0.  0.
         23    2    4    4    0    0 -0.40128803677E+03 -0.32186900714E+03  0.10563863255E+04  0.11785859981E+04  0.92093105431E+02 0.  0.
          4    1    3    3  502    0  0.47391620534E+02  0.98791134175E+02  0.91269229367E+02  0.14260338747E+03  0.00000000000E+00 0. -1.
         -3    1    3    3    0  502 -0.48751270054E+01  0.12133977354E+03  0.33398656631E+02  0.12594672592E+03  0.00000000000E+00 0.  1.
         11    1    5    5    0    0  0.21871321223E+02  0.23993137346E+02  0.56291937244E+02  0.64983132661E+02  0.00000000000E+00 0. -1.
        -11    1    5    5    0    0  0.33690022202E+03  0.77744962082E+02  0.11753030794E+04  0.12251054515E+04  0.00000000000E+00 0.  1.
          3    1    6    6  503    0 -0.11059432490E+03 -0.14472480695E+03  0.37539715603E+03  0.41725220095E+03  0.00000000000E+00 0. -1.
         -3    1    6    6    0  503 -0.29069371187E+03 -0.17714420019E+03  0.68098916946E+03  0.76133379717E+03  0.00000000000E+00 0.  1.
<mgrwt>
<rscale>  0 0.12928738E+04</rscale>
<asrwt>0</asrwt>
<pdfrwt beam="1">  1        2 0.39614412E+00 0.12928738E+04</pdfrwt>
<pdfrwt beam="2">  1       -1 0.24967346E-01 0.12928738E+04</pdfrwt>
<totfact> 0.49643951E+01</totfact>
</mgrwt>
</event>
<event>
12    6  0.1402540E-007  0.4219300E+04  0.7818608E-02  0.7961711E-01
          2   -1    0    0  501    0  0.00000000000E+00  0.00000000000E+00  0.36068506090E+04  0.36068506090E+04  0.00000000000E+00 0. -1.
         -1   -1    0    0    0  501 -0.00000000000E+00 -0.00000000000E+00 -0.12339358107E+04  0.12339358107E+04  0.00000000000E+00 0.  1.
         24    2    1    2    0    0  0.93116907267E+03  0.15530239700E+04  0.12402969569E+03  0.18167634477E+04  0.79289129671E+02 0.  0.
        254    2    1    2    0    0 -0.93116907267E+03 -0.15530239700E+04  0.22488851026E+04  0.30240229720E+04  0.89903917444E+03 0.  0.
         23    2    4    4    0    0 -0.21595811097E+01 -0.43274571658E+03  0.14775507593E+03  0.46645423302E+03  0.92056884760E+02 0.  0.
         23    2    4    4    0    0 -0.92900949156E+03 -0.11202782534E+04  0.21011300266E+04  0.25575687390E+04  0.91260424764E+02 0.  0.
          4    1    3    3  502    0  0.98843579704E+02  0.12917774985E+03  0.24483779780E+02  0.16448829678E+03  0.00000000000E+00 0. -1.
         -1    1    3    3    0  502  0.83232549297E+03  0.14238462202E+04  0.99545915911E+02  0.16522751509E+04  0.00000000000E+00 0.  1.
         11    1    5    5    0    0 -0.27614245855E+02 -0.11429424382E+03  0.82991221789E+01  0.11787534167E+03  0.00000000000E+00 0.  1.
        -11    1    5    5    0    0  0.25454664745E+02 -0.31845147275E+03  0.13945595375E+03  0.34857889135E+03  0.00000000000E+00 0. -1.
          4    1    6    6  503    0 -0.73295491804E+03 -0.85355467203E+03  0.15638888359E+04  0.19265323203E+04  0.00000000000E+00 0. -1.
         -4    1    6    6    0  503 -0.19605457352E+03 -0.26672358141E+03  0.53724119073E+03  0.63103641867E+03  0.00000000000E+00 0.  1.
<mgrwt>
<rscale>  0 0.42192995E+04</rscale>
<asrwt>0</asrwt>
<pdfrwt beam="1">  1        2 0.55490009E+00 0.42192995E+04</pdfrwt>
<pdfrwt beam="2">  1       -1 0.18983628E+00 0.42192995E+04</pdfrwt>
<totfact> 0.10613001E-01</totfact>
</mgrwt>
</event>
<event>
12    6  0.1402540E-007  0.1574302E+04  0.7818608E-02  0.8836493E-01
         -1   -1    0    0    0  501 -0.00000000000E+00  0.00000000000E+00  0.36240355991E+03  0.36240355991E+03  0.00000000000E+00 0.  1.
          2   -1    0    0  501    0  0.00000000000E+00 -0.00000000000E+00 -0.17097141435E+04  0.17097141435E+04  0.00000000000E+00 0. -1.
         24    2    1    2    0    0  0.11289244792E+03  0.39074943170E+03 -0.89693121170E+03  0.98720899972E+03  0.68309497406E+02 0.  0.
        254    2    1    2    0    0 -0.11289244792E+03 -0.39074943170E+03 -0.45037937187E+03  0.10849087037E+04  0.89930834173E+03 0.  0.
         23    2    4    4    0    0  0.24443280893E+03 -0.14596753975E+03  0.15386914995E+03  0.33595716080E+03  0.90208524235E+02 0.  0.
         23    2    4    4    0    0 -0.35732525685E+03 -0.24478189195E+03 -0.60424852182E+03  0.74895154286E+03  0.90623526783E+02 0.  0.
          2    1    3    3  502    0  0.89298643561E+02  0.33941460417E+03 -0.81827288978E+03  0.89036343333E+03  0.00000000000E+00 0. -1.
         -1    1    3    3    0  502  0.23593804358E+02  0.51334827535E+02 -0.78658321920E+02  0.96845566390E+02  0.00000000000E+00 0.  1.
         11    1    5    5    0    0  0.14582168813E+03 -0.36194448246E+02  0.90227705209E+02  0.17525707290E+03  0.00000000000E+00 0. -1.
        -11    1    5    5    0    0  0.98611120800E+02 -0.10977309150E+03  0.63641444745E+02  0.16070008791E+03  0.00000000000E+00 0.  1.
          3    1    6    6  503    0 -0.22163318712E+03 -0.11952703836E+03 -0.28643399646E+03  0.38138224508E+03  0.00000000000E+00 0. -1.
         -3    1    6    6    0  503 -0.13569206973E+03 -0.12525485359E+03 -0.31781452536E+03  0.36756929778E+03  0.00000000000E+00 0.  1.
<mgrwt>
<rscale>  0 0.15743017E+04</rscale>
<asrwt>0</asrwt>
<pdfrwt beam="1">  1        2 0.26303294E+00 0.15743017E+04</pdfrwt>
<pdfrwt beam="2">  1       -1 0.55754394E-01 0.15743017E+04</pdfrwt>
<totfact> 0.34492403E+01</totfact>
</mgrwt>
</event>
<event>
12    6  0.1402540E-007  0.1880570E+04  0.7818608E-02  0.8664589E-01
          2   -1    0    0  501    0  0.00000000000E+00  0.00000000000E+00  0.29364567978E+04  0.29364567978E+04  0.00000000000E+00 0. -1.
         -1   -1    0    0    0  501 -0.00000000000E+00 -0.00000000000E+00 -0.30108933238E+03  0.30108933238E+03  0.00000000000E+00 0.  1.
         24    2    1    2    0    0 -0.49050148109E+03 -0.11073951711E+02  0.19303471294E+04  0.19933416371E+04  0.80352391550E+02 0.  0.
        254    2    1    2    0    0  0.49050148109E+03  0.11073951711E+02  0.70502033598E+03  0.12442044931E+04  0.90015377076E+03 0.  0.
         23    2    4    4    0    0  0.63501620406E+03 -0.25720698637E+03  0.57854105242E+03  0.90162345042E+03  0.93883351875E+02 0.  0.
         23    2    4    4    0    0 -0.14451472296E+03  0.26828093808E+03  0.12647928356E+03  0.34258104263E+03  0.92225781165E+02 0.  0.
          4    1    3    3  502    0 -0.17952370093E+03 -0.26850330837E+01  0.86839182838E+03  0.88675833021E+03  0.00000000000E+00 0. -1.
         -3    1    3    3    0  502 -0.31097778017E+03 -0.83889186269E+01  0.10619553010E+04  0.11065833069E+04  0.00000000000E+00 0.  1.
         11    1    5    5    0    0  0.96544873219E+02 -0.61240227050E+01  0.95077157444E+02  0.13563952988E+03  0.00000000000E+00 0. -1.
        -11    1    5    5    0    0  0.53847133084E+03 -0.25108296366E+03  0.48346389497E+03  0.76598392053E+03  0.00000000000E+00 0.  1.
          3    1    6    6  503    0 -0.38940061984E+02  0.93484542707E+02 -0.20547292576E+01  0.10129121415E+03  0.00000000000E+00 0. -1.
         -3    1    6    6    0  503 -0.10557466098E+03  0.17479639537E+03  0.12853401282E+03  0.24128982848E+03  0.00000000000E+00 0.  1.
<mgrwt>
<rscale>  0 0.18805699E+04</rscale>
<asrwt>0</asrwt>
<pdfrwt beam="1">  1        2 0.45176256E+00 0.18805699E+04</pdfrwt>
<pdfrwt beam="2">  1       -1 0.46321438E-01 0.18805699E+04</pdfrwt>
<totfact> 0.94753450E+00</totfact>
</mgrwt>
</event>
<event>
12    6  0.1402540E-007  0.2972363E+04  0.7818608E-02  0.8251667E-01
          2   -1    0    0  501    0  0.00000000000E+00  0.00000000000E+00  0.17065390263E+04  0.17065390263E+04  0.00000000000E+00 0. -1.
         -1   -1    0    0    0  501 -0.00000000000E+00 -0.00000000000E+00 -0.12942773042E+04  0.12942773042E+04  0.00000000000E+00 0.  1.
         24    2    1    2    0    0  0.10220369477E+04 -0.47823952728E+03  0.93303201484E+03  0.14663264416E+04  0.79321652585E+02 0.  0.
        254    2    1    2    0    0 -0.10220369477E+04  0.47823952728E+03 -0.52077029269E+03  0.15344898890E+04  0.90010274613E+03 0.  0.
         23    2    4    4    0    0  0.32368558349E+02  0.20625382589E+03  0.13070758823E+03  0.26234938542E+03  0.90301506872E+02 0.  0.
         23    2    4    4    0    0 -0.10544055061E+04  0.27198570139E+03 -0.65147788092E+03  0.12721405035E+04  0.90392690002E+02 0.  0.
          2    1    3    3  502    0  0.69400186858E+03 -0.31612374195E+03  0.58266692212E+03  0.95972577122E+03  0.00000000000E+00 0. -1.
         -3    1    3    3    0  502  0.32803507916E+03 -0.16211578533E+03  0.35036509271E+03  0.50660067036E+03  0.00000000000E+00 0.  1.
         11    1    5    5    0    0  0.17003066063E+01  0.19361409496E+03  0.11848805127E+03  0.22699939890E+03  0.00000000000E+00 0. -1.
        -11    1    5    5    0    0  0.30668251743E+02  0.12639730933E+02  0.12219536967E+02  0.35349986517E+02  0.00000000000E+00 0.  1.
          4    1    6    6  503    0 -0.10684459851E+03  0.34459696513E+02 -0.37608017279E+02  0.11839595381E+03  0.00000000000E+00 0.  1.
         -4    1    6    6    0  503 -0.94756090758E+03  0.23752600488E+03 -0.61386986364E+03  0.11537445497E+04  0.00000000000E+00 0. -1.
<mgrwt>
<rscale>  0 0.29723625E+04</rscale>
<asrwt>0</asrwt>
<pdfrwt beam="1">  1        2 0.26254447E+00 0.29723625E+04</pdfrwt>
<pdfrwt beam="2">  1       -1 0.19911959E+00 0.29723625E+04</pdfrwt>
<totfact> 0.14495319E+00</totfact>
</mgrwt>
</event>
<event>
12    6  0.1402540E-007  0.3962493E+04  0.7818608E-02  0.8012156E-01
          2   -1    0    0  501    0  0.00000000000E+00  0.00000000000E+00  0.21140678329E+04  0.21140678329E+04  0.00000000000E+00 0. -1.
         -1   -1    0    0    0  501 -0.00000000000E+00 -0.00000000000E+00 -0.18567697196E+04  0.18567697196E+04  0.00000000000E+00 0.  1.
         24    2    1    2    0    0  0.87882073845E+03 -0.14898251985E+04 -0.61134892602E+03  0.18363877355E+04  0.81654106951E+02 0.  0.
        254    2    1    2    0    0 -0.87882073845E+03  0.14898251985E+04  0.86864703926E+03  0.21344498171E+04  0.89967957095E+03 0.  0.
         23    2    4    4    0    0 -0.10397154209E+04  0.13989789550E+04  0.77588020337E+03  0.19099795322E+04  0.88777532210E+02 0.  0.
         23    2    4    4    0    0  0.16089468245E+03  0.90846243470E+02  0.92766835890E+02  0.22447028491E+03  0.87413295180E+02 0.  0.
          2    1    3    3  502    0  0.39325315229E+03 -0.73886919280E+03 -0.31451576026E+03  0.89414534015E+03  0.00000000000E+00 0. -1.
         -1    1    3    3    0  502  0.48556758617E+03 -0.75095600569E+03 -0.29683316575E+03  0.94224239530E+03  0.00000000000E+00 0.  1.
         11    1    5    5    0    0 -0.51970458653E+03  0.76394547213E+03  0.43473812249E+03  0.10211281882E+04  0.00000000000E+00 0.  1.
        -11    1    5    5    0    0 -0.52001083438E+03  0.63503348289E+03  0.34114208089E+03  0.88885134394E+03  0.00000000000E+00 0. -1.
          4    1    6    6  503    0  0.16902477845E+03  0.72438339338E+02  0.79339025685E+02  0.20027823080E+03  0.00000000000E+00 0. -1.
         -4    1    6    6    0  503 -0.81300959949E+01  0.18407904132E+02  0.13427810204E+02  0.24192054115E+02  0.00000000000E+00 0.  1.
<mgrwt>
<rscale>  0 0.39624927E+04</rscale>
<asrwt>0</asrwt>
<pdfrwt beam="1">  1        2 0.32524120E+00 0.39624927E+04</pdfrwt>
<pdfrwt beam="2">  1       -1 0.28565688E+00 0.39624927E+04</pdfrwt>
<totfact> 0.21245296E-01</totfact>
</mgrwt>
</event>
<event>
12    6  0.1402540E-007  0.1746205E+04  0.7818608E-02  0.8735442E-01
         -1   -1    0    0    0  501 -0.00000000000E+00  0.00000000000E+00  0.65444713654E+03  0.65444713654E+03  0.00000000000E+00 0.  1.
          2   -1    0    0  501    0  0.00000000000E+00 -0.00000000000E+00 -0.11648115306E+04  0.11648115306E+04  0.00000000000E+00 0. -1.
         24    2    1    2    0    0  0.48981263648E+03  0.40718365108E+03 -0.23968580810E+03  0.68491587233E+03  0.77107204576E+02 0.  0.
        254    2    1    2    0    0 -0.48981263648E+03 -0.40718365108E+03 -0.27067858597E+03  0.11343427948E+04  0.89875009580E+03 0.  0.
         23    2    4    4    0    0 -0.27194990212E+03  0.10583486706E+03  0.22724270730E+03  0.38121892439E+03  0.92362611165E+02 0.  0.
         23    2    4    4    0    0 -0.21786273436E+03 -0.51301851814E+03 -0.49792129327E+03  0.75312387043E+03  0.92831993099E+02 0.  0.
          2    1    3    3  502    0  0.67646616653E+01  0.51125297909E+01 -0.15450518751E+02  0.17624333689E+02  0.00000000000E+00 0. -1.
         -1    1    3    3    0  502  0.48304797482E+03  0.40207112129E+03 -0.22423528935E+03  0.66729153864E+03  0.00000000000E+00 0.  1.
         11    1    5    5    0    0 -0.18077316078E+03  0.52009901329E+02  0.19405272643E+03  0.27025992328E+03  0.00000000000E+00 0. -1.
        -11    1    5    5    0    0 -0.91176741343E+02  0.53824965731E+02  0.33189980871E+02  0.11095900111E+03  0.00000000000E+00 0.  1.
          4    1    6    6  503    0 -0.22350267506E+03 -0.50614737386E+03 -0.49773841231E+03  0.74423258254E+03  0.00000000000E+00 0. -1.
         -4    1    6    6    0  503  0.56399407033E+01 -0.68711442821E+01 -0.18288095675E+00  0.88912878891E+01  0.00000000000E+00 0.  1.
<mgrwt>
<rscale>  0 0.17462045E+04</rscale>
<asrwt>0</asrwt>
<pdfrwt beam="1">  1        2 0.17920177E+00 0.17462045E+04</pdfrwt>
<pdfrwt beam="2">  1       -1 0.10068417E+00 0.17462045E+04</pdfrwt>
<totfact> 0.20177833E+01</totfact>
</mgrwt>
</event>
<event>
12    6  0.1402540E-007  0.2205303E+04  0.7818608E-02  0.8516224E-01
          2   -1    0    0  501    0  0.00000000000E+00  0.00000000000E+00  0.16652860572E+04  0.16652860572E+04  0.00000000000E+00 0. -1.
         -1   -1    0    0    0  501 -0.00000000000E+00 -0.00000000000E+00 -0.73010891383E+03  0.73010891383E+03  0.00000000000E+00 0.  1.
         24    2    1    2    0    0  0.80306089329E+03 -0.27415442360E+02 -0.92552523587E+02  0.81266466812E+03  0.78736829828E+02 0.  0.
        254    2    1    2    0    0 -0.80306089329E+03  0.27415442360E+02  0.10277296669E+04  0.15827303029E+04  0.89618554918E+03 0.  0.
         23    2    4    4    0    0 -0.58183377959E+03 -0.14233432366E+03  0.11217150059E+04  0.12749466669E+04  0.91950215958E+02 0.  0.
         23    2    4    4    0    0 -0.22122711370E+03  0.16974976602E+03 -0.93985339011E+02  0.30778363595E+03  0.90228064977E+02 0.  0.
          4    1    3    3  502    0  0.43255469812E+03  0.87949999686E+00 -0.13514180696E+02  0.43276665013E+03  0.00000000000E+00 0. -1.
         -3    1    3    3    0  502  0.37050619517E+03 -0.28294942357E+02 -0.79038342891E+02  0.37989801799E+03  0.00000000000E+00 0.  1.
         11    1    5    5    0    0 -0.22814810857E+03 -0.68026704397E+02  0.35659429964E+03  0.42876413853E+03  0.00000000000E+00 0. -1.
        -11    1    5    5    0    0 -0.35368567102E+03 -0.74307619260E+02  0.76512070630E+03  0.84618252840E+03  0.00000000000E+00 0.  1.
          4    1    6    6  503    0 -0.14785553693E+03  0.16143476017E+03 -0.63887105923E+02  0.22804386397E+03  0.00000000000E+00 0. -1.
         -4    1    6    6    0  503 -0.73371576768E+02  0.83150058481E+01 -0.30098233089E+02  0.79739771976E+02  0.00000000000E+00 0.  1.
<mgrwt>
<rscale>  0 0.22053029E+04</rscale>
<asrwt>0</asrwt>
<pdfrwt beam="1">  1        2 0.25619785E+00 0.22053029E+04</pdfrwt>
<pdfrwt beam="2">  1       -1 0.11232445E+00 0.22053029E+04</pdfrwt>
<totfact> 0.77473523E+00</totfact>
</mgrwt>
</event>
<event>
12    6  0.1402540E-007  0.2670528E+04  0.7818608E-02  0.8344631E-01
         -1   -1    0    0    0  501 -0.00000000000E+00  0.00000000000E+00  0.13425063136E+04  0.13425063136E+04  0.00000000000E+00 0.  1.
          2   -1    0    0  501    0  0.00000000000E+00 -0.00000000000E+00 -0.13280608255E+04  0.13280608255E+04  0.00000000000E+00 0. -1.
         24    2    1    2    0    0 -0.90563905959E+03  0.49200808305E+03  0.58592757795E+03  0.11875095438E+04  0.67924442796E+02 0.  0.
        254    2    1    2    0    0  0.90563905959E+03 -0.49200808305E+03 -0.57148208992E+03  0.14830575953E+04  0.90034104194E+03 0.  0.
         23    2    4    4    0    0  0.64772651216E+03  0.14466801243E+03 -0.21879377885E+03  0.70474374979E+03  0.91184246632E+02 0.  0.
         23    2    4    4    0    0  0.25791254743E+03 -0.63667609548E+03 -0.35268831107E+03  0.77831384550E+03  0.97509305439E+02 0.  0.
          2    1    3    3  502    0 -0.53862554711E+03  0.31059815469E+03  0.31947731192E+03  0.69903822966E+03  0.00000000000E+00 0. -1.
         -1    1    3    3    0  502 -0.36701351248E+03  0.18140992835E+03  0.26645026604E+03  0.48847131413E+03  0.00000000000E+00 0.  1.
         11    1    5    5    0    0  0.15343189900E+03  0.74807567361E+02 -0.53630914127E+02  0.17892399145E+03  0.00000000000E+00 0. -1.
        -11    1    5    5    0    0  0.49429461316E+03  0.69860445069E+02 -0.16516286472E+03  0.52581975835E+03  0.00000000000E+00 0.  1.
          2    1    6    6  503    0  0.19203752388E+03 -0.48944711921E+03 -0.22199965396E+03  0.57071949278E+03  0.00000000000E+00 0. -1.
         -2    1    6    6    0  503  0.65875023549E+02 -0.14722897627E+03 -0.13068865712E+03  0.20759435272E+03  0.00000000000E+00 0.  1.
<mgrwt>
<rscale>  0 0.26705281E+04</rscale>
<asrwt>0</asrwt>
<pdfrwt beam="1">  1        2 0.20431705E+00 0.26705281E+04</pdfrwt>
<pdfrwt beam="2">  1       -1 0.20653943E+00 0.26705281E+04</pdfrwt>
<totfact> 0.21649898E+00</totfact>
</mgrwt>
</event>
<event>
12    6  0.1402540E-007  0.1420058E+04  0.7818608E-02  0.8939426E-01
         -1   -1    0    0    0  501 -0.00000000000E+00  0.00000000000E+00  0.14617803432E+03  0.14617803432E+03  0.00000000000E+00 0.  1.
          2   -1    0    0  501    0  0.00000000000E+00 -0.00000000000E+00 -0.34488174908E+04  0.34488174908E+04  0.00000000000E+00 0. -1.
         24    2    1    2    0    0  0.41568564225E+03 -0.50254245181E+02 -0.10622623566E+04  0.11446496904E+04  0.80632234786E+02 0.  0.
        254    2    1    2    0    0 -0.41568564225E+03  0.50254245181E+02 -0.22403770999E+04  0.24503458347E+04  0.89976948017E+03 0.  0.
         23    2    4    4    0    0  0.14449626375E+02  0.26472013757E+02  0.55894227406E+02  0.11219841811E+03  0.92491951838E+02 0.  0.
         23    2    4    4    0    0 -0.43013526862E+03  0.23782231424E+02 -0.22962713273E+04  0.23381474166E+04  0.92137881167E+02 0.  0.
          2    1    3    3  502    0  0.35203100929E+03 -0.48786445938E+02 -0.96535792577E+03  0.10286991172E+04  0.00000000000E+00 0. -1.
         -1    1    3    3    0  502  0.63654632956E+02 -0.14677992429E+01 -0.96904430784E+02  0.11595057325E+03  0.00000000000E+00 0.  1.
         11    1    5    5    0    0 -0.26124852112E+02  0.42337155503E+02  0.45481102416E+02  0.67405291416E+02  0.00000000000E+00 0. -1.
        -11    1    5    5    0    0  0.40574478488E+02 -0.15865141746E+02  0.10413124990E+02  0.44793126696E+02  0.00000000000E+00 0.  1.
          3    1    6    6  503    0 -0.37266672206E+03 -0.11062387503E+02 -0.19837616828E+04  0.20184928229E+04  0.00000000000E+00 0. -1.
         -3    1    6    6    0  503 -0.57468546558E+02  0.34844618927E+02 -0.31250964451E+03  0.31965459362E+03  0.00000000000E+00 0.  1.
<mgrwt>
<rscale>  0 0.14200583E+04</rscale>
<asrwt>0</asrwt>
<pdfrwt beam="1">  1        2 0.53058734E+00 0.14200583E+04</pdfrwt>
<pdfrwt beam="2">  1       -1 0.22488927E-01 0.14200583E+04</pdfrwt>
<totfact> 0.16650683E+01</totfact>
</mgrwt>
</event>
<event>
12    6  0.1402540E-007  0.1544040E+04  0.7818608E-02  0.8855684E-01
         -1   -1    0    0    0  501 -0.00000000000E+00  0.00000000000E+00  0.38823347265E+03  0.38823347265E+03  0.00000000000E+00 0.  1.
          2   -1    0    0  501    0  0.00000000000E+00 -0.00000000000E+00 -0.15351972204E+04  0.15351972204E+04  0.00000000000E+00 0. -1.
         24    2    1    2    0    0  0.16335875668E+03 -0.47674189612E+03 -0.44106813869E+03  0.67477706022E+03  0.82547314441E+02 0.  0.
        254    2    1    2    0    0 -0.16335875668E+03  0.47674189612E+03 -0.70589560905E+03  0.12486536328E+04  0.89826408422E+03 0.  0.
         23    2    4    4    0    0  0.26273739252E+03  0.52098125486E+03 -0.41583659136E+03  0.72267186739E+03  0.94245168910E+02 0.  0.
         23    2    4    4    0    0 -0.42609614921E+03 -0.44239358737E+02 -0.29005901769E+03  0.52598176544E+03  0.94908032335E+02 0.  0.
          2    1    3    3  502    0  0.15525227896E+03 -0.38576584907E+03 -0.39014915673E+03  0.57020603726E+03  0.00000000000E+00 0. -1.
         -1    1    3    3    0  502  0.81064777259E+01 -0.90976047048E+02 -0.50918981964E+02  0.10457102296E+03  0.00000000000E+00 0.  1.
         11    1    5    5    0    0  0.19534364089E+03  0.44813639981E+03 -0.31720477933E+03  0.58275573176E+03  0.00000000000E+00 0. -1.
        -11    1    5    5    0    0  0.67393751626E+02  0.72844855054E+02 -0.98631812031E+02  0.13991613563E+03  0.00000000000E+00 0.  1.
          2    1    6    6  503    0 -0.38353543946E+03 -0.30207408627E+02 -0.28895907661E+03  0.48115410089E+03  0.00000000000E+00 0. -1.
         -2    1    6    6    0  503 -0.42560709749E+02 -0.14031950110E+02 -0.10999410874E+01  0.44827664546E+02  0.00000000000E+00 0.  1.
<mgrwt>
<rscale>  0 0.15440401E+04</rscale>
<asrwt>0</asrwt>
<pdfrwt beam="1">  1        2 0.23618419E+00 0.15440401E+04</pdfrwt>
<pdfrwt beam="2">  1       -1 0.59728226E-01 0.15440401E+04</pdfrwt>
<totfact> 0.37814221E+01</totfact>
</mgrwt>
</event>
<event>
12    6  0.1402540E-007  0.1808531E+04  0.7818608E-02  0.8701776E-01
          2   -1    0    0  501    0  0.00000000000E+00  0.00000000000E+00  0.11046473256E+04  0.11046473256E+04  0.00000000000E+00 0. -1.
         -1   -1    0    0    0  501 -0.00000000000E+00 -0.00000000000E+00 -0.74023253221E+03  0.74023253221E+03  0.00000000000E+00 0.  1.
         24    2    1    2    0    0  0.56890495545E+03 -0.14807803921E+03  0.47980414771E+03  0.76327125293E+03  0.82407714180E+02 0.  0.
        254    2    1    2    0    0 -0.56890495545E+03  0.14807803921E+03 -0.11538935430E+03  0.10816086049E+04  0.90054567738E+03 0.  0.
         23    2    4    4    0    0  0.21633515184E+03  0.11093948724E+03  0.72909263593E+02  0.26832922259E+03  0.87042192233E+02 0.  0.
         23    2    4    4    0    0 -0.78524010730E+03  0.37138551979E+02 -0.18829861790E+03  0.81327938230E+03  0.89362665671E+02 0.  0.
          2    1    3    3  502    0  0.40154351085E+03 -0.14008445525E+03  0.32631784632E+03  0.53604494451E+03  0.00000000000E+00 0. -1.
         -1    1    3    3    0  502  0.16736144461E+03 -0.79935839612E+01  0.15348630139E+03  0.22722630842E+03  0.00000000000E+00 0.  1.
         11    1    5    5    0    0  0.18777362240E+03  0.55394742710E+02  0.54814654452E+02  0.20330311639E+03  0.00000000000E+00 0. -1.
        -11    1    5    5    0    0  0.28561529443E+02  0.55544744526E+02  0.18094609141E+02  0.65026106208E+02  0.00000000000E+00 0.  1.
          4    1    6    6  503    0 -0.77078224251E+03  0.43416131613E+02 -0.19484386897E+03  0.79621250877E+03  0.00000000000E+00 0. -1.
         -4    1    6    6    0  503 -0.14457864794E+02 -0.62775796337E+01  0.65452510729E+01  0.17066873529E+02  0.00000000000E+00 0.  1.
<mgrwt>
<rscale>  0 0.18085308E+04</rscale>
<asrwt>0</asrwt>
<pdfrwt beam="1">  1        2 0.16994574E+00 0.18085308E+04</pdfrwt>
<pdfrwt beam="2">  1       -1 0.11388193E+00 0.18085308E+04</pdfrwt>
<totfact> 0.16365974E+01</totfact>
</mgrwt>
</event>
<event>
12    6  0.1402540E-007  0.2889840E+04  0.7818608E-02  0.8275907E-01
          2   -1    0    0  501    0  0.00000000000E+00  0.00000000000E+00  0.27676921416E+04  0.27676921416E+04  0.00000000000E+00 0. -1.
         -1   -1    0    0    0  501 -0.00000000000E+00 -0.00000000000E+00 -0.75434467315E+03  0.75434467315E+03  0.00000000000E+00 0.  1.
         24    2    1    2    0    0  0.79323452167E+03 -0.15290640052E+03 -0.33707699662E+03  0.87900468714E+03  0.80168352100E+02 0.  0.
        254    2    1    2    0    0 -0.79323452167E+03  0.15290640052E+03  0.23504244650E+04  0.26430321276E+04  0.89917867408E+03 0.  0.
         23    2    4    4    0    0 -0.95031854614E+03  0.26884825537E+03  0.18757724215E+04  0.21216923883E+04  0.87588183099E+02 0.  0.
         23    2    4    4    0    0  0.15708402447E+03 -0.11594185484E+03  0.47465204360E+03  0.52133973933E+03  0.91556850438E+02 0.  0.
          2    1    3    3  502    0  0.51824899736E+03 -0.92837381421E+02 -0.17847791207E+03  0.55592730437E+03  0.00000000000E+00 0. -1.
         -1    1    3    3    0  502  0.27498552432E+03 -0.60069019100E+02 -0.15859908455E+03  0.32307738277E+03  0.00000000000E+00 0.  1.
         11    1    5    5    0    0 -0.41598558471E+03  0.12326816879E+03  0.73255021386E+03  0.85139230907E+03  0.00000000000E+00 0. -1.
        -11    1    5    5    0    0 -0.53433296143E+03  0.14558008658E+03  0.11432222076E+04  0.12703000792E+04  0.00000000000E+00 0.  1.
          1    1    6    6  503    0 -0.56221932504E+01  0.88790429057E+01  0.25930444231E+02  0.27979177934E+02  0.00000000000E+00 0. -1.
         -1    1    6    6    0  503  0.16270621772E+03 -0.12482089775E+03  0.44872159937E+03  0.49336056139E+03  0.00000000000E+00 0.  1.
<mgrwt>
<rscale>  0 0.28898400E+04</rscale>
<asrwt>0</asrwt>
<pdfrwt beam="1">  1        2 0.42579878E+00 0.28898400E+04</pdfrwt>
<pdfrwt beam="2">  1       -1 0.11605303E+00 0.28898400E+04</pdfrwt>
<totfact> 0.15938037E+00</totfact>
</mgrwt>
</event>
<event>
12    6  0.1402540E-007  0.3421178E+04  0.7818608E-02  0.8132728E-01
          2   -1    0    0  501    0  0.00000000000E+00  0.00000000000E+00  0.29184086995E+04  0.29184086995E+04  0.00000000000E+00 0. -1.
         -1   -1    0    0    0  501 -0.00000000000E+00 -0.00000000000E+00 -0.10026406369E+04  0.10026406369E+04  0.00000000000E+00 0.  1.
         24    2    1    2    0    0  0.18456738910E+03  0.10571604924E+04  0.22382463809E+04  0.24835398787E+04  0.81055782965E+02 0.  0.
        254    2    1    2    0    0 -0.18456738910E+03 -0.10571604924E+04 -0.32247831829E+03  0.14375094577E+04  0.90043753106E+03 0.  0.
         23    2    4    4    0    0 -0.14014268628E+02 -0.11111280659E+04 -0.73105827544E+02  0.11173391458E+04  0.91106125679E+02 0.  0.
         23    2    4    4    0    0 -0.17055312048E+03  0.53967573515E+02 -0.24937249074E+03  0.32017031189E+03  0.91222385290E+02 0.  0.
          2    1    3    3  502    0  0.18685853318E+03  0.96378607582E+03  0.20732422351E+04  0.22939339740E+04  0.00000000000E+00 0. -1.
         -1    1    3    3    0  502 -0.22911440761E+01  0.93374416544E+02  0.16500414575E+03  0.18960590477E+03  0.00000000000E+00 0.  1.
         11    1    5    5    0    0  0.28795262940E+02 -0.66985707455E+03 -0.68573480498E+02  0.67397328561E+03  0.00000000000E+00 0. -1.
        -11    1    5    5    0    0 -0.42809531567E+02 -0.44127099133E+03 -0.45323470465E+01  0.44336586016E+03  0.00000000000E+00 0.  1.
          4    1    6    6  503    0 -0.16794071589E+03  0.29580739116E+02 -0.18662777726E+03  0.25280235645E+03  0.00000000000E+00 0. -1.
         -4    1    6    6    0  503 -0.26124045859E+01  0.24386834400E+02 -0.62744713484E+02  0.67367955438E+02  0.00000000000E+00 0.  1.
<mgrwt>
<rscale>  0 0.34211783E+04</rscale>
<asrwt>0</asrwt>
<pdfrwt beam="1">  1        2 0.44898595E+00 0.34211783E+04</pdfrwt>
<pdfrwt beam="2">  1       -1 0.15425241E+00 0.34211783E+04</pdfrwt>
<totfact> 0.59413710E-01</totfact>
</mgrwt>
</event>
<event>
12    6  0.1402540E-007  0.4071585E+04  0.7818608E-02  0.7990259E-01
         -1   -1    0    0    0  501 -0.00000000000E+00  0.00000000000E+00  0.17815855829E+04  0.17815855829E+04  0.00000000000E+00 0.  1.
          2   -1    0    0  501    0  0.00000000000E+00 -0.00000000000E+00 -0.23262706565E+04  0.23262706565E+04  0.00000000000E+00 0. -1.
         24    2    1    2    0    0  0.13695365319E+04  0.13135032096E+04 -0.64607034783E+03  0.20061256650E+04  0.78818117735E+02 0.  0.
        254    2    1    2    0    0 -0.13695365319E+04 -0.13135032096E+04  0.10138527418E+03  0.21017305743E+04  0.89781481360E+03 0.  0.
         23    2    4    4    0    0 -0.11762866548E+04 -0.73021785054E+03  0.35214957103E+03  0.14314980509E+04  0.91153419045E+02 0.  0.
         23    2    4    4    0    0 -0.19324987705E+03 -0.58328535908E+03 -0.25076429685E+03  0.67023252345E+03  0.93603300243E+02 0.  0.
          2    1    3    3  502    0  0.79371061604E+03  0.71183698887E+03 -0.34573535647E+03  0.11208128200E+04  0.00000000000E+00 0. -1.
         -1    1    3    3    0  502  0.57582591581E+03  0.60166622076E+03 -0.30033499136E+03  0.88531284502E+03  0.00000000000E+00 0.  1.
         11    1    5    5    0    0 -0.11790706870E+03 -0.52719803611E+02  0.12526390466E+02  0.12976272577E+03  0.00000000000E+00 0. -1.
        -11    1    5    5    0    0 -0.10583795861E+04 -0.67749804693E+03  0.33962318057E+03  0.13017353251E+04  0.00000000000E+00 0.  1.
          1    1    6    6  503    0 -0.18711915992E+03 -0.44016240799E+03 -0.19104019230E+03  0.51502706772E+03  0.00000000000E+00 0. -1.
         -1    1    6    6    0  503 -0.61307171259E+01 -0.14312295109E+03 -0.59724104554E+02  0.15520545572E+03  0.00000000000E+00 0.  1.
<mgrwt>
<rscale>  0 0.40715846E+04</rscale>
<asrwt>0</asrwt>
<pdfrwt beam="1">  1        2 0.35788779E+00 0.40715846E+04</pdfrwt>
<pdfrwt beam="2">  1       -1 0.27409009E+00 0.40715846E+04</pdfrwt>
<totfact> 0.18989826E-01</totfact>
</mgrwt>
</event>
<event>
12    6  0.1402540E-007  0.1380797E+04  0.7818608E-02  0.8967837E-01
         -1   -1    0    0    0  501 -0.00000000000E+00  0.00000000000E+00  0.11208199514E+03  0.11208199514E+03  0.00000000000E+00 0.  1.
          2   -1    0    0  501    0  0.00000000000E+00 -0.00000000000E+00 -0.42526881133E+04  0.42526881133E+04  0.00000000000E+00 0. -1.
         24    2    1    2    0    0  0.12944726497E+03  0.84412679170E+02 -0.23327847921E+04  0.23392994270E+04  0.80961892270E+02 0.  0.
        254    2    1    2    0    0 -0.12944726497E+03 -0.84412679170E+02 -0.18078213260E+04  0.20254706814E+04  0.90023965678E+03 0.  0.
         23    2    4    4    0    0 -0.45891175263E+03 -0.12215564943E+03 -0.60238157472E+03  0.77166400890E+03  0.84141438572E+02 0.  0.
         23    2    4    4    0    0  0.32946448766E+03  0.37742970257E+02 -0.12054397513E+04  0.12538066725E+04  0.94735408271E+02 0.  0.
          2    1    3    3  502    0  0.23041818042E+02  0.59774583525E+02 -0.73537907366E+03  0.73816414718E+03  0.00000000000E+00 0. -1.
         -1    1    3    3    0  502  0.10640544693E+03  0.24638095645E+02 -0.15974057185E+04  0.16011352798E+04  0.00000000000E+00 0.  1.
         11    1    5    5    0    0 -0.79852341372E+02 -0.49831688483E+02 -0.14957490914E+03  0.17672647522E+03  0.00000000000E+00 0. -1.
        -11    1    5    5    0    0 -0.37905941126E+03 -0.72323960945E+02 -0.45280666558E+03  0.59493753368E+03  0.00000000000E+00 0.  1.
          2    1    6    6  503    0  0.26848195861E+03  0.47528428993E+02 -0.83881436045E+03  0.88201533148E+03  0.00000000000E+00 0. -1.
         -2    1    6    6    0  503  0.60982529055E+02 -0.97854587360E+01 -0.36662539082E+03  0.37179134100E+03  0.00000000000E+00 0.  1.
<mgrwt>
<rscale>  0 0.13807965E+04</rscale>
<asrwt>0</asrwt>
<pdfrwt beam="1">  1        2 0.65425960E+00 0.13807965E+04</pdfrwt>
<pdfrwt beam="2">  1       -1 0.17243387E-01 0.13807965E+04</pdfrwt>
<totfact> 0.62965664E+00</totfact>
</mgrwt>
</event>
<event>
12    6  0.1402540E-007  0.2741051E+04  0.7818608E-02  0.8321807E-01
         -1   -1    0    0    0  501 -0.00000000000E+00  0.00000000000E+00  0.60968450198E+03  0.60968450198E+03  0.00000000000E+00 0.  1.
          2   -1    0    0  501    0  0.00000000000E+00 -0.00000000000E+00 -0.30808393809E+04  0.30808393809E+04  0.00000000000E+00 0. -1.
         24    2    1    2    0    0 -0.70641333371E+03  0.64801387095E+03 -0.21210989603E+04  0.23290509555E+04  0.80472223614E+02 0.  0.
        254    2    1    2    0    0  0.70641333371E+03 -0.64801387095E+03 -0.35005591860E+03  0.13614729274E+04  0.90118123090E+03 0.  0.
         23    2    4    4    0    0  0.28494382098E+03 -0.47312013946E+02  0.26308412939E+03  0.40098727610E+03  0.90255906643E+02 0.  0.
         23    2    4    4    0    0  0.42146951273E+03 -0.60070185700E+03 -0.61314004799E+03  0.96048565130E+03  0.90070509793E+02 0.  0.
          2    1    3    3  502    0 -0.62118954903E+03  0.58599755310E+03 -0.19374563854E+04  0.21173112273E+04  0.00000000000E+00 0. -1.
         -1    1    3    3    0  502 -0.85223784674E+02  0.62016317848E+02 -0.18364257499E+03  0.21173972821E+03  0.00000000000E+00 0.  1.
         11    1    5    5    0    0  0.26731171974E+03 -0.48013674615E+02  0.20497568170E+03  0.34025857601E+03  0.00000000000E+00 0. -1.
        -11    1    5    5    0    0  0.17632101231E+02  0.70166066906E+00  0.58108447692E+02  0.60728700090E+02  0.00000000000E+00 0.  1.
          3    1    6    6  503    0  0.10521531550E+03 -0.16060024726E+03 -0.21343284794E+03  0.28708236208E+03  0.00000000000E+00 0. -1.
         -3    1    6    6    0  503  0.31625419723E+03 -0.44010160974E+03 -0.39970720005E+03  0.67340328922E+03  0.00000000000E+00 0.  1.
<mgrwt>
<rscale>  0 0.27410509E+04</rscale>
<asrwt>0</asrwt>
<pdfrwt beam="1">  1        2 0.47397529E+00 0.27410509E+04</pdfrwt>
<pdfrwt beam="2">  1       -1 0.93797616E-01 0.27410509E+04</pdfrwt>
<totfact> 0.16944234E+00</totfact>
</mgrwt>
</event>
<event>
12    6  0.1402540E-007  0.3282765E+04  0.7818608E-02  0.8167295E-01
         -1   -1    0    0    0  501 -0.00000000000E+00  0.00000000000E+00  0.90850105114E+03  0.90850105114E+03  0.00000000000E+00 0.  1.
          2   -1    0    0  501    0  0.00000000000E+00 -0.00000000000E+00 -0.29654749259E+04  0.29654749259E+04  0.00000000000E+00 0. -1.
         24    2    1    2    0    0 -0.38556761076E+02  0.14266326489E+04 -0.34488374283E+03  0.14704416732E+04  0.80539303765E+02 0.  0.
        254    2    1    2    0    0  0.38556761076E+02 -0.14266326489E+04 -0.17120901320E+04  0.24035343039E+04  0.89942047538E+03 0.  0.
         23    2    4    4    0    0 -0.27891510127E+03 -0.10607220078E+03 -0.21055728060E+03  0.37677277746E+03  0.92619716728E+02 0.  0.
         23    2    4    4    0    0  0.31747186235E+03 -0.13205604481E+04 -0.15015328514E+04  0.20267615265E+04  0.92158021822E+02 0.  0.
          2    1    3    3  502    0  0.33004628093E+01  0.51190267142E+03 -0.15941054190E+03  0.53615945289E+03  0.00000000000E+00 0. -1.
         -1    1    3    3    0  502 -0.41857223886E+02  0.91472997745E+03 -0.18547320093E+03  0.93428222027E+03  0.00000000000E+00 0.  1.
         11    1    5    5    0    0 -0.17181811756E+03 -0.25975361379E+02 -0.85459537847E+02  0.19364792157E+03  0.00000000000E+00 0. -1.
        -11    1    5    5    0    0 -0.10709698371E+03 -0.80096839398E+02 -0.12509774276E+03  0.18312485589E+03  0.00000000000E+00 0.  1.
          1    1    6    6  503    0  0.14050173963E+03 -0.67882575539E+03 -0.82613146992E+03  0.10784425579E+04  0.00000000000E+00 0. -1.
         -1    1    6    6    0  503  0.17697012272E+03 -0.64173469270E+03 -0.67540138144E+03  0.94831896860E+03  0.00000000000E+00 0.  1.
<mgrwt>
<rscale>  0 0.32827654E+04</rscale>
<asrwt>0</asrwt>
<pdfrwt beam="1">  1        2 0.45622692E+00 0.32827654E+04</pdfrwt>
<pdfrwt beam="2">  1       -1 0.13976939E+00 0.32827654E+04</pdfrwt>
<totfact> 0.73130014E-01</totfact>
</mgrwt>
</event>
<event>
12    6  0.1402540E-007  0.3452205E+04  0.7818608E-02  0.8125211E-01
         -1   -1    0    0    0  501 -0.00000000000E+00  0.00000000000E+00  0.84455604650E+03  0.84455604650E+03  0.00000000000E+00 0.  1.
          2   -1    0    0  501    0  0.00000000000E+00 -0.00000000000E+00 -0.35278052162E+04  0.35278052162E+04  0.00000000000E+00 0. -1.
         24    2    1    2    0    0 -0.78770348650E+03 -0.17361991182E+03 -0.30104955630E+04  0.31176683952E+04  0.78434885862E+02 0.  0.
        254    2    1    2    0    0  0.78770348650E+03  0.17361991182E+03  0.32724639324E+03  0.12546928675E+04  0.90362787338E+03 0.  0.
         23    2    4    4    0    0 -0.60121779516E+02  0.26265044646E+03 -0.94194907403E+02  0.29962307809E+03  0.91112144875E+02 0.  0.
         23    2    4    4    0    0  0.84782526602E+03 -0.89030534647E+02  0.42144130064E+03  0.95506978945E+03  0.88382209943E+02 0.  0.
          4    1    3    3  502    0 -0.38472164272E+03 -0.77445405523E+02 -0.16130933290E+04  0.16601441568E+04  0.00000000000E+00 0. -1.
         -3    1    3    3    0  502 -0.40298184378E+03 -0.96174506295E+02 -0.13974022339E+04  0.14575242384E+04  0.00000000000E+00 0.  1.
         11    1    5    5    0    0  0.20749800863E+02  0.23924963925E+02 -0.40075372118E+01  0.31922068999E+02  0.00000000000E+00 0. -1.
        -11    1    5    5    0    0 -0.80871580379E+02  0.23872548254E+03 -0.90187370191E+02  0.26770100909E+03  0.00000000000E+00 0.  1.
          4    1    6    6  503    0  0.75228907786E+03 -0.68251379584E+02  0.34245599035E+03  0.82938122285E+03  0.00000000000E+00 0.  1.
         -4    1    6    6    0  503  0.95536188157E+02 -0.20779155063E+02  0.78985310294E+02  0.12568856660E+03  0.00000000000E+00 0. -1.
<mgrwt>
<rscale>  0 0.34522046E+04</rscale>
<asrwt>0</asrwt>
<pdfrwt beam="1">  1        2 0.54273927E+00 0.34522046E+04</pdfrwt>
<pdfrwt beam="2">  1       -1 0.12993170E+00 0.34522046E+04</pdfrwt>
<totfact> 0.36899035E-01</totfact>
</mgrwt>
</event>
<event>
12    6  0.1402540E-007  0.6159963E+04  0.7818608E-02  0.7670879E-01
         -1   -1    0    0    0  501 -0.00000000000E+00  0.00000000000E+00  0.24136864188E+04  0.24136864188E+04  0.00000000000E+00 0.  1.
          2   -1    0    0  501    0  0.00000000000E+00 -0.00000000000E+00 -0.39302070772E+04  0.39302070772E+04  0.00000000000E+00 0. -1.
         24    2    1    2    0    0 -0.18115267783E+04 -0.33267918464E+02 -0.32225149334E+04  0.36978037284E+04  0.80086794023E+02 0.  0.
        254    2    1    2    0    0  0.18115267783E+04  0.33267918464E+02  0.17059942750E+04  0.26460897677E+04  0.89924333161E+03 0.  0.
         23    2    4    4    0    0  0.78456512754E+03  0.27330906415E+03  0.12264460061E+04  0.14840846128E+04  0.89983599282E+02 0.  0.
         23    2    4    4    0    0  0.10269616508E+04 -0.24004114569E+03  0.47954826895E+03  0.11620051549E+04  0.89551404761E+02 0.  0.
          4    1    3    3  502    0 -0.32247484239E+03  0.24616434495E+02 -0.57976985888E+03  0.66387429690E+03  0.00000000000E+00 0. -1.
         -3    1    3    3    0  502 -0.14890519359E+04 -0.57884352959E+02 -0.26427450745E+04  0.30339294315E+04  0.00000000000E+00 0.  1.
         11    1    5    5    0    0  0.36662984340E+03  0.80373617830E+02  0.55447879625E+03  0.66957008297E+03  0.00000000000E+00 0. -1.
        -11    1    5    5    0    0  0.41793528414E+03  0.19293544632E+03  0.67196720982E+03  0.81451452979E+03  0.00000000000E+00 0.  1.
          2    1    6    6  503    0  0.49493057700E+03 -0.80210670744E+02  0.19635342489E+03  0.53846512906E+03  0.00000000000E+00 0. -1.
         -2    1    6    6    0  503  0.53203107378E+03 -0.15983047494E+03  0.28319484406E+03  0.62354002589E+03  0.00000000000E+00 0.  1.
<mgrwt>
<rscale>  0 0.61599635E+04</rscale>
<asrwt>0</asrwt>
<pdfrwt beam="1">  1        2 0.60464724E+00 0.61599635E+04</pdfrwt>
<pdfrwt beam="2">  1       -1 0.37133637E+00 0.61599635E+04</pdfrwt>
<totfact> 0.32764967E-03</totfact>
</mgrwt>
</event>
<event>
12    6  0.1402540E-007  0.1379376E+04  0.7818608E-02  0.8968884E-01
         -1   -1    0    0    0  501 -0.00000000000E+00  0.00000000000E+00  0.23856937884E+03  0.23856937884E+03  0.00000000000E+00 0.  1.
          2   -1    0    0  501    0  0.00000000000E+00 -0.00000000000E+00 -0.19938421315E+04  0.19938421315E+04  0.00000000000E+00 0. -1.
         24    2    1    2    0    0  0.38213891464E+03 -0.23583153549E+01 -0.37750776732E+03  0.54310255457E+03  0.80078453201E+02 0.  0.
        254    2    1    2    0    0 -0.38213891464E+03  0.23583153549E+01 -0.13777649853E+04  0.16893089557E+04  0.89971811223E+03 0.  0.
         23    2    4    4    0    0  0.13032886371E+03  0.26220811435E+03 -0.17476672086E+03  0.35308817134E+03  0.91592259900E+02 0.  0.
         23    2    4    4    0    0 -0.51246777834E+03 -0.25984979899E+03 -0.12029982644E+04  0.13362207844E+04  0.90199880982E+02 0.  0.
          2    1    3    3  502    0  0.13476621952E+03  0.14003562386E+02 -0.18455034050E+03  0.22894729057E+03  0.00000000000E+00 0. -1.
         -1    1    3    3    0  502  0.24737269512E+03 -0.16361877741E+02 -0.19295742682E+03  0.31415526400E+03  0.00000000000E+00 0.  1.
         11    1    5    5    0    0  0.10463128249E+03  0.11125708342E+03 -0.73375355270E+02  0.16943962538E+03  0.00000000000E+00 0.  1.
        -11    1    5    5    0    0  0.25697581222E+02  0.15095103092E+03 -0.10139136559E+03  0.18364854596E+03  0.00000000000E+00 0. -1.
          4    1    6    6  503    0 -0.77470523091E+02 -0.70409072352E+02 -0.26824656157E+03  0.28795023392E+03  0.00000000000E+00 0. -1.
         -4    1    6    6    0  503 -0.43499725525E+03 -0.18944072664E+03 -0.93475170286E+03  0.10482705505E+04  0.00000000000E+00 0.  1.
<mgrwt>
<rscale>  0 0.13793762E+04</rscale>
<asrwt>0</asrwt>
<pdfrwt beam="1">  1        2 0.30674495E+00 0.13793762E+04</pdfrwt>
<pdfrwt beam="2">  1       -1 0.36702981E-01 0.13793762E+04</pdfrwt>
<totfact> 0.53296951E+01</totfact>
</mgrwt>
</event>
<event>
12    6  0.1402540E-007  0.2777175E+04  0.7818608E-02  0.8310390E-01
          2   -1    0    0  501    0  0.00000000000E+00  0.00000000000E+00  0.28113328667E+04  0.28113328667E+04  0.00000000000E+00 0. -1.
         -3   -1    0    0    0  501 -0.00000000000E+00 -0.00000000000E+00 -0.68585817788E+03  0.68585817788E+03  0.00000000000E+00 0.  1.
         24    2    1    2    0    0 -0.84165647203E+03 -0.61240951571E+03  0.99969483624E+02  0.10485622466E+04  0.77832226954E+02 0.  0.
        254    2    1    2    0    0  0.84165647203E+03  0.61240951571E+03  0.20255052052E+04  0.24486287980E+04  0.89982255034E+03 0.  0.
         23    2    4    4    0    0 -0.17587462125E+03  0.17232180157E+03  0.43172113027E+03  0.50504596638E+03  0.89786458570E+02 0.  0.
         23    2    4    4    0    0  0.10175310933E+04  0.44008771414E+03  0.15937840749E+04  0.19435828316E+04  0.91213068126E+02 0.  0.
          4    1    3    3  502    0 -0.55975016242E+03 -0.39985386279E+03  0.29443961230E+02  0.68852763400E+03  0.00000000000E+00 0. -1.
         -3    1    3    3    0  502 -0.28190630960E+03 -0.21255565292E+03  0.70525522394E+02  0.36003461263E+03  0.00000000000E+00 0.  1.
         11    1    5    5    0    0 -0.91678158561E+02  0.12916469599E+03  0.33047991343E+03  0.36647697967E+03  0.00000000000E+00 0.  1.
        -11    1    5    5    0    0 -0.84196462689E+02  0.43157105582E+02  0.10124121684E+03  0.13856898671E+03  0.00000000000E+00 0. -1.
          2    1    6    6  503    0  0.63240761275E+03  0.27056911415E+03  0.10647909381E+04  0.12676461557E+04  0.00000000000E+00 0. -1.
         -2    1    6    6    0  503  0.38512348053E+03  0.16951859999E+03  0.52899313689E+03  0.67593667594E+03  0.00000000000E+00 0.  1.
<mgrwt>
<rscale>  0 0.27771753E+04</rscale>
<asrwt>0</asrwt>
<pdfrwt beam="1">  1        2 0.43251274E+00 0.27771753E+04</pdfrwt>
<pdfrwt beam="2">  1       -3 0.10551664E+00 0.27771753E+04</pdfrwt>
<totfact> 0.97629001E-01</totfact>
</mgrwt>
</event>
<event>
12    6  0.1402540E-007  0.4282573E+04  0.7818608E-02  0.7949848E-01
         -1   -1    0    0    0  501 -0.00000000000E+00  0.00000000000E+00  0.16797648693E+04  0.16797648693E+04  0.00000000000E+00 0.  1.
          2   -1    0    0  501    0  0.00000000000E+00 -0.00000000000E+00 -0.27296124229E+04  0.27296124229E+04  0.00000000000E+00 0. -1.
         24    2    1    2    0    0  0.20123787582E+04 -0.21980985945E+03 -0.80832197173E+03  0.21812078783E+04  0.79364710678E+02 0.  0.
        254    2    1    2    0    0 -0.20123787582E+04  0.21980985945E+03 -0.24152558192E+03  0.22281694139E+04  0.89912162114E+03 0.  0.
         23    2    4    4    0    0 -0.20255911600E+04  0.33450766893E+03 -0.28515877341E+03  0.20747166045E+04  0.90656136938E+02 0.  0.
         23    2    4    4    0    0  0.13212401727E+02 -0.11469780948E+03  0.43633191482E+02  0.15345280941E+03  0.91179790855E+02 0.  0.
          2    1    3    3  502    0  0.11634480854E+04 -0.10209622894E+03 -0.43348093075E+03  0.12457691619E+04  0.00000000000E+00 0. -1.
         -1    1    3    3    0  502  0.84893067281E+03 -0.11771363052E+03 -0.37484104098E+03  0.93543871636E+03  0.00000000000E+00 0.  1.
         11    1    5    5    0    0 -0.32346661736E+03  0.31492986980E+02 -0.19950213746E+02  0.32560784972E+03  0.00000000000E+00 0. -1.
        -11    1    5    5    0    0 -0.17021245426E+04  0.30301468195E+03 -0.26520855966E+03  0.17491087548E+04  0.00000000000E+00 0.  1.
          2    1    6    6  503    0  0.68156835704E+01 -0.66004884871E+02 -0.23394164659E+02  0.70358974619E+02  0.00000000000E+00 0. -1.
         -2    1    6    6    0  503  0.63967181566E+01 -0.48692924605E+02  0.67027356141E+02  0.83093834796E+02  0.00000000000E+00 0.  1.
<mgrwt>
<rscale>  0 0.42825726E+04</rscale>
<asrwt>0</asrwt>
<pdfrwt beam="1">  1        2 0.41994037E+00 0.42825726E+04</pdfrwt>
<pdfrwt beam="2">  1       -1 0.25842537E+00 0.42825726E+04</pdfrwt>
<totfact> 0.13722486E-01</totfact>
</mgrwt>
</event>
<event>
12    6  0.1402540E-007  0.2779425E+04  0.7818608E-02  0.8309685E-01
         -1   -1    0    0    0  501 -0.00000000000E+00  0.00000000000E+00  0.42038044560E+03  0.42038044560E+03  0.00000000000E+00 0.  1.
          2   -1    0    0  501    0  0.00000000000E+00 -0.00000000000E+00 -0.45941747134E+04  0.45941747134E+04  0.00000000000E+00 0. -1.
         24    2    1    2    0    0 -0.64840318351E+03 -0.10498688356E+04 -0.16036166127E+04  0.20250127741E+04  0.80244841074E+02 0.  0.
        254    2    1    2    0    0  0.64840318351E+03  0.10498688356E+04 -0.25701776552E+04  0.29895423849E+04  0.89938825421E+03 0.  0.
         23    2    4    4    0    0  0.10642385794E+03  0.95767001108E+03 -0.15549003683E+04  0.18314825972E+04  0.90307590256E+02 0.  0.
         23    2    4    4    0    0  0.54197932557E+03  0.92198824516E+02 -0.10152772868E+04  0.11580597877E+04  0.89845924360E+02 0.  0.
          2    1    3    3  502    0 -0.30838274499E+03 -0.54462351885E+03 -0.86561326265E+03  0.10681764906E+04  0.00000000000E+00 0. -1.
         -1    1    3    3    0  502 -0.34002043852E+03 -0.50524531675E+03 -0.73800335002E+03  0.95683628346E+03  0.00000000000E+00 0.  1.
         11    1    5    5    0    0  0.64679437297E+02  0.84692953530E+03 -0.13704805803E+04  0.16123554472E+04  0.00000000000E+00 0.  1.
        -11    1    5    5    0    0  0.41744420641E+02  0.11074047578E+03 -0.18441978806E+03  0.21912714999E+03  0.00000000000E+00 0. -1.
          4    1    6    6  503    0  0.21704808863E+03 -0.74775184701E+01 -0.39321305993E+03  0.44920184390E+03  0.00000000000E+00 0. -1.
         -4    1    6    6    0  503  0.32493123694E+03  0.99676342986E+02 -0.62206422690E+03  0.70885794379E+03  0.00000000000E+00 0.  1.
<mgrwt>
<rscale>  0 0.27794253E+04</rscale>
<asrwt>0</asrwt>
<pdfrwt beam="1">  1        2 0.70679608E+00 0.27794253E+04</pdfrwt>
<pdfrwt beam="2">  1       -1 0.64673918E-01 0.27794253E+04</pdfrwt>
<totfact> 0.23843566E-01</totfact>
</mgrwt>
</event>
<event>
12    6  0.1402540E-007  0.1381228E+04  0.7818608E-02  0.8967520E-01
          2   -1    0    0  501    0  0.00000000000E+00  0.00000000000E+00  0.10792733987E+04  0.10792733987E+04  0.00000000000E+00 0. -1.
         -1   -1    0    0    0  501 -0.00000000000E+00 -0.00000000000E+00 -0.44191531940E+03  0.44191531940E+03  0.00000000000E+00 0.  1.
         24    2    1    2    0    0  0.21122020023E+03  0.27532386418E+03  0.38670262095E+03  0.52499307594E+03  0.75243667943E+02 0.  0.
        254    2    1    2    0    0 -0.21122020023E+03 -0.27532386418E+03  0.25065545832E+03  0.99619564213E+03  0.89953343208E+03 0.  0.
         23    2    4    4    0    0 -0.46537061864E+03 -0.44084423315E+03  0.16474337336E+03  0.66801674308E+03  0.90512647635E+02 0.  0.
         23    2    4    4    0    0  0.25415041841E+03  0.16552036896E+03  0.85912084960E+02  0.32817889905E+03  0.91274726598E+02 0.  0.
          4    1    3    3  502    0  0.18333203023E+03  0.18999414868E+03  0.26848640828E+03  0.37655459269E+03  0.00000000000E+00 0. -1.
         -3    1    3    3    0  502  0.27888169994E+02  0.85329715508E+02  0.11821621267E+03  0.14843848326E+03  0.00000000000E+00 0.  1.
         11    1    5    5    0    0 -0.44353709419E+03 -0.42863305659E+03  0.17473301792E+03  0.64107961961E+03  0.00000000000E+00 0.  1.
        -11    1    5    5    0    0 -0.21833524445E+02 -0.12211176557E+02 -0.99896445592E+01  0.26937123473E+02  0.00000000000E+00 0. -1.
          2    1    6    6  503    0  0.14041485455E+03  0.46259988193E+02  0.66951619009E+02  0.16229244337E+03  0.00000000000E+00 0. -1.
         -2    1    6    6    0  503  0.11373556386E+03  0.11926038077E+03  0.18960465951E+02  0.16588645568E+03  0.00000000000E+00 0.  1.
<mgrwt>
<rscale>  0 0.13812276E+04</rscale>
<asrwt>0</asrwt>
<pdfrwt beam="1">  1        2 0.16604206E+00 0.13812276E+04</pdfrwt>
<pdfrwt beam="2">  1       -1 0.67986972E-01 0.13812276E+04</pdfrwt>
<totfact> 0.54647965E+01</totfact>
</mgrwt>
</event>
<event>
12    6  0.1402540E-007  0.2008592E+04  0.7818608E-02  0.8602614E-01
          2   -1    0    0  501    0  0.00000000000E+00  0.00000000000E+00  0.24787089297E+04  0.24787089297E+04  0.00000000000E+00 0. -1.
         -1   -1    0    0    0  501 -0.00000000000E+00 -0.00000000000E+00 -0.40690940349E+03  0.40690940349E+03  0.00000000000E+00 0.  1.
         24    2    1    2    0    0 -0.66276630985E+03  0.44454637631E+03  0.73692526531E+03  0.10892585736E+04  0.80899514265E+02 0.  0.
        254    2    1    2    0    0  0.66276630985E+03 -0.44454637631E+03  0.13348742609E+04  0.17963597596E+04  0.89896520023E+03 0.  0.
         23    2    4    4    0    0  0.59675766276E+03 -0.52343580387E+03  0.48328120860E+03  0.93378227804E+03  0.91015753415E+02 0.  0.
         23    2    4    4    0    0  0.66008647086E+02  0.78889427554E+02  0.85159305231E+03  0.86257748153E+03  0.90821262016E+02 0.  0.
          2    1    3    3  502    0 -0.36008907844E+03  0.27815305494E+03  0.45412125578E+03  0.64285253467E+03  0.00000000000E+00 0. -1.
         -1    1    3    3    0  502 -0.30267723140E+03  0.16639332137E+03  0.28280400953E+03  0.44640603895E+03  0.00000000000E+00 0.  1.
         11    1    5    5    0    0  0.38877910845E+03 -0.36643283836E+03  0.36866279896E+03  0.64910282662E+03  0.00000000000E+00 0.  1.
        -11    1    5    5    0    0  0.20797855432E+03 -0.15700296551E+03  0.11461840964E+03  0.28467945142E+03  0.00000000000E+00 0. -1.
          4    1    6    6  503    0 -0.13061143134E+02  0.10020007623E+02  0.33742316471E+03  0.33782449008E+03  0.00000000000E+00 0. -1.
         -4    1    6    6    0  503  0.79069790219E+02  0.68869419931E+02  0.51416988760E+03  0.52475299145E+03  0.00000000000E+00 0.  1.
<mgrwt>
<rscale>  0 0.20085915E+04</rscale>
<asrwt>0</asrwt>
<pdfrwt beam="1">  1        2 0.38133983E+00 0.20085915E+04</pdfrwt>
<pdfrwt beam="2">  1       -1 0.62601448E-01 0.20085915E+04</pdfrwt>
<totfact> 0.98007621E+00</totfact>
</mgrwt>
</event>
<event>
12    6  0.1402540E-007  0.2799484E+04  0.7818608E-02  0.8303429E-01
          2   -1    0    0  501    0  0.00000000000E+00  0.00000000000E+00  0.27323681186E+04  0.27323681186E+04  0.00000000000E+00 0. -1.
         -1   -1    0    0    0  501 -0.00000000000E+00 -0.00000000000E+00 -0.71706200645E+03  0.71706200645E+03  0.00000000000E+00 0.  1.
         24    2    1    2    0    0 -0.37518942896E+03  0.11925732185E+04  0.10224634845E+04  0.16170294837E+04  0.79716905781E+02 0.  0.
        254    2    1    2    0    0  0.37518942896E+03 -0.11925732185E+04  0.99284262766E+03  0.18324006413E+04  0.89942072351E+03 0.  0.
         23    2    4    4    0    0  0.82128773779E+01 -0.78741774780E+03  0.12512072390E+03  0.80240388311E+03  0.90014638615E+02 0.  0.
         23    2    4    4    0    0  0.36697655158E+03 -0.40515547069E+03  0.86772190375E+03  0.10299967582E+04  0.95547238577E+02 0.  0.
          4    1    3    3  502    0 -0.33572930706E+03  0.10445462804E+04  0.92839735803E+03  0.14372587637E+04  0.00000000000E+00 0. -1.
         -3    1    3    3    0  502 -0.39460121902E+02  0.14802693809E+03  0.94066126426E+02  0.17977071998E+03  0.00000000000E+00 0.  1.
         11    1    5    5    0    0  0.50138170331E+01 -0.39935739777E+03  0.10899966138E+03  0.41399564695E+03  0.00000000000E+00 0.  1.
        -11    1    5    5    0    0  0.31990603448E+01 -0.38806035003E+03  0.16121062520E+02  0.38840823615E+03  0.00000000000E+00 0. -1.
          3    1    6    6  503    0  0.36762231969E+03 -0.39023208100E+03  0.85935359824E+03  0.10128750435E+04  0.00000000000E+00 0. -1.
         -3    1    6    6    0  503 -0.64576810416E+00 -0.14923389693E+02  0.83683055111E+01  0.17121714677E+02  0.00000000000E+00 0.  1.
<mgrwt>
<rscale>  0 0.27994838E+04</rscale>
<asrwt>0</asrwt>
<pdfrwt beam="1">  1        2 0.42036432E+00 0.27994838E+04</pdfrwt>
<pdfrwt beam="2">  1       -1 0.11031723E+00 0.27994838E+04</pdfrwt>
<totfact> 0.19035472E+00</totfact>
</mgrwt>
</event>
<event>
12    6  0.1402540E-007  0.3215223E+04  0.7818608E-02  0.8184808E-01
         -1   -1    0    0    0  501 -0.00000000000E+00  0.00000000000E+00  0.24327261800E+04  0.24327261800E+04  0.00000000000E+00 0.  1.
          2   -1    0    0  501    0  0.00000000000E+00 -0.00000000000E+00 -0.10623530561E+04  0.10623530561E+04  0.00000000000E+00 0. -1.
         24    2    1    2    0    0 -0.13000604093E+04 -0.19173076548E+03  0.13792538005E+04  0.19066691922E+04  0.78285426194E+02 0.  0.
        254    2    1    2    0    0  0.13000604093E+04  0.19173076548E+03 -0.88806765784E+01  0.15884100440E+04  0.89221625587E+03 0.  0.
         23    2    4    4    0    0  0.10333381492E+03  0.16311851262E+03 -0.28571995673E+03  0.35662532296E+03  0.90885647036E+02 0.  0.
         23    2    4    4    0    0  0.11967265943E+04  0.28612252859E+02  0.27683928015E+03  0.12317847210E+04  0.87637944298E+02 0.  0.
          2    1    3    3  502    0 -0.90527094432E+03 -0.15876274342E+03  0.92594136587E+03  0.13046411401E+04  0.00000000000E+00 0. -1.
         -1    1    3    3    0  502 -0.39478946494E+03 -0.32968022055E+02  0.45331243464E+03  0.60202805209E+03  0.00000000000E+00 0.  1.
         11    1    5    5    0    0  0.29278083084E+02  0.36944295368E+02 -0.15997738089E+02  0.49779661844E+02  0.00000000000E+00 0. -1.
        -11    1    5    5    0    0  0.74055731834E+02  0.12617421725E+03 -0.26972221864E+03  0.30684566112E+03  0.00000000000E+00 0.  1.
          1    1    6    6  503    0  0.95813062184E+03  0.20294199258E+02  0.25707761043E+03  0.99222731308E+03  0.00000000000E+00 0. -1.
         -1    1    6    6    0  503  0.23859597250E+03  0.83180536010E+01  0.19761669725E+02  0.23955740794E+03  0.00000000000E+00 0.  1.
<mgrwt>
<rscale>  0 0.32152226E+04</rscale>
<asrwt>0</asrwt>
<pdfrwt beam="1">  1        2 0.16343893E+00 0.32152226E+04</pdfrwt>
<pdfrwt beam="2">  1       -1 0.37426557E+00 0.32152226E+04</pdfrwt>
<totfact> 0.23553078E-01</totfact>
</mgrwt>
</event>
<event>
12    6  0.1402540E-007  0.2366171E+04  0.7818608E-02  0.8452278E-01
         -1   -1    0    0    0  501 -0.00000000000E+00  0.00000000000E+00  0.10273173346E+04  0.10273173346E+04  0.00000000000E+00 0.  1.
          2   -1    0    0  501    0  0.00000000000E+00 -0.00000000000E+00 -0.13624722975E+04  0.13624722975E+04  0.00000000000E+00 0. -1.
         24    2    1    2    0    0  0.90763837356E+03  0.16473929741E+03  0.27271860730E+03  0.96533974381E+03  0.80987214682E+02 0.  0.
        254    2    1    2    0    0 -0.90763837356E+03 -0.16473929741E+03 -0.60787357012E+03  0.14244498883E+04  0.89922230493E+03 0.  0.
         23    2    4    4    0    0 -0.18496064179E+03  0.94573855661E+02  0.20286327282E+03  0.30427848956E+03  0.90979330429E+02 0.  0.
         23    2    4    4    0    0 -0.72267773177E+03 -0.25931315307E+03 -0.81073684294E+03  0.11201713987E+04  0.89349418870E+02 0.  0.
          2    1    3    3  502    0  0.51497293719E+03  0.11193352330E+03  0.11830971535E+03  0.54011427349E+03  0.00000000000E+00 0. -1.
         -1    1    3    3    0  502  0.39266543637E+03  0.52805774109E+02  0.15440889196E+03  0.42522547032E+03  0.00000000000E+00 0.  1.
         11    1    5    5    0    0 -0.16258959022E+02 -0.89100895138E+01 -0.29196253174E+01  0.18768794730E+02  0.00000000000E+00 0.  1.
        -11    1    5    5    0    0 -0.16870168277E+03  0.10348394518E+03  0.20578289813E+03  0.28550969483E+03  0.00000000000E+00 0. -1.
          4    1    6    6  503    0 -0.68565194628E+03 -0.22949597112E+03 -0.73710392347E+03  0.10325256346E+04  0.00000000000E+00 0. -1.
         -4    1    6    6    0  503 -0.37025785490E+02 -0.29817181948E+02 -0.73632919475E+02  0.87645764078E+02  0.00000000000E+00 0.  1.
<mgrwt>
<rscale>  0 0.23661711E+04</rscale>
<asrwt>0</asrwt>
<pdfrwt beam="1">  1        2 0.20961112E+00 0.23661711E+04</pdfrwt>
<pdfrwt beam="2">  1       -1 0.15804882E+00 0.23661711E+04</pdfrwt>
<totfact> 0.47253257E+00</totfact>
</mgrwt>
</event>
<event>
12    6  0.1402540E-007  0.1943989E+04  0.7818608E-02  0.8633265E-01
          2   -1    0    0  501    0  0.00000000000E+00  0.00000000000E+00  0.17845152754E+04  0.17845152754E+04  0.00000000000E+00 0. -1.
         -1   -1    0    0    0  501 -0.00000000000E+00 -0.00000000000E+00 -0.52942835845E+03  0.52942835845E+03  0.00000000000E+00 0.  1.
         24    2    1    2    0    0 -0.38075059558E+03  0.57015741955E+03  0.99599082363E+02  0.69752445996E+03  0.81054894552E+02 0.  0.
        254    2    1    2    0    0  0.38075059558E+03 -0.57015741955E+03  0.11554878346E+04  0.16164191739E+04  0.89867030151E+03 0.  0.
         23    2    4    4    0    0  0.36109554440E+01 -0.65088929693E+03  0.98893160875E+03  0.11873456495E+04  0.90188961942E+02 0.  0.
         23    2    4    4    0    0  0.37713964014E+03  0.80731877388E+02  0.16655622589E+03  0.42907352440E+03  0.87242012644E+02 0.  0.
          2    1    3    3  502    0 -0.15529954749E+03  0.24085332474E+03  0.81869770483E+02  0.29804518585E+03  0.00000000000E+00 0. -1.
         -1    1    3    3    0  502 -0.22545104809E+03  0.32930409481E+03  0.17729311880E+02  0.39947927411E+03  0.00000000000E+00 0.  1.
         11    1    5    5    0    0 -0.37738313789E+01 -0.57527100878E+02  0.14161087374E+03  0.15289620237E+03  0.00000000000E+00 0.  1.
        -11    1    5    5    0    0  0.73847868229E+01 -0.59336219605E+03  0.84732073501E+03  0.10344494472E+04  0.00000000000E+00 0. -1.
          1    1    6    6  503    0  0.31112822593E+03  0.95185969818E+02  0.11900190530E+03  0.34644277347E+03  0.00000000000E+00 0. -1.
         -1    1    6    6    0  503  0.66011414204E+02 -0.14454092431E+02  0.47554320589E+02  0.82630750934E+02  0.00000000000E+00 0.  1.
<mgrwt>
<rscale>  0 0.19439887E+04</rscale>
<asrwt>0</asrwt>
<pdfrwt beam="1">  1        2 0.27454081E+00 0.19439887E+04</pdfrwt>
<pdfrwt beam="2">  1       -1 0.81450517E-01 0.19439887E+04</pdfrwt>
<totfact> 0.14041420E+01</totfact>
</mgrwt>
</event>
<event>
12    6  0.1402540E-007  0.2141373E+04  0.7818608E-02  0.8543234E-01
         -1   -1    0    0    0  501 -0.00000000000E+00  0.00000000000E+00  0.14184458333E+04  0.14184458333E+04  0.00000000000E+00 0.  1.
          2   -1    0    0  501    0  0.00000000000E+00 -0.00000000000E+00 -0.80818697132E+03  0.80818697132E+03  0.00000000000E+00 0. -1.
         24    2    1    2    0    0  0.26068011548E+03 -0.61263377806E+03 -0.34632365130E+03  0.75470851364E+03  0.79816041523E+02 0.  0.
        254    2    1    2    0    0 -0.26068011548E+03  0.61263377806E+03  0.95658251327E+03  0.14719242910E+04  0.89901988022E+03 0.  0.
         23    2    4    4    0    0  0.24196238664E+03 -0.58431310541E+02  0.31903091847E+03  0.41467120334E+03  0.90617136002E+02 0.  0.
         23    2    4    4    0    0 -0.50264250212E+03  0.67106508860E+03  0.63755159480E+03  0.10572530876E+04  0.91291933932E+02 0.  0.
          4    1    3    3  502    0  0.19366465822E+03 -0.50523577395E+03 -0.30721330225E+03  0.62221314692E+03  0.00000000000E+00 0. -1.
         -3    1    3    3    0  502  0.67015457264E+02 -0.10739800412E+03 -0.39110349041E+02  0.13249536672E+03  0.00000000000E+00 0.  1.
         11    1    5    5    0    0 -0.22033606606E+01 -0.14168551166E+01  0.37827398376E+02  0.37917994996E+02  0.00000000000E+00 0.  1.
        -11    1    5    5    0    0  0.24416574730E+03 -0.57014455425E+02  0.28120352010E+03  0.37675320834E+03  0.00000000000E+00 0. -1.
          1    1    6    6  503    0 -0.35684254632E+03  0.46586419730E+03  0.49661378510E+03  0.76875958839E+03  0.00000000000E+00 0. -1.
         -1    1    6    6    0  503 -0.14579995580E+03  0.20520089131E+03  0.14093780970E+03  0.28849349925E+03  0.00000000000E+00 0.  1.
<mgrwt>
<rscale>  0 0.21413729E+04</rscale>
<asrwt>0</asrwt>
<pdfrwt beam="1">  1        2 0.12433646E+00 0.21413729E+04</pdfrwt>
<pdfrwt beam="2">  1       -1 0.21822244E+00 0.21413729E+04</pdfrwt>
<totfact> 0.40277751E+00</totfact>
</mgrwt>
</event>
<event>
12    6  0.1402540E-007  0.2313675E+04  0.7818608E-02  0.8472549E-01
          2   -1    0    0  501    0  0.00000000000E+00  0.00000000000E+00  0.17684078131E+04  0.17684078131E+04  0.00000000000E+00 0. -1.
         -1   -1    0    0    0  501 -0.00000000000E+00 -0.00000000000E+00 -0.75676738729E+03  0.75676738729E+03  0.00000000000E+00 0.  1.
         24    2    1    2    0    0  0.50767998483E+03 -0.65905929034E+03  0.99260483355E+03  0.12976183375E+04  0.80317365082E+02 0.  0.
        254    2    1    2    0    0 -0.50767998483E+03  0.65905929034E+03  0.19035592247E+02  0.12275568628E+04  0.90246073741E+03 0.  0.
         23    2    4    4    0    0 -0.38555423997E+03 -0.76665453257E+02 -0.19181637142E+03  0.44728192005E+03  0.93476906094E+02 0.  0.
         23    2    4    4    0    0 -0.12212574486E+03  0.73572474360E+03  0.21085196367E+03  0.78027494279E+03  0.90359503505E+02 0.  0.
          4    1    3    3  502    0  0.94275184610E+02 -0.79106089931E+02  0.16276027037E+03  0.20405021321E+03  0.00000000000E+00 0. -1.
         -3    1    3    3    0  502  0.41340480022E+03 -0.57995320041E+03  0.82984456318E+03  0.10935681243E+04  0.00000000000E+00 0.  1.
         11    1    5    5    0    0 -0.34075647486E+02 -0.16329484371E+02 -0.51896754527E+02  0.64195599085E+02  0.00000000000E+00 0.  1.
        -11    1    5    5    0    0 -0.35147859249E+03 -0.60335968886E+02 -0.13991961690E+03  0.38308632096E+03  0.00000000000E+00 0. -1.
          1    1    6    6  503    0 -0.10244555791E+03  0.69554401334E+03  0.21539415647E+03  0.73530348121E+03  0.00000000000E+00 0. -1.
         -1    1    6    6    0  503 -0.19680186946E+02  0.40180730254E+02 -0.45421928024E+01  0.44971461588E+02  0.00000000000E+00 0.  1.
<mgrwt>
<rscale>  0 0.23136753E+04</rscale>
<asrwt>0</asrwt>
<pdfrwt beam="1">  1        2 0.27206274E+00 0.23136753E+04</pdfrwt>
<pdfrwt beam="2">  1       -1 0.11642575E+00 0.23136753E+04</pdfrwt>
<totfact> 0.61724538E+00</totfact>
</mgrwt>
</event>
<event>
12    6  0.1402540E-007  0.2458306E+04  0.7818608E-02  0.8417992E-01
         -1   -1    0    0    0  501 -0.00000000000E+00  0.00000000000E+00  0.13871324435E+04  0.13871324435E+04  0.00000000000E+00 0.  1.
          2   -1    0    0  501    0  0.00000000000E+00 -0.00000000000E+00 -0.10891652965E+04  0.10891652965E+04  0.00000000000E+00 0. -1.
         24    2    1    2    0    0  0.95505803946E+03 -0.72313931907E+02  0.59300598170E+03  0.11295092908E+04  0.82279889055E+02 0.  0.
        254    2    1    2    0    0 -0.95505803946E+03  0.72313931907E+02 -0.29503883468E+03  0.13467884493E+04  0.89968108222E+03 0.  0.
         23    2    4    4    0    0 -0.41042291336E+03  0.47047806711E+03 -0.18275819385E+03  0.65687559261E+03  0.91040690433E+02 0.  0.
         23    2    4    4    0    0 -0.54463512610E+03 -0.39816413520E+03 -0.11228064083E+03  0.68991285668E+03  0.90612959131E+02 0.  0.
          2    1    3    3  502    0  0.59877183608E+03 -0.82327010750E+02  0.35557295186E+03  0.70124002487E+03  0.00000000000E+00 0. -1.
         -1    1    3    3    0  502  0.35628620338E+03  0.10013078842E+02  0.23743302984E+03  0.42826926592E+03  0.00000000000E+00 0.  1.
         11    1    5    5    0    0 -0.35063319330E+03  0.42123867471E+03 -0.18754014144E+03  0.57927278718E+03  0.00000000000E+00 0. -1.
        -11    1    5    5    0    0 -0.59789720057E+02  0.49239392396E+02  0.47819475954E+01  0.77602805431E+02  0.00000000000E+00 0.  1.
          1    1    6    6  503    0 -0.33072943890E+03 -0.26940759635E+03 -0.32493812483E+02  0.42780633770E+03  0.00000000000E+00 0. -1.
         -1    1    6    6    0  503 -0.21390568720E+03 -0.12875653886E+03 -0.79786828352E+02  0.26210651899E+03  0.00000000000E+00 0.  1.
<mgrwt>
<rscale>  0 0.24583055E+04</rscale>
<asrwt>0</asrwt>
<pdfrwt beam="1">  1        2 0.16756389E+00 0.24583055E+04</pdfrwt>
<pdfrwt beam="2">  1       -1 0.21340499E+00 0.24583055E+04</pdfrwt>
<totfact> 0.27515449E+00</totfact>
</mgrwt>
</event>
<event>
12    6  0.1402540E-007  0.1576141E+04  0.7818608E-02  0.8835341E-01
          2   -1    0    0  501    0  0.00000000000E+00  0.00000000000E+00  0.11787840694E+04  0.11787840694E+04  0.00000000000E+00 0. -1.
         -1   -1    0    0    0  501 -0.00000000000E+00 -0.00000000000E+00 -0.52686055558E+03  0.52686055558E+03  0.00000000000E+00 0.  1.
         24    2    1    2    0    0 -0.33066754890E+03  0.41087595041E+03  0.23477170444E+03  0.58280111484E+03  0.79870593635E+02 0.  0.
        254    2    1    2    0    0  0.33066754890E+03 -0.41087595041E+03  0.41715180943E+03  0.11228435102E+04  0.89922290992E+03 0.  0.
         23    2    4    4    0    0  0.14458923136E+02 -0.29962094445E+03 -0.22953477794E+03  0.38906352540E+03  0.93286878486E+02 0.  0.
         23    2    4    4    0    0  0.31620862576E+03 -0.11125500596E+03  0.64668658737E+03  0.73377998478E+03  0.88678928863E+02 0.  0.
          4    1    3    3  502    0 -0.10944711734E+03  0.11100187639E+03  0.10610880510E+03  0.18857138324E+03  0.00000000000E+00 0. -1.
         -3    1    3    3    0  502 -0.22122043156E+03  0.29987407403E+03  0.12866289933E+03  0.39422973160E+03  0.00000000000E+00 0.  1.
         11    1    5    5    0    0  0.37120871282E+02 -0.17733389459E+03 -0.90508493762E+02  0.20252668145E+03  0.00000000000E+00 0.  1.
        -11    1    5    5    0    0 -0.22661948146E+02 -0.12228704986E+03 -0.13902628418E+03  0.18653684395E+03  0.00000000000E+00 0. -1.
          2    1    6    6  503    0  0.22141424628E+03 -0.10779112392E+03  0.40302398750E+03  0.47230448797E+03  0.00000000000E+00 0. -1.
         -2    1    6    6    0  503  0.94794379482E+02 -0.34638820416E+01  0.24366259987E+03  0.26147549681E+03  0.00000000000E+00 0.  1.
<mgrwt>
<rscale>  0 0.15761406E+04</rscale>
<asrwt>0</asrwt>
<pdfrwt beam="1">  1        2 0.18135139E+00 0.15761406E+04</pdfrwt>
<pdfrwt beam="2">  1       -1 0.81055471E-01 0.15761406E+04</pdfrwt>
<totfact> 0.32413934E+01</totfact>
</mgrwt>
</event>
<event>
12    6  0.1402540E-007  0.1584717E+04  0.7818608E-02  0.8829992E-01
          2   -1    0    0  501    0  0.00000000000E+00  0.00000000000E+00  0.12116980889E+04  0.12116980889E+04  0.00000000000E+00 0. -1.
         -1   -1    0    0    0  501 -0.00000000000E+00 -0.00000000000E+00 -0.51814220015E+03  0.51814220015E+03  0.00000000000E+00 0.  1.
         24    2    1    2    0    0  0.20809234384E+03 -0.46416066448E+03  0.42201900942E+03  0.66580199464E+03  0.80278924673E+02 0.  0.
        254    2    1    2    0    0 -0.20809234384E+03  0.46416066448E+03  0.27153687933E+03  0.10640382944E+04  0.89425816691E+03 0.  0.
         23    2    4    4    0    0 -0.15534875939E+03 -0.20584962107E+03 -0.98415628750E+02  0.29149286066E+03  0.93675761523E+02 0.  0.
         23    2    4    4    0    0 -0.52743584448E+02  0.67001028555E+03  0.36995250808E+03  0.77254543373E+03  0.90917107893E+02 0.  0.
          2    1    3    3  502    0  0.16996253102E+03 -0.34466904678E+03  0.35696509141E+03  0.52450747396E+03  0.00000000000E+00 0. -1.
         -1    1    3    3    0  502  0.38129812823E+02 -0.11949161770E+03  0.65053918011E+02  0.14129452068E+03  0.00000000000E+00 0.  1.
         11    1    5    5    0    0 -0.15530966760E+03 -0.20631324782E+03 -0.10943192358E+03  0.28046674486E+03  0.00000000000E+00 0. -1.
        -11    1    5    5    0    0 -0.39091799786E-01  0.46362675183E+00  0.11016294830E+02  0.11026115804E+02  0.00000000000E+00 0.  1.
          2    1    6    6  503    0 -0.29761189146E+02  0.62287568507E+03  0.35693766678E+03  0.71851537590E+03  0.00000000000E+00 0. -1.
         -2    1    6    6    0  503 -0.22982395302E+02  0.47134600472E+02  0.13014841301E+02  0.54030057835E+02  0.00000000000E+00 0.  1.
<mgrwt>
<rscale>  0 0.15847169E+04</rscale>
<asrwt>0</asrwt>
<pdfrwt beam="1">  1        2 0.18641509E+00 0.15847169E+04</pdfrwt>
<pdfrwt beam="2">  1       -1 0.79714185E-01 0.15847169E+04</pdfrwt>
<totfact> 0.32074021E+01</totfact>
</mgrwt>
</event>
<event>
12    6  0.1402540E-007  0.2037511E+04  0.7818608E-02  0.8589281E-01
          2   -1    0    0  501    0  0.00000000000E+00  0.00000000000E+00  0.23160395888E+04  0.23160395888E+04  0.00000000000E+00 0. -1.
         -1   -1    0    0    0  501 -0.00000000000E+00 -0.00000000000E+00 -0.44811968956E+03  0.44811968956E+03  0.00000000000E+00 0.  1.
         24    2    1    2    0    0 -0.36347456103E+03  0.71634744587E+03  0.95980395969E+03  0.12539891740E+04  0.77445384991E+02 0.  0.
        254    2    1    2    0    0  0.36347456103E+03 -0.71634744587E+03  0.90811593957E+03  0.15101701044E+04  0.90037312536E+03 0.  0.
         23    2    4    4    0    0  0.11760705202E+03 -0.44808966863E+03  0.10156128592E+04  0.11199892607E+04  0.91053250626E+02 0.  0.
         23    2    4    4    0    0  0.24586750900E+03 -0.26825777724E+03 -0.10749691960E+03  0.39018084377E+03  0.90952933340E+02 0.  0.
          4    1    3    3  502    0 -0.21212472161E+03  0.44350832951E+03  0.64213343890E+03  0.80872238080E+03  0.00000000000E+00 0. -1.
         -3    1    3    3    0  502 -0.15134983942E+03  0.27283911636E+03  0.31767052080E+03  0.44526679316E+03  0.00000000000E+00 0.  1.
         11    1    5    5    0    0  0.59086521457E+02 -0.84422381185E+02  0.19700423945E+03  0.22232639480E+03  0.00000000000E+00 0.  1.
        -11    1    5    5    0    0  0.58520530566E+02 -0.36366728745E+03  0.81860861973E+03  0.89766286586E+03  0.00000000000E+00 0. -1.
          1    1    6    6  503    0  0.25008831565E+03 -0.26308889350E+03 -0.93748225235E+02  0.37489820117E+03  0.00000000000E+00 0. -1.
         -1    1    6    6    0  503 -0.42208066432E+01 -0.51688837375E+01 -0.13748694366E+02  0.15282642591E+02  0.00000000000E+00 0.  1.
<mgrwt>
<rscale>  0 0.20375112E+04</rscale>
<asrwt>0</asrwt>
<pdfrwt beam="1">  1        2 0.35631378E+00 0.20375112E+04</pdfrwt>
<pdfrwt beam="2">  1       -1 0.68941492E-01 0.20375112E+04</pdfrwt>
<totfact> 0.99659057E+00</totfact>
</mgrwt>
</event>
<event>
12    6  0.1402540E-007  0.1827494E+04  0.7818608E-02  0.8691813E-01
          2   -1    0    0  501    0  0.00000000000E+00  0.00000000000E+00  0.87856223021E+03  0.87856223021E+03  0.00000000000E+00 0. -1.
         -1   -1    0    0    0  501 -0.00000000000E+00 -0.00000000000E+00 -0.95034110845E+03  0.95034110845E+03  0.00000000000E+00 0.  1.
         24    2    1    2    0    0  0.20585676271E+03  0.64819042506E+03  0.82374681444E+02  0.68977718840E+03  0.80493152580E+02 0.  0.
        254    2    1    2    0    0 -0.20585676271E+03 -0.64819042506E+03 -0.15415355968E+03  0.11391261503E+04  0.90073149848E+03 0.  0.
         23    2    4    4    0    0 -0.33086644437E+03 -0.79784066629E+03 -0.24906490881E+03  0.90361829197E+03  0.92034536917E+02 0.  0.
         23    2    4    4    0    0  0.12500968167E+03  0.14965024123E+03  0.94911349124E+02  0.23550785829E+03  0.91832303205E+02 0.  0.
          4    1    3    3  502    0  0.17397822468E+03  0.49997972577E+03  0.94262838503E+02  0.53771147613E+03  0.00000000000E+00 0. -1.
         -3    1    3    3    0  502  0.31878538026E+02  0.14821069929E+03 -0.11888157059E+02  0.15206571227E+03  0.00000000000E+00 0.  1.
         11    1    5    5    0    0 -0.10501423012E+03 -0.24871228298E+03 -0.33987539670E+02  0.27210465098E+03  0.00000000000E+00 0.  1.
        -11    1    5    5    0    0 -0.22585221425E+03 -0.54912838330E+03 -0.21507736914E+03  0.63151364098E+03  0.00000000000E+00 0. -1.
          3    1    6    6  503    0  0.75463718241E+02  0.72294742180E+02  0.98453762955E+02  0.14357731700E+03  0.00000000000E+00 0. -1.
         -3    1    6    6    0  503  0.49545963426E+02  0.77355499052E+02 -0.35424138316E+01  0.91930541286E+02  0.00000000000E+00 0.  1.
<mgrwt>
<rscale>  0 0.18274942E+04</rscale>
<asrwt>0</asrwt>
<pdfrwt beam="1">  1        2 0.13516342E+00 0.18274942E+04</pdfrwt>
<pdfrwt beam="2">  1       -1 0.14620633E+00 0.18274942E+04</pdfrwt>
<totfact> 0.12185002E+01</totfact>
</mgrwt>
</event>
<event>
12    6  0.1402540E-007  0.1789755E+04  0.7818608E-02  0.8711767E-01
         -1   -1    0    0    0  501 -0.00000000000E+00  0.00000000000E+00  0.90080044881E+03  0.90080044881E+03  0.00000000000E+00 0.  1.
          2   -1    0    0  501    0  0.00000000000E+00 -0.00000000000E+00 -0.88899304551E+03  0.88899304551E+03  0.00000000000E+00 0. -1.
         24    2    1    2    0    0  0.12933510629E+03 -0.63558734082E+03 -0.14808495988E+03  0.67004220508E+03  0.79552270352E+02 0.  0.
        254    2    1    2    0    0 -0.12933510629E+03  0.63558734082E+03  0.15989236319E+03  0.11197512892E+04  0.89865374001E+03 0.  0.
         23    2    4    4    0    0 -0.25624412810E+03 -0.14393257327E+03  0.95023174431E+02  0.32189996448E+03  0.90623090980E+02 0.  0.
         23    2    4    4    0    0  0.12690902181E+03  0.77951991409E+03  0.64869188757E+02  0.79785132476E+03  0.92744425689E+02 0.  0.
          2    1    3    3  502    0 -0.12247675923E+01 -0.13325575371E+03 -0.14095180356E+02  0.13400473896E+03  0.00000000000E+00 0. -1.
         -1    1    3    3    0  502  0.13055987388E+03 -0.50233158710E+03 -0.13398977953E+03  0.53603746612E+03  0.00000000000E+00 0.  1.
         11    1    5    5    0    0 -0.18741520552E+03 -0.70921867113E+02  0.30726485707E+02  0.20272761879E+03  0.00000000000E+00 0.  1.
        -11    1    5    5    0    0 -0.68828922583E+02 -0.73010706161E+02  0.64296688724E+02  0.11917234570E+03  0.00000000000E+00 0. -1.
          4    1    6    6  503    0  0.50599921734E+01  0.18571241897E+03 -0.15217472615E+02  0.18640353417E+03  0.00000000000E+00 0. -1.
         -4    1    6    6    0  503  0.12184902964E+03  0.59380749512E+03  0.80086661372E+02  0.61144779059E+03  0.00000000000E+00 0.  1.
<mgrwt>
<rscale>  0 0.17897545E+04</rscale>
<asrwt>0</asrwt>
<pdfrwt beam="1">  1        2 0.13676816E+00 0.17897545E+04</pdfrwt>
<pdfrwt beam="2">  1       -1 0.13858469E+00 0.17897545E+04</pdfrwt>
<totfact> 0.13847003E+01</totfact>
</mgrwt>
</event>
<event>
12    6  0.1402540E-007  0.2665558E+04  0.7818608E-02  0.8346267E-01
         -1   -1    0    0    0  501 -0.00000000000E+00  0.00000000000E+00  0.13975798935E+04  0.13975798935E+04  0.00000000000E+00 0.  1.
          2   -1    0    0  501    0  0.00000000000E+00 -0.00000000000E+00 -0.12709829935E+04  0.12709829935E+04  0.00000000000E+00 0. -1.
         24    2    1    2    0    0 -0.16059971953E+03  0.38016031523E+03  0.11624810635E+04  0.12362013634E+04  0.80730740699E+02 0.  0.
        254    2    1    2    0    0  0.16059971953E+03 -0.38016031523E+03 -0.10358841635E+04  0.14323615236E+04  0.89904916372E+03 0.  0.
         23    2    4    4    0    0 -0.29632140078E+03 -0.41658020615E+03 -0.59436663036E+03  0.78922065883E+03  0.90841159856E+02 0.  0.
         23    2    4    4    0    0  0.45692112031E+03  0.36419890914E+02 -0.44151753316E+03  0.64314086475E+03  0.92677511685E+02 0.  0.
          2    1    3    3  502    0 -0.28214584560E+02  0.19250092646E+02  0.66561258755E+02  0.74813301062E+02  0.00000000000E+00 0. -1.
         -1    1    3    3    0  502 -0.13238513497E+03  0.36091022259E+03  0.10959198048E+04  0.11613880623E+04  0.00000000000E+00 0.  1.
         11    1    5    5    0    0 -0.83013985539E+02 -0.11432847065E+03 -0.10638015269E+03  0.17685886430E+03  0.00000000000E+00 0. -1.
        -11    1    5    5    0    0 -0.21330741524E+03 -0.30225173550E+03 -0.48798647767E+03  0.61236179453E+03  0.00000000000E+00 0.  1.
          1    1    6    6  503    0  0.30566344443E+03  0.38405059450E+02 -0.35031458305E+03  0.46650337292E+03  0.00000000000E+00 0. -1.
         -1    1    6    6    0  503  0.15125767588E+03 -0.19851685352E+01 -0.91202950117E+02  0.17663749182E+03  0.00000000000E+00 0.  1.
<mgrwt>
<rscale>  0 0.26655583E+04</rscale>
<asrwt>0</asrwt>
<pdfrwt beam="1">  1        2 0.19553585E+00 0.26655583E+04</pdfrwt>
<pdfrwt beam="2">  1       -1 0.21501229E+00 0.26655583E+04</pdfrwt>
<totfact> 0.20488062E+00</totfact>
</mgrwt>
</event>
<event>
12    6  0.1402540E-007  0.1321062E+04  0.7818608E-02  0.9013028E-01
          2   -1    0    0  501    0  0.00000000000E+00  0.00000000000E+00  0.12058537990E+04  0.12058537990E+04  0.00000000000E+00 0. -1.
         -1   -1    0    0    0  501 -0.00000000000E+00 -0.00000000000E+00 -0.36181917839E+03  0.36181917839E+03  0.00000000000E+00 0.  1.
         24    2    1    2    0    0 -0.30359503051E+03 -0.12707874753E+03  0.35921226750E+03  0.49456854733E+03  0.85121350200E+02 0.  0.
        254    2    1    2    0    0  0.30359503051E+03  0.12707874753E+03  0.48482235307E+03  0.10731044300E+04  0.89898912844E+03 0.  0.
         23    2    4    4    0    0  0.35507252356E+03 -0.67166602143E+02  0.68229311139E+03  0.77745017315E+03  0.91197765587E+02 0.  0.
         23    2    4    4    0    0 -0.51477493047E+02  0.19424534967E+03 -0.19747075832E+03  0.29565425686E+03  0.89641235201E+02 0.  0.
          2    1    3    3  502    0 -0.17122791274E+03 -0.42514753063E+02  0.14178320055E+03  0.22633819449E+03  0.00000000000E+00 0. -1.
         -1    1    3    3    0  502 -0.13236711777E+03 -0.84563994468E+02  0.21742906695E+03  0.26823035284E+03  0.00000000000E+00 0.  1.
         11    1    5    5    0    0  0.33714298171E+03 -0.46550118501E+02  0.65836144095E+03  0.74112892980E+03  0.00000000000E+00 0. -1.
        -11    1    5    5    0    0  0.17929541845E+02 -0.20616483642E+02  0.23931670439E+02  0.36321243351E+02  0.00000000000E+00 0.  1.
          3    1    6    6  503    0 -0.60956026008E+02  0.18934694177E+03 -0.20250267045E+03  0.28385776897E+03  0.00000000000E+00 0. -1.
         -3    1    6    6    0  503  0.94785329609E+01  0.48984079017E+01  0.50319121234E+01  0.11796487896E+02  0.00000000000E+00 0.  1.
<mgrwt>
<rscale>  0 0.13210617E+04</rscale>
<asrwt>0</asrwt>
<pdfrwt beam="1">  1        2 0.18551597E+00 0.13210617E+04</pdfrwt>
<pdfrwt beam="2">  1       -1 0.55664489E-01 0.13210617E+04</pdfrwt>
<totfact> 0.68424475E+01</totfact>
</mgrwt>
</event>
<event>
12    6  0.1402540E-007  0.1605772E+04  0.7818608E-02  0.8817010E-01
         -1   -1    0    0    0  501 -0.00000000000E+00  0.00000000000E+00  0.78995531009E+03  0.78995531009E+03  0.00000000000E+00 0.  1.
          2   -1    0    0  501    0  0.00000000000E+00 -0.00000000000E+00 -0.81602825436E+03  0.81602825436E+03  0.00000000000E+00 0. -1.
         24    2    1    2    0    0  0.10078830022E+03 -0.37062172353E+03 -0.40225253257E+03  0.56202636434E+03  0.80918420865E+02 0.  0.
        254    2    1    2    0    0 -0.10078830022E+03  0.37062172353E+03  0.37617958831E+03  0.10439572001E+04  0.89488368495E+03 0.  0.
         23    2    4    4    0    0 -0.29580766622E+03 -0.16357767731E+03 -0.10301141203E+02  0.35033385436E+03  0.91476030157E+02 0.  0.
         23    2    4    4    0    0  0.19501936599E+03  0.53419940084E+03  0.38648072951E+03  0.69362334575E+03  0.91347898236E+02 0.  0.
          4    1    3    3  502    0  0.12956834198E+02 -0.19952375474E+03 -0.21493609646E+03  0.29355601479E+03  0.00000000000E+00 0. -1.
         -3    1    3    3    0  502  0.87831466026E+02 -0.17109796879E+03 -0.18731643611E+03  0.26847034955E+03  0.00000000000E+00 0.  1.
         11    1    5    5    0    0 -0.28845896173E+03 -0.17134990717E+03 -0.19704734319E+02  0.33609171344E+03  0.00000000000E+00 0. -1.
        -11    1    5    5    0    0 -0.73487044880E+01  0.77722298534E+01  0.94035931158E+01  0.14242140922E+02  0.00000000000E+00 0.  1.
          1    1    6    6  503    0  0.12528123313E+03  0.23989402584E+03  0.14802342864E+03  0.30847279691E+03  0.00000000000E+00 0.  1.
         -1    1    6    6    0  503  0.69738132859E+02  0.29430537500E+03  0.23845730087E+03  0.38515054884E+03  0.00000000000E+00 0. -1.
<mgrwt>
<rscale>  0 0.16057719E+04</rscale>
<asrwt>0</asrwt>
<pdfrwt beam="1">  1        2 0.12554281E+00 0.16057719E+04</pdfrwt>
<pdfrwt beam="2">  1       -1 0.12153159E+00 0.16057719E+04</pdfrwt>
<totfact> 0.22030236E+01</totfact>
</mgrwt>
</event>
<event>
12    6  0.1402540E-007  0.2159540E+04  0.7818608E-02  0.8535460E-01
         -1   -1    0    0    0  501 -0.00000000000E+00  0.00000000000E+00  0.76087293270E+03  0.76087293270E+03  0.00000000000E+00 0.  1.
          2   -1    0    0  501    0  0.00000000000E+00 -0.00000000000E+00 -0.15323230255E+04  0.15323230255E+04  0.00000000000E+00 0. -1.
         24    2    1    2    0    0 -0.87156147595E+03  0.17699454186E+03 -0.32255273399E+03  0.94950119984E+03  0.81029550699E+02 0.  0.
        254    2    1    2    0    0  0.87156147595E+03 -0.17699454186E+03 -0.44889735881E+03  0.13436947584E+04  0.90169855867E+03 0.  0.
         23    2    4    4    0    0  0.84534300386E+03 -0.41911588380E+03 -0.51011403604E+03  0.10764235825E+04  0.90600667775E+02 0.  0.
         23    2    4    4    0    0  0.26218472090E+02  0.24212134195E+03  0.61216677232E+02  0.26727117585E+03  0.91521840918E+02 0.  0.
          2    1    3    3  502    0 -0.86927076406E+03  0.17428219576E+03 -0.32594794469E+03  0.94458880348E+03  0.00000000000E+00 0. -1.
         -1    1    3    3    0  502 -0.22907118868E+01  0.27123460983E+01  0.33952106991E+01  0.49123963599E+01  0.00000000000E+00 0.  1.
         11    1    5    5    0    0  0.63424036795E+03 -0.35614049023E+03 -0.38234980711E+03  0.82175925192E+03  0.00000000000E+00 0. -1.
        -11    1    5    5    0    0  0.21110263591E+03 -0.62975393569E+02 -0.12776422894E+03  0.25466433059E+03  0.00000000000E+00 0.  1.
          3    1    6    6  503    0  0.52909689457E+02  0.16646763459E+03  0.66426725698E+02  0.18687808457E+03  0.00000000000E+00 0. -1.
         -3    1    6    6    0  503 -0.26691217367E+02  0.75653707353E+02 -0.52100484656E+01  0.80393091282E+02  0.00000000000E+00 0.  1.
<mgrwt>
<rscale>  0 0.21595399E+04</rscale>
<asrwt>0</asrwt>
<pdfrwt beam="1">  1        2 0.23574200E+00 0.21595399E+04</pdfrwt>
<pdfrwt beam="2">  1       -1 0.11705738E+00 0.21595399E+04</pdfrwt>
<totfact> 0.83633598E+00</totfact>
</mgrwt>
</event>
<event>
12    6  0.1402540E-007  0.1319940E+04  0.7818608E-02  0.9013900E-01
         -1   -1    0    0    0  501 -0.00000000000E+00  0.00000000000E+00  0.76468299456E+03  0.76468299456E+03  0.00000000000E+00 0.  1.
          2   -1    0    0  501    0  0.00000000000E+00 -0.00000000000E+00 -0.56959613443E+03  0.56959613443E+03  0.00000000000E+00 0. -1.
         24    2    1    2    0    0  0.19692089109E+03 -0.13719256531E+03  0.33333186126E+03  0.41877118019E+03  0.81605969793E+02 0.  0.
        254    2    1    2    0    0 -0.19692089109E+03  0.13719256531E+03 -0.13824500113E+03  0.91550794879E+03  0.87260729233E+03 0.  0.
         23    2    4    4    0    0  0.10673451796E+03  0.40434785270E+03 -0.23480136818E+03  0.48913054693E+03  0.96060221413E+02 0.  0.
         23    2    4    4    0    0 -0.30365540904E+03 -0.26715528739E+03  0.96556367050E+02  0.42637740186E+03  0.94318618409E+02 0.  0.
          4    1    3    3  502    0  0.11400312562E+02 -0.44711979703E+02  0.64197046368E+02  0.79059401831E+02  0.00000000000E+00 0. -1.
         -3    1    3    3    0  502  0.18552057853E+03 -0.92480585609E+02  0.26913481489E+03  0.33971177836E+03  0.00000000000E+00 0.  1.
         11    1    5    5    0    0  0.68008842163E+02  0.34471098341E+03 -0.16047456018E+03  0.38626797584E+03  0.00000000000E+00 0. -1.
        -11    1    5    5    0    0  0.38725675793E+02  0.59636869290E+02 -0.74326807997E+02  0.10286257109E+03  0.00000000000E+00 0.  1.
          3    1    6    6  503    0 -0.22435415420E+03 -0.24568308925E+03  0.69592412322E+02  0.33990891531E+03  0.00000000000E+00 0. -1.
         -3    1    6    6    0  503 -0.79301254840E+02 -0.21472198133E+02  0.26963954728E+02  0.86468486551E+02  0.00000000000E+00 0.  1.
<mgrwt>
<rscale>  0 0.13199401E+04</rscale>
<asrwt>0</asrwt>
<pdfrwt beam="1">  1        2 0.87630174E-01 0.13199401E+04</pdfrwt>
<pdfrwt beam="2">  1       -1 0.11764354E+00 0.13199401E+04</pdfrwt>
<totfact> 0.38401710E+01</totfact>
</mgrwt>
</event>
<event>
12    6  0.1402540E-007  0.2069140E+04  0.7818608E-02  0.8574960E-01
          2   -1    0    0  501    0  0.00000000000E+00  0.00000000000E+00  0.80499816941E+03  0.80499816941E+03  0.00000000000E+00 0. -1.
         -1   -1    0    0    0  501 -0.00000000000E+00 -0.00000000000E+00 -0.13296124048E+04  0.13296124048E+04  0.00000000000E+00 0.  1.
         24    2    1    2    0    0 -0.76425928310E+03  0.16610876000E+03  0.92786241279E+02  0.79147605100E+03  0.78362495981E+02 0.  0.
        254    2    1    2    0    0  0.76425928310E+03 -0.16610876000E+03 -0.61740047667E+03  0.13431345232E+04  0.90063456902E+03 0.  0.
         23    2    4    4    0    0  0.93841353021E+03 -0.17923387265E+02 -0.53008379841E+03  0.10819178127E+04  0.92823049516E+02 0.  0.
         23    2    4    4    0    0 -0.17415424710E+03 -0.14818537274E+03 -0.87316678267E+02  0.26121671056E+03  0.91221494702E+02 0.  0.
          4    1    3    3  502    0 -0.27876720008E+03  0.28016126835E+02  0.53189578494E+02  0.28517571156E+03  0.00000000000E+00 0. -1.
         -3    1    3    3    0  502 -0.48549208303E+03  0.13809263317E+03  0.39596662785E+02  0.50630033944E+03  0.00000000000E+00 0.  1.
         11    1    5    5    0    0  0.28491373384E+03  0.34966460504E+02 -0.14570677198E+03  0.32191451116E+03  0.00000000000E+00 0.  1.
        -11    1    5    5    0    0  0.65349979637E+03 -0.52889847768E+02 -0.38437702642E+03  0.76000330150E+03  0.00000000000E+00 0. -1.
          2    1    6    6  503    0 -0.15724342741E+03 -0.99699752558E+02 -0.38010258301E+02  0.19002714506E+03  0.00000000000E+00 0. -1.
         -2    1    6    6    0  503 -0.16910819700E+02 -0.48485620180E+02 -0.49306419966E+02  0.71189565507E+02  0.00000000000E+00 0.  1.
<mgrwt>
<rscale>  0 0.20691405E+04</rscale>
<asrwt>0</asrwt>
<pdfrwt beam="1">  1        2 0.12384587E+00 0.20691405E+04</pdfrwt>
<pdfrwt beam="2">  1       -1 0.20455575E+00 0.20691405E+04</pdfrwt>
<totfact> 0.50426590E+00</totfact>
</mgrwt>
</event>
<event>
12    6  0.1402540E-007  0.1466288E+04  0.7818608E-02  0.8907186E-01
          2   -1    0    0  501    0  0.00000000000E+00  0.00000000000E+00  0.18869245874E+04  0.18869245874E+04  0.00000000000E+00 0. -1.
         -1   -1    0    0    0  501 -0.00000000000E+00 -0.00000000000E+00 -0.28485517226E+03  0.28485517226E+03  0.00000000000E+00 0.  1.
         24    2    1    2    0    0  0.65833626227E+02  0.39469966212E+03  0.18989379673E+03  0.45008343432E+03  0.79959703550E+02 0.  0.
        254    2    1    2    0    0 -0.65833626227E+02 -0.39469966212E+03  0.14121756184E+04  0.17216963254E+04  0.89993131397E+03 0.  0.
         23    2    4    4    0    0 -0.20183948297E+03 -0.34464336248E+03  0.13130179984E+03  0.42983199580E+03  0.89426829252E+02 0.  0.
         23    2    4    4    0    0  0.13600585674E+03 -0.50056299640E+02  0.12808738186E+04  0.12918643296E+04  0.85278840555E+02 0.  0.
          2    1    3    3  502    0  0.85391401498E+01  0.20117655924E+03  0.12953519462E+03  0.23942491840E+03  0.00000000000E+00 0. -1.
         -1    1    3    3    0  502  0.57294486077E+02  0.19352310288E+03  0.60358602107E+02  0.21065851592E+03  0.00000000000E+00 0.  1.
         11    1    5    5    0    0 -0.73274162763E+02 -0.54170688725E+02  0.38289083885E+02  0.98841390067E+02  0.00000000000E+00 0. -1.
        -11    1    5    5    0    0 -0.12856532021E+03 -0.29047267375E+03  0.93012715958E+02  0.33099060574E+03  0.00000000000E+00 0.  1.
          2    1    6    6  503    0  0.12864614740E+03 -0.22323456514E+02  0.84302541606E+03  0.85307679612E+03  0.00000000000E+00 0. -1.
         -2    1    6    6    0  503  0.73597093465E+01 -0.27732843126E+02  0.43784840252E+03  0.43878753344E+03  0.00000000000E+00 0.  1.
<mgrwt>
<rscale>  0 0.14662881E+04</rscale>
<asrwt>0</asrwt>
<pdfrwt beam="1">  1        2 0.29029608E+00 0.14662881E+04</pdfrwt>
<pdfrwt beam="2">  1       -1 0.43823874E-01 0.14662881E+04</pdfrwt>
<totfact> 0.43847128E+01</totfact>
</mgrwt>
</event>
<event>
12    6  0.1402540E-007  0.1816487E+04  0.7818608E-02  0.8697581E-01
          2   -1    0    0  501    0  0.00000000000E+00  0.00000000000E+00  0.98653090457E+03  0.98653090457E+03  0.00000000000E+00 0. -1.
         -3   -1    0    0    0  501 -0.00000000000E+00 -0.00000000000E+00 -0.83616889329E+03  0.83616889329E+03  0.00000000000E+00 0.  1.
         24    2    1    2    0    0 -0.21333842790E+03 -0.47851108262E+03 -0.38070568774E+03  0.65250014808E+03  0.79583173841E+02 0.  0.
        254    2    1    2    0    0  0.21333842790E+03  0.47851108262E+03  0.53106769902E+03  0.11701996498E+04  0.90158093282E+03 0.  0.
         23    2    4    4    0    0  0.48688348143E+03  0.29702234047E+02  0.16145331327E+03  0.52176605455E+03  0.90746328388E+02 0.  0.
         23    2    4    4    0    0 -0.27354505353E+03  0.44880884857E+03  0.36961438575E+03  0.64843359524E+03  0.87149609419E+02 0.  0.
          2    1    3    3  502    0 -0.14534714923E+03 -0.24575914236E+03 -0.17809021573E+03  0.33651073502E+03  0.00000000000E+00 0. -1.
         -1    1    3    3    0  502 -0.67991278663E+02 -0.23275194026E+03 -0.20261547201E+03  0.31598941306E+03  0.00000000000E+00 0.  1.
         11    1    5    5    0    0  0.33799318761E+03  0.12221633748E+01  0.71430675858E+02  0.34546089505E+03  0.00000000000E+00 0.  1.
        -11    1    5    5    0    0  0.14889029382E+03  0.28480070672E+02  0.90022637414E+02  0.17630515950E+03  0.00000000000E+00 0. -1.
          4    1    6    6  503    0 -0.23495881675E+03  0.31484864547E+03  0.26010187023E+03  0.47115634138E+03  0.00000000000E+00 0. -1.
         -4    1    6    6    0  503 -0.38586236785E+02  0.13396020310E+03  0.10951251552E+03  0.17727725387E+03  0.00000000000E+00 0.  1.
<mgrwt>
<rscale>  0 0.18164872E+04</rscale>
<asrwt>0</asrwt>
<pdfrwt beam="1">  1        2 0.15177399E+00 0.18164872E+04</pdfrwt>
<pdfrwt beam="2">  1       -3 0.12864137E+00 0.18164872E+04</pdfrwt>
<totfact> 0.72984703E+00</totfact>
</mgrwt>
</event>
<event>
12    6  0.1402540E-007  0.2683053E+04  0.7818608E-02  0.8340525E-01
          2   -1    0    0  501    0  0.00000000000E+00  0.00000000000E+00  0.93493368444E+03  0.93493368444E+03  0.00000000000E+00 0. -1.
         -1   -1    0    0    0  501 -0.00000000000E+00 -0.00000000000E+00 -0.19249418008E+04  0.19249418008E+04  0.00000000000E+00 0.  1.
         24    2    1    2    0    0  0.10585288334E+04  0.53556772543E+03 -0.52511611771E+03  0.12998024124E+04  0.80145458226E+02 0.  0.
        254    2    1    2    0    0 -0.10585288334E+04 -0.53556772543E+03 -0.46489199866E+03  0.15600730729E+04  0.90021516464E+03 0.  0.
         23    2    4    4    0    0 -0.20770444580E+03  0.24238080079E+03 -0.12478107590E+03  0.35454703883E+03  0.90794804053E+02 0.  0.
         23    2    4    4    0    0 -0.85082438760E+03 -0.77794852622E+03 -0.34011092275E+03  0.12055260341E+04  0.92257959042E+02 0.  0.
          4    1    3    3  502    0  0.19798048871E+03  0.13538590338E+03 -0.11326585435E+03  0.26524473700E+03  0.00000000000E+00 0. -1.
         -3    1    3    3    0  502  0.86054834469E+03  0.40018182205E+03 -0.41185026336E+03  0.10345576754E+04  0.00000000000E+00 0.  1.
         11    1    5    5    0    0 -0.19770267676E+03  0.24975707108E+03 -0.12482280701E+03  0.34211938867E+03  0.00000000000E+00 0.  1.
        -11    1    5    5    0    0 -0.10001769034E+02 -0.73762702838E+01  0.41731105439E-01  0.12427650164E+02  0.00000000000E+00 0. -1.
          1    1    6    6  503    0 -0.22236206233E+03 -0.25456888604E+03 -0.80636990862E+02  0.34749464571E+03  0.00000000000E+00 0. -1.
         -1    1    6    6    0  503 -0.62846232527E+03 -0.52337964019E+03 -0.25947393189E+03  0.85803138834E+03  0.00000000000E+00 0.  1.
<mgrwt>
<rscale>  0 0.26830527E+04</rscale>
<asrwt>0</asrwt>
<pdfrwt beam="1">  1        2 0.14383595E+00 0.26830527E+04</pdfrwt>
<pdfrwt beam="2">  1       -1 0.29614489E+00 0.26830527E+04</pdfrwt>
<totfact> 0.97327660E-01</totfact>
</mgrwt>
</event>
<event>
12    6  0.1402540E-007  0.3223779E+04  0.7818608E-02  0.8182565E-01
          2   -1    0    0  501    0  0.00000000000E+00  0.00000000000E+00  0.23512381317E+04  0.23512381317E+04  0.00000000000E+00 0. -1.
         -1   -1    0    0    0  501 -0.00000000000E+00 -0.00000000000E+00 -0.11050298663E+04  0.11050298663E+04  0.00000000000E+00 0.  1.
         24    2    1    2    0    0 -0.10616835938E+04  0.59801526142E+03  0.14863633033E+04  0.19236707801E+04  0.80243969503E+02 0.  0.
        254    2    1    2    0    0  0.10616835938E+04 -0.59801526142E+03 -0.24015503796E+03  0.15325972178E+04  0.89798969020E+03 0.  0.
         23    2    4    4    0    0  0.38322003386E+03  0.21609040648E+03 -0.84593801532E+02  0.45744499996E+03  0.92450844285E+02 0.  0.
         23    2    4    4    0    0  0.67846355990E+03 -0.81410566790E+03 -0.15556123643E+03  0.10751522179E+04  0.93124393669E+02 0.  0.
          4    1    3    3  502    0 -0.25504128712E+03  0.10709520579E+03  0.35359415519E+03  0.44893681941E+03  0.00000000000E+00 0. -1.
         -3    1    3    3    0  502 -0.80664230664E+03  0.49092005563E+03  0.11327691482E+04  0.14747339607E+04  0.00000000000E+00 0.  1.
         11    1    5    5    0    0  0.38792501221E+03  0.21273480963E+03 -0.79044274543E+02  0.44943287782E+03  0.00000000000E+00 0. -1.
        -11    1    5    5    0    0 -0.47049783481E+01  0.33555968524E+01 -0.55495269892E+01  0.80121221468E+01  0.00000000000E+00 0.  1.
          3    1    6    6  503    0  0.65980680390E+03 -0.81001314445E+03 -0.15323893427E+03  0.10559112101E+04  0.00000000000E+00 0. -1.
         -3    1    6    6    0  503  0.18656755992E+02 -0.40925234527E+01 -0.23223021617E+01  0.19241007762E+02  0.00000000000E+00 0.  1.
<mgrwt>
<rscale>  0 0.32237794E+04</rscale>
<asrwt>0</asrwt>
<pdfrwt beam="1">  1        2 0.36172894E+00 0.32237794E+04</pdfrwt>
<pdfrwt beam="2">  1       -1 0.17000460E+00 0.32237794E+04</pdfrwt>
<totfact> 0.99631081E-01</totfact>
</mgrwt>
</event>
<event>
12    6  0.1402540E-007  0.4812364E+04  0.7818608E-02  0.7858122E-01
         -1   -1    0    0    0  501 -0.00000000000E+00  0.00000000000E+00  0.21810046898E+04  0.21810046898E+04  0.00000000000E+00 0.  1.
          2   -1    0    0  501    0  0.00000000000E+00 -0.00000000000E+00 -0.26546071444E+04  0.26546071444E+04  0.00000000000E+00 0. -1.
         24    2    1    2    0    0  0.14910914858E+04  0.29285381367E+03  0.15288587316E+04  0.21570826476E+04  0.80494424440E+02 0.  0.
        254    2    1    2    0    0 -0.14910914858E+04 -0.29285381367E+03 -0.20024611862E+04  0.26785291866E+04  0.92495979700E+03 0.  0.
         23    2    4    4    0    0 -0.51783884006E+03  0.18271990911E+03 -0.23708183513E+03  0.60534507076E+03  0.93226759493E+02 0.  0.
         23    2    4    4    0    0 -0.97325264575E+03 -0.47557372278E+03 -0.17653793511E+04  0.20731841159E+04  0.90205580641E+02 0.  0.
          4    1    3    3  502    0  0.50582927102E+03  0.13801400982E+03  0.51997807343E+03  0.73843639887E+03  0.00000000000E+00 0. -1.
         -3    1    3    3    0  502  0.98526221478E+03  0.15483980385E+03  0.10088806581E+04  0.14186462487E+04  0.00000000000E+00 0.  1.
         11    1    5    5    0    0 -0.10915915844E+03  0.26545300071E+00 -0.39082207623E+02  0.11594486314E+03  0.00000000000E+00 0. -1.
        -11    1    5    5    0    0 -0.40867968162E+03  0.18245445611E+03 -0.19799962751E+03  0.48940020762E+03  0.00000000000E+00 0.  1.
          3    1    6    6  503    0 -0.44666584141E+03 -0.18613632568E+03 -0.72242779622E+03  0.86951654750E+03  0.00000000000E+00 0. -1.
         -3    1    6    6    0  503 -0.52658680434E+03 -0.28943739709E+03 -0.10429515549E+04  0.12036675684E+04  0.00000000000E+00 0.  1.
<mgrwt>
<rscale>  0 0.48123635E+04</rscale>
<asrwt>0</asrwt>
<pdfrwt beam="1">  1        2 0.40840110E+00 0.48123635E+04</pdfrwt>
<pdfrwt beam="2">  1       -1 0.33553918E+00 0.48123635E+04</pdfrwt>
<totfact> 0.45965113E-02</totfact>
</mgrwt>
</event>
<event>
12    6  0.1402540E-007  0.1999575E+04  0.7818608E-02  0.8606819E-01
         -1   -1    0    0    0  501 -0.00000000000E+00  0.00000000000E+00  0.86709118222E+03  0.86709118222E+03  0.00000000000E+00 0.  1.
          2   -1    0    0  501    0  0.00000000000E+00 -0.00000000000E+00 -0.11527909965E+04  0.11527909965E+04  0.00000000000E+00 0. -1.
         24    2    1    2    0    0  0.22928311731E+03 -0.26765225913E+03  0.60536768654E+03  0.70534291947E+03  0.82644530635E+02 0.  0.
        254    2    1    2    0    0 -0.22928311731E+03  0.26765225913E+03 -0.89106750084E+03  0.13145392593E+04  0.89989093416E+03 0.  0.
         23    2    4    4    0    0  0.31826970456E+02  0.20614117408E+03  0.12526213379E+03  0.25956648238E+03  0.90426859448E+02 0.  0.
         23    2    4    4    0    0 -0.26111008777E+03  0.61511085044E+02 -0.10163296346E+04  0.10549727769E+04  0.89886273800E+02 0.  0.
          4    1    3    3  502    0  0.26752956043E+01 -0.42210459887E+02  0.74531008687E+02  0.85695690594E+02  0.00000000000E+00 0. -1.
         -3    1    3    3    0  502  0.22660782171E+03 -0.22544179924E+03  0.53083667785E+03  0.61964722888E+03  0.00000000000E+00 0.  1.
         11    1    5    5    0    0  0.29965384288E+02  0.20469526246E+03  0.13665206831E+03  0.24793519819E+03  0.00000000000E+00 0. -1.
        -11    1    5    5    0    0  0.18615861682E+01  0.14459116283E+01 -0.11389934519E+02  0.11631284187E+02  0.00000000000E+00 0.  1.
          3    1    6    6  503    0 -0.26088098084E+03  0.52753587296E+02 -0.90576103536E+03  0.94405766790E+03  0.00000000000E+00 0. -1.
         -3    1    6    6    0  503 -0.22910692656E+00  0.87574977483E+01 -0.11056859927E+03  0.11091510898E+03  0.00000000000E+00 0.  1.
<mgrwt>
<rscale>  0 0.19995749E+04</rscale>
<asrwt>0</asrwt>
<pdfrwt beam="1">  1        2 0.17735246E+00 0.19995749E+04</pdfrwt>
<pdfrwt beam="2">  1       -1 0.13339864E+00 0.19995749E+04</pdfrwt>
<totfact> 0.10176537E+01</totfact>
</mgrwt>
</event>
<event>
12    6  0.1402540E-007  0.1546745E+04  0.7818608E-02  0.8853950E-01
          2   -1    0    0  501    0  0.00000000000E+00  0.00000000000E+00  0.63571310304E+03  0.63571310304E+03  0.00000000000E+00 0. -1.
         -1   -1    0    0    0  501 -0.00000000000E+00 -0.00000000000E+00 -0.94084106230E+03  0.94084106230E+03  0.00000000000E+00 0.  1.
         24    2    1    2    0    0  0.88069998585E+02 -0.50008795027E+03 -0.10959063288E+03  0.52571071978E+03  0.80730238560E+02 0.  0.
        254    2    1    2    0    0 -0.88069998585E+02  0.50008795027E+03 -0.19553732638E+03  0.10508434456E+04  0.89899544960E+03 0.  0.
         23    2    4    4    0    0 -0.37625981220E+03 -0.41412841517E+02 -0.18285452187E+03  0.43028604760E+03  0.91781462559E+02 0.  0.
         23    2    4    4    0    0  0.28818981362E+03  0.54150079179E+03 -0.12682804515E+02  0.62055739796E+03  0.93027707957E+02 0.  0.
          2    1    3    3  502    0  0.82409499158E+02 -0.25938523831E+03 -0.76270475867E+02  0.28264679884E+03  0.00000000000E+00 0. -1.
         -1    1    3    3    0  502  0.56604994269E+01 -0.24070271196E+03 -0.33320157010E+02  0.24306392094E+03  0.00000000000E+00 0.  1.
         11    1    5    5    0    0 -0.26088420221E+03 -0.64503309018E+02 -0.10165283728E+03  0.28732306410E+03  0.00000000000E+00 0.  1.
        -11    1    5    5    0    0 -0.11537560999E+03  0.23090467501E+02 -0.81201684591E+02  0.14296298350E+03  0.00000000000E+00 0. -1.
          3    1    6    6  503    0  0.54074669734E+02  0.12008370090E+03  0.34589961191E+02  0.13616398402E+03  0.00000000000E+00 0. -1.
         -3    1    6    6    0  503  0.23411514388E+03  0.42141709089E+03 -0.47272765706E+02  0.48439341394E+03  0.00000000000E+00 0.  1.
<mgrwt>
<rscale>  0 0.15467450E+04</rscale>
<asrwt>0</asrwt>
<pdfrwt beam="1">  1        2 0.97802016E-01 0.15467450E+04</pdfrwt>
<pdfrwt beam="2">  1       -1 0.14474478E+00 0.15467450E+04</pdfrwt>
<totfact> 0.19515758E+01</totfact>
</mgrwt>
</event>
<event>
12    6  0.1402540E-007  0.1186766E+04  0.7818608E-02  0.9124520E-01
          2   -1    0    0  501    0  0.00000000000E+00  0.00000000000E+00  0.19468826329E+04  0.19468826329E+04  0.00000000000E+00 0. -1.
         -1   -1    0    0    0  501 -0.00000000000E+00 -0.00000000000E+00 -0.18085491793E+03  0.18085491793E+03  0.00000000000E+00 0.  1.
         24    2    1    2    0    0  0.12230367822E+03 -0.15022468459E+03  0.15363061647E+03  0.25972141347E+03  0.79543703276E+02 0.  0.
        254    2    1    2    0    0 -0.12230367822E+03  0.15022468459E+03  0.16123970985E+04  0.18680161374E+04  0.92311117459E+03 0.  0.
         23    2    4    4    0    0 -0.45460290087E+02  0.11867123704E+03  0.17016973839E+04  0.17088608411E+04  0.91004875241E+02 0.  0.
         23    2    4    4    0    0 -0.76843388129E+02  0.31553447550E+02 -0.89300285364E+02  0.15915529632E+03  0.10225136199E+03 0.  0.
          2    1    3    3  502    0  0.73570810860E+02 -0.87656536794E+02  0.13731961702E+03  0.17875404854E+03  0.00000000000E+00 0. -1.
         -1    1    3    3    0  502  0.48732867356E+02 -0.62568147796E+02  0.16310999453E+02  0.80967364923E+02  0.00000000000E+00 0.  1.
         11    1    5    5    0    0 -0.15046988434E+02  0.12405883588E+03  0.14132756629E+04  0.14187900148E+04  0.00000000000E+00 0. -1.
        -11    1    5    5    0    0 -0.30413301653E+02 -0.53875988406E+01  0.28842172099E+03  0.29007082631E+03  0.00000000000E+00 0.  1.
          3    1    6    6  503    0 -0.44785279289E+02 -0.20939420695E+02 -0.83936242884E+02  0.97413928416E+02  0.00000000000E+00 0. -1.
         -3    1    6    6    0  503 -0.32058108840E+02  0.52492868245E+02 -0.53640424803E+01  0.61741367904E+02  0.00000000000E+00 0.  1.
<mgrwt>
<rscale>  0 0.11867659E+04</rscale>
<asrwt>0</asrwt>
<pdfrwt beam="1">  1        2 0.29952039E+00 0.11867659E+04</pdfrwt>
<pdfrwt beam="2">  1       -1 0.27823835E-01 0.11867659E+04</pdfrwt>
<totfact> 0.93758513E+01</totfact>
</mgrwt>
</event>
<event>
12    6  0.1402540E-007  0.2076873E+04  0.7818608E-02  0.8571500E-01
          2   -1    0    0  501    0  0.00000000000E+00  0.00000000000E+00  0.63242950083E+03  0.63242950083E+03  0.00000000000E+00 0. -1.
         -1   -1    0    0    0  501 -0.00000000000E+00 -0.00000000000E+00 -0.17050912882E+04  0.17050912882E+04  0.00000000000E+00 0.  1.
         24    2    1    2    0    0  0.13409006090E+03 -0.82964870152E+03 -0.47634703542E+03  0.96935403696E+03  0.80272276961E+02 0.  0.
        254    2    1    2    0    0 -0.13409006090E+03  0.82964870152E+03 -0.59631475193E+03  0.13681667520E+04  0.89999548092E+03 0.  0.
         23    2    4    4    0    0  0.22603452362E+03 -0.51802989721E+02 -0.24682291582E+03  0.34987493851E+03  0.87839428527E+02 0.  0.
         23    2    4    4    0    0 -0.36012458453E+03  0.88145169124E+03 -0.34949183611E+03  0.10182918135E+04  0.90149174463E+02 0.  0.
          4    1    3    3  502    0  0.47087164090E+02 -0.24922164800E+03 -0.10293046841E+03  0.27372123078E+03  0.00000000000E+00 0. -1.
         -1    1    3    3    0  502  0.87002896812E+02 -0.58042705352E+03 -0.37341656701E+03  0.69563280618E+03  0.00000000000E+00 0.  1.
         11    1    5    5    0    0  0.78186030402E+02 -0.47083252944E+02 -0.14113582277E+03  0.16807500863E+03  0.00000000000E+00 0.  1.
        -11    1    5    5    0    0  0.14784849322E+03 -0.47197367769E+01 -0.10568709305E+03  0.18179992987E+03  0.00000000000E+00 0. -1.
          1    1    6    6  503    0 -0.94796594402E+02  0.14140577764E+03 -0.65016507287E+02  0.18223373584E+03  0.00000000000E+00 0. -1.
         -1    1    6    6    0  503 -0.26532799012E+03  0.74004591360E+03 -0.28447532882E+03  0.83605807770E+03  0.00000000000E+00 0.  1.
<mgrwt>
<rscale>  0 0.20768727E+04</rscale>
<asrwt>0</asrwt>
<pdfrwt beam="1">  1        2 0.97296849E-01 0.20768727E+04</pdfrwt>
<pdfrwt beam="2">  1       -1 0.26232173E+00 0.20768727E+04</pdfrwt>
<totfact> 0.28414156E+00</totfact>
</mgrwt>
</event>
<event>
12    6  0.1402540E-007  0.2940032E+04  0.7818608E-02  0.8261065E-01
          2   -1    0    0  501    0  0.00000000000E+00  0.00000000000E+00  0.20620354456E+04  0.20620354456E+04  0.00000000000E+00 0. -1.
         -1   -1    0    0    0  501 -0.00000000000E+00 -0.00000000000E+00 -0.10479682786E+04  0.10479682786E+04  0.00000000000E+00 0.  1.
         24    2    1    2    0    0 -0.40430310929E+03  0.12317010667E+04  0.14057077278E+03  0.13063991961E+04  0.79813505808E+02 0.  0.
        254    2    1    2    0    0  0.40430310929E+03 -0.12317010667E+04  0.87349639418E+03  0.18036045280E+04  0.89969151434E+03 0.  0.
         23    2    4    4    0    0  0.41063920271E+03 -0.11993925832E+04  0.41797175956E+03  0.13375763830E+04  0.85106199567E+02 0.  0.
         23    2    4    4    0    0 -0.63360934274E+01 -0.32308483455E+02  0.45552463461E+03  0.46602814496E+03  0.92712215870E+02 0.  0.
          2    1    3    3  502    0 -0.28630739745E+03  0.78747762657E+03  0.11843876849E+03  0.84623913882E+03  0.00000000000E+00 0. -1.
         -1    1    3    3    0  502 -0.11799571184E+03  0.44422344010E+03  0.22132004297E+02  0.46016005733E+03  0.00000000000E+00 0.  1.
         11    1    5    5    0    0  0.12826506753E+02 -0.89638292747E+02  0.15511776865E+02  0.91870332663E+02  0.00000000000E+00 0. -1.
        -11    1    5    5    0    0  0.39781269596E+03 -0.11097542905E+04  0.40245998270E+03  0.12457060504E+04  0.00000000000E+00 0.  1.
          3    1    6    6  503    0  0.40299846179E+02  0.18959838507E+01  0.17254385910E+03  0.17719778686E+03  0.00000000000E+00 0. -1.
         -3    1    6    6    0  503 -0.46635939606E+02 -0.34204467306E+02  0.28298077552E+03  0.28883035810E+03  0.00000000000E+00 0.  1.
<mgrwt>
<rscale>  0 0.29400325E+04</rscale>
<asrwt>0</asrwt>
<pdfrwt beam="1">  1        2 0.31723622E+00 0.29400325E+04</pdfrwt>
<pdfrwt beam="2">  1       -1 0.16122589E+00 0.29400325E+04</pdfrwt>
<totfact> 0.17269216E+00</totfact>
</mgrwt>
</event>
<event>
12    6  0.1402540E-007  0.2881979E+04  0.7818608E-02  0.8278260E-01
         -1   -1    0    0    0  501 -0.00000000000E+00  0.00000000000E+00  0.15177394088E+04  0.15177394088E+04  0.00000000000E+00 0.  1.
          2   -1    0    0  501    0  0.00000000000E+00 -0.00000000000E+00 -0.13681207302E+04  0.13681207302E+04  0.00000000000E+00 0. -1.
         24    2    1    2    0    0  0.90133775633E+03  0.35791010217E+03 -0.79911219194E+03  0.12592347274E+04  0.81132059834E+02 0.  0.
        254    2    1    2    0    0 -0.90133775633E+03 -0.35791010217E+03  0.94873087049E+03  0.16266254116E+04  0.89739098105E+03 0.  0.
         23    2    4    4    0    0 -0.81910911882E+03 -0.34349729445E+02  0.97792180079E+03  0.12795615905E+04  0.93952983024E+02 0.  0.
         23    2    4    4    0    0 -0.82228637511E+02 -0.32356037272E+03 -0.29190930300E+02  0.34706382110E+03  0.90268055684E+02 0.  0.
          2    1    3    3  502    0  0.18794940809E+03  0.86648552404E+02 -0.21244528717E+03  0.29659054549E+03  0.00000000000E+00 0. -1.
         -1    1    3    3    0  502  0.71338834824E+03  0.27126154976E+03 -0.58666690477E+03  0.96264418190E+03  0.00000000000E+00 0.  1.
         11    1    5    5    0    0 -0.63066544799E+03 -0.34905087679E+02  0.68991256868E+03  0.93538047064E+03  0.00000000000E+00 0.  1.
        -11    1    5    5    0    0 -0.18844367083E+03  0.55535823452E+00  0.28800923211E+03  0.34418111988E+03  0.00000000000E+00 0. -1.
          2    1    6    6  503    0 -0.52513865572E+02 -0.16321036945E+03  0.29053327722E+02  0.17389487234E+03  0.00000000000E+00 0. -1.
         -2    1    6    6    0  503 -0.29714771938E+02 -0.16035000327E+03 -0.58244258022E+02  0.17316894875E+03  0.00000000000E+00 0.  1.
<mgrwt>
<rscale>  0 0.28819790E+04</rscale>
<asrwt>0</asrwt>
<pdfrwt beam="1">  1        2 0.21048011E+00 0.28819790E+04</pdfrwt>
<pdfrwt beam="2">  1       -1 0.23349837E+00 0.28819790E+04</pdfrwt>
<totfact> 0.13297442E+00</totfact>
</mgrwt>
</event>
<event>
12    6  0.1402540E-007  0.2085001E+04  0.7818608E-02  0.8567880E-01
          2   -1    0    0  501    0  0.00000000000E+00  0.00000000000E+00  0.19310498287E+04  0.19310498287E+04  0.00000000000E+00 0. -1.
         -1   -1    0    0    0  501 -0.00000000000E+00 -0.00000000000E+00 -0.56280639945E+03  0.56280639945E+03  0.00000000000E+00 0.  1.
         24    2    1    2    0    0 -0.97038486251E+02 -0.68430363773E+03  0.11416782837E+04  0.13369125565E+04  0.78853940587E+02 0.  0.
        254    2    1    2    0    0  0.97038486251E+02  0.68430363773E+03  0.22656514552E+03  0.11569436716E+04  0.89972160005E+03 0.  0.
         23    2    4    4    0    0 -0.93373877789E+01  0.64853559390E+03  0.51609526272E+03  0.83385529556E+03  0.90965544878E+02 0.  0.
         23    2    4    4    0    0  0.10637587403E+03  0.35768043825E+02 -0.28953011720E+03  0.32308837601E+03  0.89236934113E+02 0.  0.
          2    1    3    3  502    0 -0.38021274410E+02 -0.44834898364E+03  0.79342816951E+03  0.91213523592E+03  0.00000000000E+00 0. -1.
         -1    1    3    3    0  502 -0.59017211841E+02 -0.23595465409E+03  0.34825011418E+03  0.42477732062E+03  0.00000000000E+00 0.  1.
         11    1    5    5    0    0  0.23839036354E+02  0.14505678819E+03  0.15332194486E+03  0.21240854556E+03  0.00000000000E+00 0.  1.
        -11    1    5    5    0    0 -0.33176424132E+02  0.50347880572E+03  0.36277331787E+03  0.62144675000E+03  0.00000000000E+00 0. -1.
          2    1    6    6  503    0  0.10090855513E+03  0.41652595105E+02 -0.29419725721E+03  0.31379850434E+03  0.00000000000E+00 0. -1.
         -2    1    6    6    0  503  0.54673189001E+01 -0.58845512794E+01  0.46671400082E+01  0.92898716661E+01  0.00000000000E+00 0.  1.
<mgrwt>
<rscale>  0 0.20850009E+04</rscale>
<asrwt>0</asrwt>
<pdfrwt beam="1">  1        2 0.29708458E+00 0.20850009E+04</pdfrwt>
<pdfrwt beam="2">  1       -1 0.86585601E-01 0.20850009E+04</pdfrwt>
<totfact> 0.10080990E+01</totfact>
</mgrwt>
</event>
<event>
12    6  0.1402540E-007  0.3170216E+04  0.7818608E-02  0.8196728E-01
         -1   -1    0    0    0  501 -0.00000000000E+00  0.00000000000E+00  0.13671871583E+04  0.13671871583E+04  0.00000000000E+00 0.  1.
          2   -1    0    0  501    0  0.00000000000E+00 -0.00000000000E+00 -0.18377639140E+04  0.18377639140E+04  0.00000000000E+00 0. -1.
         24    2    1    2    0    0  0.38915444297E+03  0.94906650015E+03  0.82944626761E+03  0.13215921938E+04  0.80351812049E+02 0.  0.
        254    2    1    2    0    0 -0.38915444297E+03 -0.94906650015E+03 -0.13000230234E+04  0.18833588785E+04  0.89711337179E+03 0.  0.
         23    2    4    4    0    0 -0.60520090999E+03 -0.72341472395E+03 -0.12263689193E+04  0.15496798187E+04  0.89049480642E+02 0.  0.
         23    2    4    4    0    0  0.21604646702E+03 -0.22565177621E+03 -0.73654104031E+02  0.33367905979E+03  0.91224930173E+02 0.  0.
          2    1    3    3  502    0  0.13641780432E+03  0.23929818583E+03  0.22573259741E+03  0.35613009506E+03  0.00000000000E+00 0. -1.
         -1    1    3    3    0  502  0.25273663864E+03  0.70976831432E+03  0.60371367019E+03  0.96546209874E+03  0.00000000000E+00 0.  1.
         11    1    5    5    0    0 -0.33204904008E+03 -0.42531059887E+03 -0.63477495867E+03  0.83311758995E+03  0.00000000000E+00 0. -1.
        -11    1    5    5    0    0 -0.27315186991E+03 -0.29810412507E+03 -0.59159396067E+03  0.71656222878E+03  0.00000000000E+00 0.  1.
          2    1    6    6  503    0  0.16661249526E+02  0.42086266112E+01 -0.16982457991E+02  0.24160166662E+02  0.00000000000E+00 0. -1.
         -2    1    6    6    0  503  0.19938521749E+03 -0.22986040282E+03 -0.56671646040E+02  0.30951889313E+03  0.00000000000E+00 0.  1.
<mgrwt>
<rscale>  0 0.31702159E+04</rscale>
<asrwt>0</asrwt>
<pdfrwt beam="1">  1        2 0.28273291E+00 0.31702159E+04</pdfrwt>
<pdfrwt beam="2">  1       -1 0.21033649E+00 0.31702159E+04</pdfrwt>
<totfact> 0.10099676E+00</totfact>
</mgrwt>
</event>
<event>
12    6  0.1402540E-007  0.4873112E+04  0.7818608E-02  0.7848385E-01
         -3   -1    0    0    0  501 -0.00000000000E+00  0.00000000000E+00  0.27115454565E+04  0.27115454565E+04  0.00000000000E+00 0.  1.
          2   -1    0    0  501    0  0.00000000000E+00 -0.00000000000E+00 -0.21894547491E+04  0.21894547491E+04  0.00000000000E+00 0. -1.
         24    2    1    2    0    0  0.18660774369E+04  0.37035852642E+03 -0.11398196864E+04  0.22192603639E+04  0.80729217967E+02 0.  0.
        254    2    1    2    0    0 -0.18660774369E+04 -0.37035852642E+03  0.16619103938E+04  0.26817398417E+04  0.90020663333E+03 0.  0.
         23    2    4    4    0    0 -0.12375502737E+04 -0.55118074274E+03  0.14541790799E+04  0.19895730422E+04  0.91832470134E+02 0.  0.
         23    2    4    4    0    0 -0.62852716317E+03  0.18082221631E+03  0.20773131396E+03  0.69216679952E+03  0.90551150160E+02 0.  0.
          4    1    3    3  502    0  0.54415350077E+03  0.79469031508E+02 -0.30200478943E+03  0.62739561061E+03  0.00000000000E+00 0. -1.
         -3    1    3    3    0  502  0.13219239361E+04  0.29088949492E+03 -0.83781489701E+03  0.15918647533E+04  0.00000000000E+00 0.  1.
         11    1    5    5    0    0 -0.19588083070E+02 -0.99938275866E+01  0.93188321811E+01  0.23883262369E+02  0.00000000000E+00 0. -1.
        -11    1    5    5    0    0 -0.12179621906E+04 -0.54118691515E+03  0.14448602477E+04  0.19656897798E+04  0.00000000000E+00 0.  1.
          1    1    6    6  503    0 -0.43960357533E+02  0.35782289913E+02  0.60457378792E+01  0.57003826646E+02  0.00000000000E+00 0. -1.
         -1    1    6    6    0  503 -0.58456680564E+03  0.14503992640E+03  0.20168557608E+03  0.63516297287E+03  0.00000000000E+00 0.  1.
<mgrwt>
<rscale>  0 0.48731124E+04</rscale>
<asrwt>0</asrwt>
<pdfrwt beam="1">  1        2 0.33683919E+00 0.48731124E+04</pdfrwt>
<pdfrwt beam="2">  1       -3 0.41716084E+00 0.48731124E+04</pdfrwt>
<totfact> 0.20534139E-02</totfact>
</mgrwt>
</event>
<event>
12    6  0.1402540E-007  0.1815467E+04  0.7818608E-02  0.8698117E-01
          2   -1    0    0  501    0  0.00000000000E+00  0.00000000000E+00  0.17042653193E+04  0.17042653193E+04  0.00000000000E+00 0. -1.
         -1   -1    0    0    0  501 -0.00000000000E+00 -0.00000000000E+00 -0.48348108404E+03  0.48348108404E+03  0.00000000000E+00 0.  1.
         24    2    1    2    0    0  0.62913444418E+02  0.60216364428E+03  0.82782583354E+02  0.61635300919E+03  0.80491737807E+02 0.  0.
        254    2    1    2    0    0 -0.62913444418E+02 -0.60216364428E+03  0.11380016520E+04  0.15713933942E+04  0.89870478105E+03 0.  0.
         23    2    4    4    0    0 -0.23965981657E+03 -0.71818545215E+03  0.54953744619E+03  0.94019571210E+03  0.93538232432E+02 0.  0.
         23    2    4    4    0    0  0.17674637216E+03  0.11602180787E+03  0.58846420576E+03  0.63119768209E+03  0.86139726296E+02 0.  0.
          4    1    3    3  502    0  0.79078133189E+02  0.43660061623E+03  0.73437075718E+02  0.44974042884E+03  0.00000000000E+00 0. -1.
         -3    1    3    3    0  502 -0.16164688772E+02  0.16556302804E+03  0.93455076356E+01  0.16661258035E+03  0.00000000000E+00 0.  1.
         11    1    5    5    0    0 -0.16075761703E+02 -0.14533529405E+03  0.81468475448E+02  0.16738545428E+03  0.00000000000E+00 0.  1.
        -11    1    5    5    0    0 -0.22358405487E+03 -0.57285015809E+03  0.46806897075E+03  0.77281025782E+03  0.00000000000E+00 0. -1.
          3    1    6    6  503    0  0.17556794149E+03  0.12611723646E+03  0.53964328682E+03  0.58132997206E+03  0.00000000000E+00 0. -1.
         -3    1    6    6    0  503  0.11784306668E+01 -0.10095428589E+02  0.48820918943E+02  0.49867710031E+02  0.00000000000E+00 0.  1.
<mgrwt>
<rscale>  0 0.18154669E+04</rscale>
<asrwt>0</asrwt>
<pdfrwt beam="1">  1        2 0.26219466E+00 0.18154669E+04</pdfrwt>
<pdfrwt beam="2">  1       -1 0.74381706E-01 0.18154669E+04</pdfrwt>
<totfact> 0.19055822E+01</totfact>
</mgrwt>
</event>
<event>
12    6  0.1402540E-007  0.2037463E+04  0.7818608E-02  0.8589303E-01
          2   -1    0    0  501    0  0.00000000000E+00  0.00000000000E+00  0.26489979526E+04  0.26489979526E+04  0.00000000000E+00 0. -1.
         -1   -1    0    0    0  501 -0.00000000000E+00 -0.00000000000E+00 -0.39177608527E+03  0.39177608527E+03  0.00000000000E+00 0.  1.
         24    2    1    2    0    0 -0.11734707324E+03  0.72535181406E+03  0.14542508261E+04  0.16312730941E+04  0.79377910403E+02 0.  0.
        254    2    1    2    0    0  0.11734707324E+03 -0.72535181406E+03  0.80297104128E+03  0.14095009438E+04  0.89555838872E+03 0.  0.
         23    2    4    4    0    0  0.14158506920E+03  0.24306288927E+02 -0.12651558859E+03  0.21178036767E+03  0.90595819303E+02 0.  0.
         23    2    4    4    0    0 -0.24237995957E+02 -0.74965810299E+03  0.92948662986E+03  0.11977205761E+04  0.89523357287E+02 0.  0.
          4    1    3    3  502    0 -0.81730270107E+02  0.56634666882E+03  0.11973307052E+04  0.13270377553E+04  0.00000000000E+00 0. -1.
         -3    1    3    3    0  502 -0.35616803135E+02  0.15900514524E+03  0.25692012087E+03  0.30423533882E+03  0.00000000000E+00 0.  1.
         11    1    5    5    0    0  0.81757319498E+01  0.54224868134E+01  0.14005056588E+02  0.17099344028E+02  0.00000000000E+00 0. -1.
        -11    1    5    5    0    0  0.13340933725E+03  0.18883802114E+02 -0.14052064517E+03  0.19468102365E+03  0.00000000000E+00 0.  1.
          3    1    6    6  503    0 -0.19103580807E+02 -0.33896728818E+02  0.37362316143E+02  0.53943282175E+02  0.00000000000E+00 0. -1.
         -3    1    6    6    0  503 -0.51344151499E+01 -0.71576137417E+03  0.89212431372E+03  0.11437772939E+04  0.00000000000E+00 0.  1.
<mgrwt>
<rscale>  0 0.20374632E+04</rscale>
<asrwt>0</asrwt>
<pdfrwt beam="1">  1        2 0.40753814E+00 0.20374632E+04</pdfrwt>
<pdfrwt beam="2">  1       -1 0.60273246E-01 0.20374632E+04</pdfrwt>
<totfact> 0.83860550E+00</totfact>
</mgrwt>
</event>
<event>
12    6  0.1402540E-007  0.1921641E+04  0.7818608E-02  0.8644159E-01
         -1   -1    0    0    0  501 -0.00000000000E+00  0.00000000000E+00  0.57079118173E+03  0.57079118173E+03  0.00000000000E+00 0.  1.
          2   -1    0    0  501    0  0.00000000000E+00 -0.00000000000E+00 -0.16173623401E+04  0.16173623401E+04  0.00000000000E+00 0. -1.
         24    2    1    2    0    0  0.57253221384E+03 -0.26403652217E+03  0.48340124954E+02  0.63731669295E+03  0.79544820718E+02 0.  0.
        254    2    1    2    0    0 -0.57253221384E+03  0.26403652217E+03 -0.10949112833E+04  0.15508368289E+04  0.89930847353E+03 0.  0.
         23    2    4    4    0    0 -0.21935012380E+03 -0.23674675283E+03 -0.79361836282E+03  0.86154884094E+03  0.90954921429E+02 0.  0.
         23    2    4    4    0    0 -0.35318209004E+03  0.50078327500E+03 -0.30129292053E+03  0.68928798797E+03  0.93909686140E+02 0.  0.
          2    1    3    3  502    0  0.18389062860E+03 -0.11748817402E+03 -0.67672822880E+01  0.21832322468E+03  0.00000000000E+00 0. -1.
         -1    1    3    3    0  502  0.38864158524E+03 -0.14654834815E+03  0.55107407242E+02  0.41899346827E+03  0.00000000000E+00 0.  1.
         11    1    5    5    0    0 -0.20924507103E+03 -0.24484797421E+03 -0.76920642917E+03  0.83391400090E+03  0.00000000000E+00 0. -1.
        -11    1    5    5    0    0 -0.10105052774E+02  0.81012213787E+01 -0.24411933649E+02  0.27634840037E+02  0.00000000000E+00 0.  1.
          4    1    6    6  503    0 -0.20800788541E+03  0.36237386517E+03 -0.18056221259E+03  0.45517558279E+03  0.00000000000E+00 0. -1.
         -4    1    6    6    0  503 -0.14517420463E+03  0.13840940983E+03 -0.12073070794E+03  0.23411240518E+03  0.00000000000E+00 0.  1.
<mgrwt>
<rscale>  0 0.19216411E+04</rscale>
<asrwt>0</asrwt>
<pdfrwt beam="1">  1        2 0.24882497E+00 0.19216411E+04</pdfrwt>
<pdfrwt beam="2">  1       -1 0.87814030E-01 0.19216411E+04</pdfrwt>
<totfact> 0.14809962E+01</totfact>
</mgrwt>
</event>
<event>
12    6  0.1402540E-007  0.3113568E+04  0.7818608E-02  0.8212024E-01
         -1   -1    0    0    0  501 -0.00000000000E+00  0.00000000000E+00  0.14269579876E+04  0.14269579876E+04  0.00000000000E+00 0.  1.
          2   -1    0    0  501    0  0.00000000000E+00 -0.00000000000E+00 -0.16984219626E+04  0.16984219626E+04  0.00000000000E+00 0. -1.
         24    2    1    2    0    0  0.41233062071E+03  0.60449206657E+03  0.11037726293E+04  0.13266723113E+04  0.79487137057E+02 0.  0.
        254    2    1    2    0    0 -0.41233062071E+03 -0.60449206657E+03 -0.13752366043E+04  0.17987076389E+04  0.89924760385E+03 0.  0.
         23    2    4    4    0    0 -0.18335356037E+03 -0.34270581833E+02  0.73979970533E+02  0.22187882367E+03  0.94679329707E+02 0.  0.
         23    2    4    4    0    0 -0.22897706034E+03 -0.57022148474E+03 -0.14492165749E+04  0.15768288152E+04  0.92614231497E+02 0.  0.
          2    1    3    3  502    0  0.37298450789E+03  0.56608681913E+03  0.98441162283E+03  0.11952564466E+04  0.00000000000E+00 0. -1.
         -1    1    3    3    0  502  0.39346112822E+02  0.38405247444E+02  0.11936100652E+03  0.13141586473E+03  0.00000000000E+00 0.  1.
         11    1    5    5    0    0 -0.57441702128E+02 -0.30690546123E+02  0.70344706237E+02  0.95863634712E+02  0.00000000000E+00 0. -1.
        -11    1    5    5    0    0 -0.12591185824E+03 -0.35800357102E+01  0.36352642964E+01  0.12601518896E+03  0.00000000000E+00 0.  1.
          4    1    6    6  503    0 -0.18537818484E+03 -0.52193096722E+03 -0.12488385063E+04  0.13661532201E+04  0.00000000000E+00 0.  1.
         -4    1    6    6    0  503 -0.43598875497E+02 -0.48290517521E+02 -0.20037806853E+03  0.21067559511E+03  0.00000000000E+00 0. -1.
<mgrwt>
<rscale>  0 0.31135682E+04</rscale>
<asrwt>0</asrwt>
<pdfrwt beam="1">  1        2 0.26129569E+00 0.31135682E+04</pdfrwt>
<pdfrwt beam="2">  1       -1 0.21953200E+00 0.31135682E+04</pdfrwt>
<totfact> 0.10514505E+00</totfact>
</mgrwt>
</event>
<event>
12    6  0.1402540E-007  0.2244356E+04  0.7818608E-02  0.8500190E-01
          2   -1    0    0  501    0  0.00000000000E+00  0.00000000000E+00  0.19937512452E+04  0.19937512452E+04  0.00000000000E+00 0. -1.
         -1   -1    0    0    0  501 -0.00000000000E+00 -0.00000000000E+00 -0.63161540600E+03  0.63161540600E+03  0.00000000000E+00 0.  1.
         24    2    1    2    0    0 -0.79830104861E+03 -0.22762752121E+03  0.10880788032E+04  0.13709061261E+04  0.79807718729E+02 0.  0.
        254    2    1    2    0    0  0.79830104861E+03  0.22762752121E+03  0.27405703593E+03  0.12544605250E+04  0.89970278277E+03 0.  0.
         23    2    4    4    0    0 -0.13586475728E+03  0.46101141742E+02  0.24482926284E+03  0.29794083685E+03  0.90790014757E+02 0.  0.
         23    2    4    4    0    0  0.93416580588E+03  0.18152637947E+03  0.29227773091E+02  0.95651968820E+03  0.91967776219E+02 0.  0.
          4    1    3    3  502    0 -0.50613860371E+03 -0.12638861104E+03  0.62540091577E+03  0.81441799624E+03  0.00000000000E+00 0. -1.
         -3    1    3    3    0  502 -0.29216244489E+03 -0.10123891018E+03  0.46267788747E+03  0.55648812988E+03  0.00000000000E+00 0.  1.
         11    1    5    5    0    0  0.12270727140E+02  0.95599436268E+01  0.12332926161E+02  0.19851053735E+02  0.00000000000E+00 0.  1.
        -11    1    5    5    0    0 -0.14813548442E+03  0.36541198115E+02  0.23249633668E+03  0.27808978311E+03  0.00000000000E+00 0. -1.
          3    1    6    6  503    0  0.71754737000E+03  0.15176403711E+03  0.59269467171E+02  0.73581208259E+03  0.00000000000E+00 0. -1.
         -3    1    6    6    0  503  0.21661843588E+03  0.29762342362E+02 -0.30041694081E+02  0.22070760560E+03  0.00000000000E+00 0.  1.
<mgrwt>
<rscale>  0 0.22443565E+04</rscale>
<asrwt>0</asrwt>
<pdfrwt beam="1">  1        2 0.30673096E+00 0.22443565E+04</pdfrwt>
<pdfrwt beam="2">  1       -1 0.97171602E-01 0.22443565E+04</pdfrwt>
<totfact> 0.71029586E+00</totfact>
</mgrwt>
</event>
<event>
12    6  0.1402540E-007  0.2221992E+04  0.7818608E-02  0.8509330E-01
         -1   -1    0    0    0  501 -0.00000000000E+00  0.00000000000E+00  0.57036814340E+03  0.57036814340E+03  0.00000000000E+00 0.  1.
          2   -1    0    0  501    0  0.00000000000E+00 -0.00000000000E+00 -0.21640624643E+04  0.21640624643E+04  0.00000000000E+00 0. -1.
         24    2    1    2    0    0 -0.89997268430E+03  0.11886198574E+03 -0.43950859021E+03  0.10117658421E+04  0.80145581324E+02 0.  0.
        254    2    1    2    0    0  0.89997268430E+03 -0.11886198574E+03 -0.11541857307E+04  0.17226647657E+04  0.90074979303E+03 0.  0.
         23    2    4    4    0    0 -0.16517310331E+03  0.47794447863E+02 -0.21617317214E+03  0.29062696283E+03  0.90369950009E+02 0.  0.
         23    2    4    4    0    0  0.10651457876E+04 -0.16665643361E+03 -0.93801255860E+03  0.14320378028E+04  0.92492123481E+02 0.  0.
          4    1    3    3  502    0 -0.44409020305E+03  0.34726709831E+02 -0.25123996985E+03  0.51141331158E+03  0.00000000000E+00 0. -1.
         -3    1    3    3    0  502 -0.45588248126E+03  0.84135275911E+02 -0.18826862036E+03  0.50035253050E+03  0.00000000000E+00 0.  1.
         11    1    5    5    0    0 -0.16671491636E+03  0.63529419745E+02 -0.19996228648E+03  0.26798277281E+03  0.00000000000E+00 0. -1.
        -11    1    5    5    0    0  0.15418130463E+01 -0.15734971881E+02 -0.16210885665E+02  0.22644190019E+02  0.00000000000E+00 0.  1.
          2    1    6    6  503    0  0.29654612050E+03 -0.63628490342E+02 -0.21472899453E+03  0.37161368039E+03  0.00000000000E+00 0.  1.
         -2    1    6    6    0  503  0.76859966712E+03 -0.10302794326E+03 -0.72328356407E+03  0.10604241224E+04  0.00000000000E+00 0. -1.
<mgrwt>
<rscale>  0 0.22219922E+04</rscale>
<asrwt>0</asrwt>
<pdfrwt beam="1">  1        2 0.33293269E+00 0.22219922E+04</pdfrwt>
<pdfrwt beam="2">  1       -1 0.87748945E-01 0.22219922E+04</pdfrwt>
<totfact> 0.71737292E+00</totfact>
</mgrwt>
</event>
<event>
12    6  0.1402540E-007  0.2675270E+04  0.7818608E-02  0.8343074E-01
          2   -1    0    0  501    0  0.00000000000E+00  0.00000000000E+00  0.29571420570E+04  0.29571420570E+04  0.00000000000E+00 0. -1.
         -1   -1    0    0    0  501 -0.00000000000E+00 -0.00000000000E+00 -0.60506656101E+03  0.60506656101E+03  0.00000000000E+00 0.  1.
         24    2    1    2    0    0 -0.10416338687E+03 -0.63129195008E+03 -0.28254441652E+03  0.70479409531E+03  0.86740025810E+02 0.  0.
        254    2    1    2    0    0  0.10416338687E+03  0.63129195008E+03  0.26346199125E+04  0.28574145227E+04  0.90233925644E+03 0.  0.
         23    2    4    4    0    0 -0.31911199588E+03  0.44890005206E+03  0.89042892202E+03  0.10510434841E+04  0.92114155927E+02 0.  0.
         23    2    4    4    0    0  0.42327538275E+03  0.18239189802E+03  0.17441909905E+04  0.18063710385E+04  0.91352413908E+02 0.  0.
          4    1    3    3  502    0  0.10595505707E+02 -0.19521096735E+02 -0.28275331281E+01  0.22390464544E+02  0.00000000000E+00 0. -1.
         -3    1    3    3    0  502 -0.11475889258E+03 -0.61177085335E+03 -0.27971688339E+03  0.68240363077E+03  0.00000000000E+00 0.  1.
         11    1    5    5    0    0 -0.26299559433E+03  0.40533896991E+03  0.72796897720E+03  0.87373061920E+03  0.00000000000E+00 0. -1.
        -11    1    5    5    0    0 -0.56116401556E+02  0.43561082155E+02  0.16245994482E+03  0.17731286494E+03  0.00000000000E+00 0.  1.
          3    1    6    6  503    0  0.38445559485E+03  0.15849926349E+03  0.16518805110E+04  0.17034193094E+04  0.00000000000E+00 0. -1.
         -3    1    6    6    0  503  0.38819787900E+02  0.23892634535E+02  0.92310479494E+02  0.10295172918E+03  0.00000000000E+00 0.  1.
<mgrwt>
<rscale>  0 0.26752703E+04</rscale>
<asrwt>0</asrwt>
<pdfrwt beam="1">  1        2 0.45494492E+00 0.26752703E+04</pdfrwt>
<pdfrwt beam="2">  1       -1 0.93087165E-01 0.26752703E+04</pdfrwt>
<totfact> 0.20735802E+00</totfact>
</mgrwt>
</event>
<event>
12    6  0.1402540E-007  0.1702295E+04  0.7818608E-02  0.8760057E-01
         -1   -1    0    0    0  501 -0.00000000000E+00  0.00000000000E+00  0.76674564945E+03  0.76674564945E+03  0.00000000000E+00 0.  1.
          2   -1    0    0  501    0  0.00000000000E+00 -0.00000000000E+00 -0.94483977323E+03  0.94483977323E+03  0.00000000000E+00 0. -1.
         24    2    1    2    0    0 -0.43704932764E+03  0.11906763911E+03 -0.47450174738E+03  0.66018921912E+03  0.74220477636E+02 0.  0.
        254    2    1    2    0    0  0.43704932764E+03 -0.11906763911E+03  0.29640762361E+03  0.10513962036E+04  0.90132529092E+03 0.  0.
         23    2    4    4    0    0  0.15997838477E+03 -0.21069968209E+03  0.57402522551E+03  0.63835777025E+03  0.89488790847E+02 0.  0.
         23    2    4    4    0    0  0.27707094287E+03  0.91632042979E+02 -0.27761760191E+03  0.41303843331E+03  0.91457508260E+02 0.  0.
          2    1    3    3  502    0 -0.37147132576E+03  0.12717769996E+03 -0.41434370829E+03  0.57082906533E+03  0.00000000000E+00 0. -1.
         -1    1    3    3    0  502 -0.65578001882E+02 -0.81100608493E+01 -0.60158039090E+02  0.89360153787E+02  0.00000000000E+00 0.  1.
         11    1    5    5    0    0  0.15868636312E+03 -0.21715767993E+03  0.57086837663E+03  0.63105429499E+03  0.00000000000E+00 0. -1.
        -11    1    5    5    0    0  0.12920216467E+01  0.64579978348E+01  0.31568488818E+01  0.73034752572E+01  0.00000000000E+00 0.  1.
          3    1    6    6  503    0  0.21899449001E+03  0.32930992488E+02 -0.22137245746E+03  0.31312745303E+03  0.00000000000E+00 0. -1.
         -3    1    6    6    0  503  0.58076452862E+02  0.58701050491E+02 -0.56245144444E+02  0.99910980274E+02  0.00000000000E+00 0.  1.
<mgrwt>
<rscale>  0 0.17022947E+04</rscale>
<asrwt>0</asrwt>
<pdfrwt beam="1">  1        2 0.14535996E+00 0.17022947E+04</pdfrwt>
<pdfrwt beam="2">  1       -1 0.11796087E+00 0.17022947E+04</pdfrwt>
<totfact> 0.19180675E+01</totfact>
</mgrwt>
</event>
<event>
12    6  0.1402540E-007  0.3000923E+04  0.7818608E-02  0.8243467E-01
         -1   -1    0    0    0  501 -0.00000000000E+00  0.00000000000E+00  0.84772548377E+03  0.84772548377E+03  0.00000000000E+00 0.  1.
          2   -1    0    0  501    0  0.00000000000E+00 -0.00000000000E+00 -0.26557952475E+04  0.26557952475E+04  0.00000000000E+00 0. -1.
         24    2    1    2    0    0 -0.14358589783E+03 -0.56662066453E+03  0.61574114620E+03  0.85276599030E+03  0.79979919739E+02 0.  0.
        254    2    1    2    0    0  0.14358589783E+03  0.56662066453E+03 -0.24238109100E+04  0.26507547410E+04  0.89998082319E+03 0.  0.
         23    2    4    4    0    0 -0.17002115667E+03  0.10274091414E+03 -0.68545658796E+02  0.22834512194E+03  0.89331395493E+02 0.  0.
         23    2    4    4    0    0  0.31360705450E+03  0.46387975039E+03 -0.23552652512E+04  0.24224096190E+04  0.85206523570E+02 0.  0.
          4    1    3    3  502    0 -0.55477086842E+02 -0.23469032958E+03  0.19834055324E+03  0.31224386787E+03  0.00000000000E+00 0. -1.
         -3    1    3    3    0  502 -0.88108810984E+02 -0.33193033496E+03  0.41740059296E+03  0.54052212244E+03  0.00000000000E+00 0.  1.
         11    1    5    5    0    0 -0.14465212284E+03  0.87522163872E+02 -0.90253996730E+02  0.19165111462E+03  0.00000000000E+00 0. -1.
        -11    1    5    5    0    0 -0.25369033837E+02  0.15218750267E+02  0.21708337933E+02  0.36694007322E+02  0.00000000000E+00 0.  1.
          1    1    6    6  503    0  0.27027409181E+03  0.33597248253E+03 -0.18167866742E+04  0.18672545122E+04  0.00000000000E+00 0. -1.
         -1    1    6    6    0  503  0.43332962692E+02  0.12790726787E+03 -0.53847857692E+03  0.55515510682E+03  0.00000000000E+00 0.  1.
<mgrwt>
<rscale>  0 0.30009234E+04</rscale>
<asrwt>0</asrwt>
<pdfrwt beam="1">  1        2 0.40858388E+00 0.30009234E+04</pdfrwt>
<pdfrwt beam="2">  1       -1 0.13041931E+00 0.30009234E+04</pdfrwt>
<totfact> 0.13799217E+00</totfact>
</mgrwt>
</event>
<event>
12    6  0.1402540E-007  0.2516719E+04  0.7818608E-02  0.8397053E-01
         -1   -1    0    0    0  501 -0.00000000000E+00  0.00000000000E+00  0.66280703473E+03  0.66280703473E+03  0.00000000000E+00 0.  1.
          2   -1    0    0  501    0  0.00000000000E+00 -0.00000000000E+00 -0.23890340030E+04  0.23890340030E+04  0.00000000000E+00 0. -1.
         24    2    1    2    0    0  0.41087254512E+03  0.10152006768E+04 -0.79620839094E+03  0.13562610513E+04  0.77766156067E+02 0.  0.
        254    2    1    2    0    0 -0.41087254512E+03 -0.10152006768E+04 -0.93001857735E+03  0.16955799865E+04  0.90033786648E+03 0.  0.
         23    2    4    4    0    0 -0.26902765964E+03 -0.11545230984E+04 -0.85415109570E+03  0.14639843549E+04  0.91523935595E+02 0.  0.
         23    2    4    4    0    0 -0.14184488548E+03  0.13932242165E+03 -0.75867481648E+02  0.23159563152E+03  0.91378077548E+02 0.  0.
          4    1    3    3  502    0  0.13612509516E+03  0.24607686132E+03 -0.20629347448E+03  0.34877049878E+03  0.00000000000E+00 0. -1.
         -3    1    3    3    0  502  0.27474744997E+03  0.76912381545E+03 -0.58991491646E+03  0.10074905525E+04  0.00000000000E+00 0.  1.
         11    1    5    5    0    0 -0.52852962759E+01 -0.24205084169E+02 -0.36330236263E+01  0.25040353772E+02  0.00000000000E+00 0.  1.
        -11    1    5    5    0    0 -0.26374236336E+03 -0.11303180142E+04 -0.85051807208E+03  0.14389440012E+04  0.00000000000E+00 0. -1.
          4    1    6    6  503    0 -0.28902274811E+02  0.90563893246E+02 -0.23701484147E+02  0.97974081266E+02  0.00000000000E+00 0. -1.
         -4    1    6    6    0  503 -0.11294261067E+03  0.48758528404E+02 -0.52165997501E+02  0.13362155026E+03  0.00000000000E+00 0.  1.
<mgrwt>
<rscale>  0 0.25167189E+04</rscale>
<asrwt>0</asrwt>
<pdfrwt beam="1">  1        2 0.36754369E+00 0.25167189E+04</pdfrwt>
<pdfrwt beam="2">  1       -1 0.10197031E+00 0.25167189E+04</pdfrwt>
<totfact> 0.37226947E+00</totfact>
</mgrwt>
</event>
<event>
12    6  0.1402540E-007  0.1741106E+04  0.7818608E-02  0.8738261E-01
          2   -1    0    0  501    0  0.00000000000E+00  0.00000000000E+00  0.23415019756E+04  0.23415019756E+04  0.00000000000E+00 0. -1.
         -1   -1    0    0    0  501 -0.00000000000E+00 -0.00000000000E+00 -0.32366519798E+03  0.32366519798E+03  0.00000000000E+00 0.  1.
         24    2    1    2    0    0 -0.15606570991E+03  0.61338624553E+03  0.79482641281E+03  0.10193880662E+04  0.82485217211E+02 0.  0.
        254    2    1    2    0    0  0.15606570991E+03 -0.61338624553E+03  0.12230103648E+04  0.16457791074E+04  0.90124099205E+03 0.  0.
         23    2    4    4    0    0 -0.74990948504E+02 -0.29993073928E+03 -0.36106290026E+02  0.32460959629E+03  0.92117507010E+02 0.  0.
         23    2    4    4    0    0  0.23105665842E+03 -0.31345550624E+03  0.12591166549E+04  0.13211695111E+04  0.92046687532E+02 0.  0.
          2    1    3    3  502    0  0.14207348120E+01  0.10138317740E+02  0.14325990973E+01  0.10337132783E+02  0.00000000000E+00 0. -1.
         -1    1    3    3    0  502 -0.15748644472E+03  0.60324792779E+03  0.79339381371E+03  0.10090509334E+04  0.00000000000E+00 0.  1.
         11    1    5    5    0    0 -0.89128902121E+02 -0.17633720708E+03 -0.12397040484E+02  0.19797085241E+03  0.00000000000E+00 0. -1.
        -11    1    5    5    0    0  0.14137953617E+02 -0.12359353221E+03 -0.23709249542E+02  0.12663874387E+03  0.00000000000E+00 0.  1.
          3    1    6    6  503    0  0.15762337631E+03 -0.17083000086E+03  0.86422351839E+03  0.89493592379E+03  0.00000000000E+00 0. -1.
         -3    1    6    6    0  503  0.73433282106E+02 -0.14262550539E+03  0.39489313646E+03  0.42623358729E+03  0.00000000000E+00 0.  1.
<mgrwt>
<rscale>  0 0.17411062E+04</rscale>
<asrwt>0</asrwt>
<pdfrwt beam="1">  1        2 0.36023106E+00 0.17411062E+04</pdfrwt>
<pdfrwt beam="2">  1       -1 0.49794647E-01 0.17411062E+04</pdfrwt>
<totfact> 0.18776592E+01</totfact>
</mgrwt>
</event>
<event>
12    6  0.1402540E-007  0.2170785E+04  0.7818608E-02  0.8530688E-01
          2   -1    0    0  501    0  0.00000000000E+00  0.00000000000E+00  0.25827960993E+04  0.25827960993E+04  0.00000000000E+00 0. -1.
         -1   -1    0    0    0  501 -0.00000000000E+00 -0.00000000000E+00 -0.45612444200E+03  0.45612444200E+03  0.00000000000E+00 0.  1.
         24    2    1    2    0    0 -0.30341425110E+03  0.81375357014E+03  0.11838388263E+04  0.14712956879E+04  0.94771060127E+02 0.  0.
        254    2    1    2    0    0  0.30341425110E+03 -0.81375357014E+03  0.94283283106E+03  0.15676248535E+04  0.90236292766E+03 0.  0.
         23    2    4    4    0    0  0.58358643350E+03 -0.71890597941E+03  0.79357501118E+03  0.12228123446E+04  0.90054423353E+02 0.  0.
         23    2    4    4    0    0 -0.28017218241E+03 -0.94847590729E+02  0.14925781988E+03  0.34481250886E+03  0.95526185993E+02 0.  0.
          4    1    3    3  502    0 -0.14745616913E+03  0.49141732764E+03  0.75121778584E+03  0.90970460781E+03  0.00000000000E+00 0. -1.
         -3    1    3    3    0  502 -0.15595808196E+03  0.32233624251E+03  0.43262104045E+03  0.56159108006E+03  0.00000000000E+00 0.  1.
         11    1    5    5    0    0  0.21858576352E+03 -0.20356020688E+03  0.24551991064E+03  0.38664779886E+03  0.00000000000E+00 0. -1.
        -11    1    5    5    0    0  0.36500066998E+03 -0.51534577253E+03  0.54805510054E+03  0.83616454576E+03  0.00000000000E+00 0.  1.
          3    1    6    6  503    0 -0.37947273759E+02 -0.28667448120E+02 -0.84336864883E+01  0.48300571790E+02  0.00000000000E+00 0. -1.
         -3    1    6    6    0  503 -0.24222490865E+03 -0.66180142609E+02  0.15769150637E+03  0.29651193707E+03  0.00000000000E+00 0.  1.
<mgrwt>
<rscale>  0 0.21707846E+04</rscale>
<asrwt>0</asrwt>
<pdfrwt beam="1">  1        2 0.39735324E+00 0.21707846E+04</pdfrwt>
<pdfrwt beam="2">  1       -1 0.70172993E-01 0.21707846E+04</pdfrwt>
<totfact> 0.66688338E+00</totfact>
</mgrwt>
</event>
<event>
12    6  0.1402540E-007  0.2781527E+04  0.7818608E-02  0.8309027E-01
         -1   -1    0    0    0  501 -0.00000000000E+00  0.00000000000E+00  0.81732606524E+03  0.81732606524E+03  0.00000000000E+00 0.  1.
          2   -1    0    0  501    0  0.00000000000E+00 -0.00000000000E+00 -0.23665252939E+04  0.23665252939E+04  0.00000000000E+00 0. -1.
         24    2    1    2    0    0  0.11788668238E+04 -0.38209042496E+03 -0.80074148321E+03  0.14775629412E+04  0.79279512354E+02 0.  0.
        254    2    1    2    0    0 -0.11788668238E+04  0.38209042496E+03 -0.74845774550E+03  0.17062884180E+04  0.90305652510E+03 0.  0.
         23    2    4    4    0    0 -0.43141833866E+03  0.55447681474E+03 -0.58027130006E+03  0.91590739430E+03  0.92764498838E+02 0.  0.
         23    2    4    4    0    0 -0.74744848515E+03 -0.17238638978E+03 -0.16818644544E+03  0.79038102372E+03  0.89549856940E+02 0.  0.
          4    1    3    3  502    0  0.52128371082E+03 -0.15217064208E+03 -0.30816433425E+03  0.62438599310E+03  0.00000000000E+00 0. -1.
         -3    1    3    3    0  502  0.65758311299E+03 -0.22991978288E+03 -0.49257714896E+03  0.85317694807E+03  0.00000000000E+00 0.  1.
         11    1    5    5    0    0 -0.40750456603E+03  0.54849467671E+03 -0.55212129023E+03  0.87848978414E+03  0.00000000000E+00 0. -1.
        -11    1    5    5    0    0 -0.23913772626E+02  0.59821380317E+01 -0.28150009823E+02  0.37417610154E+02  0.00000000000E+00 0.  1.
          4    1    6    6  503    0 -0.68146838835E+03 -0.16556322372E+03 -0.17747959919E+03  0.72340123963E+03  0.00000000000E+00 0. -1.
         -4    1    6    6    0  503 -0.65980096808E+02 -0.68231660600E+01  0.92931537516E+01  0.66979784088E+02  0.00000000000E+00 0.  1.
<mgrwt>
<rscale>  0 0.27815268E+04</rscale>
<asrwt>0</asrwt>
<pdfrwt beam="1">  1        2 0.36408082E+00 0.27815268E+04</pdfrwt>
<pdfrwt beam="2">  1       -1 0.12574247E+00 0.27815268E+04</pdfrwt>
<totfact> 0.22697742E+00</totfact>
</mgrwt>
</event>
<event>
12    6  0.1402540E-007  0.2367731E+04  0.7818608E-02  0.8451684E-01
          2   -1    0    0  501    0  0.00000000000E+00  0.00000000000E+00  0.33306524190E+04  0.33306524190E+04  0.00000000000E+00 0. -1.
         -1   -1    0    0    0  501 -0.00000000000E+00 -0.00000000000E+00 -0.42079955458E+03  0.42079955458E+03  0.00000000000E+00 0.  1.
         24    2    1    2    0    0  0.81452925903E+03  0.32043746553E+03  0.20489469971E+04  0.22294909735E+04  0.79423680551E+02 0.  0.
        254    2    1    2    0    0 -0.81452925903E+03 -0.32043746553E+03  0.86090586732E+03  0.15219610000E+04  0.89948223447E+03 0.  0.
         23    2    4    4    0    0  0.60136747267E+02  0.19859857285E+03  0.94990245144E+02  0.24567806838E+03  0.90976618418E+02 0.  0.
         23    2    4    4    0    0 -0.87466600629E+03 -0.51903603838E+03  0.76591562217E+03  0.12762829317E+04  0.88500563009E+02 0.  0.
          2    1    3    3  502    0  0.36381274796E+03  0.11742197073E+03  0.97359713466E+03  0.10459631998E+04  0.00000000000E+00 0. -1.
         -1    1    3    3    0  502  0.45071651107E+03  0.20301549480E+03  0.10753498624E+04  0.11835277737E+04  0.00000000000E+00 0.  1.
         11    1    5    5    0    0  0.43010550527E+02  0.82520592445E+02 -0.25554403126E+01  0.93091814406E+02  0.00000000000E+00 0.  1.
        -11    1    5    5    0    0  0.17126196740E+02  0.11607798041E+03  0.97545685457E+02  0.15258625397E+03  0.00000000000E+00 0. -1.
          3    1    6    6  503    0 -0.40363235924E+03 -0.28801067788E+03  0.39060159627E+03  0.63122011930E+03  0.00000000000E+00 0. -1.
         -3    1    6    6    0  503 -0.47103364705E+03 -0.23102536050E+03  0.37531402590E+03  0.64506281236E+03  0.00000000000E+00 0.  1.
<mgrwt>
<rscale>  0 0.23677306E+04</rscale>
<asrwt>0</asrwt>
<pdfrwt beam="1">  1        2 0.51240805E+00 0.23677306E+04</pdfrwt>
<pdfrwt beam="2">  1       -1 0.64738395E-01 0.23677306E+04</pdfrwt>
<totfact> 0.26400784E+00</totfact>
</mgrwt>
</event>
<event>
12    6  0.1402540E-007  0.3869593E+04  0.7818608E-02  0.8031383E-01
         -1   -1    0    0    0  501 -0.00000000000E+00  0.00000000000E+00  0.22762321274E+04  0.22762321274E+04  0.00000000000E+00 0.  1.
          2   -1    0    0  501    0  0.00000000000E+00 -0.00000000000E+00 -0.16445759277E+04  0.16445759277E+04  0.00000000000E+00 0. -1.
         24    2    1    2    0    0  0.16735665251E+04  0.72137272919E+03  0.45495352928E+03  0.18799830073E+04  0.78421078788E+02 0.  0.
        254    2    1    2    0    0 -0.16735665251E+04 -0.72137272919E+03  0.17670267042E+03  0.20408250478E+04  0.90140973690E+03 0.  0.
         23    2    4    4    0    0 -0.57297099313E+03  0.69926709890E+02 -0.22161440511E+03  0.62508537784E+03  0.91832898858E+02 0.  0.
         23    2    4    4    0    0 -0.11005955320E+04 -0.79129943908E+03  0.39831707553E+03  0.14157396700E+04  0.90537247862E+02 0.  0.
          2    1    3    3  502    0  0.66903432866E+03  0.28570079377E+03  0.22119674658E+03  0.76036825104E+03  0.00000000000E+00 0. -1.
         -1    1    3    3    0  502  0.10045321964E+04  0.43567193542E+03  0.23375678270E+03  0.11196147563E+04  0.00000000000E+00 0.  1.
         11    1    5    5    0    0 -0.51971188639E+03  0.65577049870E+02 -0.16983314572E+03  0.55067603154E+03  0.00000000000E+00 0.  1.
        -11    1    5    5    0    0 -0.53259106737E+02  0.43496600205E+01 -0.51781259390E+02  0.74409346299E+02  0.00000000000E+00 0. -1.
          3    1    6    6  503    0 -0.21255282415E+03 -0.17234196051E+03  0.11490617545E+03  0.29678929152E+03  0.00000000000E+00 0. -1.
         -3    1    6    6    0  503 -0.88804270782E+03 -0.61895747858E+03  0.28341090008E+03  0.11189503785E+04  0.00000000000E+00 0.  1.
<mgrwt>
<rscale>  0 0.38695925E+04</rscale>
<asrwt>0</asrwt>
<pdfrwt beam="1">  1        2 0.25301168E+00 0.38695925E+04</pdfrwt>
<pdfrwt beam="2">  1       -1 0.35018956E+00 0.38695925E+04</pdfrwt>
<totfact> 0.14801541E-01</totfact>
</mgrwt>
</event>
<event>
12    6  0.1402540E-007  0.1648966E+04  0.7818608E-02  0.8791019E-01
         -1   -1    0    0    0  501 -0.00000000000E+00  0.00000000000E+00  0.37963436673E+03  0.37963436673E+03  0.00000000000E+00 0.  1.
          2   -1    0    0  501    0  0.00000000000E+00 -0.00000000000E+00 -0.17905967521E+04  0.17905967521E+04  0.00000000000E+00 0. -1.
         24    2    1    2    0    0  0.49776014584E+03 -0.18495579207E+03 -0.78913031570E+03  0.95450151508E+03  0.79829063125E+02 0.  0.
        254    2    1    2    0    0 -0.49776014584E+03  0.18495579207E+03 -0.62183206965E+03  0.12157296037E+04  0.89963856005E+03 0.  0.
         23    2    4    4    0    0  0.13665074783E+02 -0.29767523255E+03 -0.74405974921E+02  0.32003186080E+03  0.89926995293E+02 0.  0.
         23    2    4    4    0    0 -0.51142522063E+03  0.48263102462E+03 -0.54742609473E+03  0.89569774293E+03  0.90059176553E+02 0.  0.
          4    1    3    3  502    0  0.47924498380E+03 -0.17094946240E+03 -0.77566994412E+03  0.92766552992E+03  0.00000000000E+00 0. -1.
         -3    1    3    3    0  502  0.18515162045E+02 -0.14006329669E+02 -0.13460371581E+02  0.26835985159E+02  0.00000000000E+00 0.  1.
         11    1    5    5    0    0  0.48729245122E+02 -0.14534851256E+03 -0.53310290971E+02  0.16230439476E+03  0.00000000000E+00 0.  1.
        -11    1    5    5    0    0 -0.35064170339E+02 -0.15232671998E+03 -0.21095683950E+02  0.15772746604E+03  0.00000000000E+00 0. -1.
          3    1    6    6  503    0 -0.31547901144E+03  0.25752660384E+03 -0.35790726406E+03  0.54216655007E+03  0.00000000000E+00 0. -1.
         -3    1    6    6    0  503 -0.19594620919E+03  0.22510442078E+03 -0.18951883067E+03  0.35353119287E+03  0.00000000000E+00 0.  1.
<mgrwt>
<rscale>  0 0.16489658E+04</rscale>
<asrwt>0</asrwt>
<pdfrwt beam="1">  1        2 0.27547642E+00 0.16489658E+04</pdfrwt>
<pdfrwt beam="2">  1       -1 0.58405287E-01 0.16489658E+04</pdfrwt>
<totfact> 0.28230764E+01</totfact>
</mgrwt>
</event>
<event>
12    6  0.1402540E-007  0.1366349E+04  0.7818608E-02  0.8978544E-01
          2   -1    0    0  501    0  0.00000000000E+00  0.00000000000E+00  0.93102515482E+03  0.93102515482E+03  0.00000000000E+00 0. -1.
         -1   -1    0    0    0  501 -0.00000000000E+00 -0.00000000000E+00 -0.50130474458E+03  0.50130474458E+03  0.00000000000E+00 0.  1.
         24    2    1    2    0    0  0.47979780629E+02 -0.32010564287E+03 -0.87737169554E+02  0.34490146662E+03  0.80557611752E+02 0.  0.
        254    2    1    2    0    0 -0.47979780629E+02  0.32010564287E+03  0.51745757979E+03  0.10874284328E+04  0.89998253738E+03 0.  0.
         23    2    4    4    0    0 -0.22693877883E+03  0.52135169343E+03  0.10356843814E+03  0.58530927728E+03  0.92475570359E+02 0.  0.
         23    2    4    4    0    0  0.17895899820E+03 -0.20124605056E+03  0.41388914165E+03  0.50211915550E+03  0.91066617591E+02 0.  0.
          4    1    3    3  502    0  0.49645838032E+02 -0.10611713816E+03 -0.11446161359E+02  0.11771393654E+03  0.00000000000E+00 0. -1.
         -3    1    3    3    0  502 -0.16660574034E+01 -0.21398850471E+03 -0.76291008195E+02  0.22718753009E+03  0.00000000000E+00 0.  1.
         11    1    5    5    0    0 -0.20100164839E+03  0.45478267564E+03  0.12107948640E+03  0.51175109843E+03  0.00000000000E+00 0.  1.
        -11    1    5    5    0    0 -0.25937130442E+02  0.66569017789E+02 -0.17511048255E+02  0.73558178851E+02  0.00000000000E+00 0. -1.
          2    1    6    6  503    0  0.35723461856E+01  0.68226765619E+00  0.51963448964E+02  0.52090567041E+02  0.00000000000E+00 0. -1.
         -2    1    6    6    0  503  0.17538665201E+03 -0.20192831821E+03  0.36192569269E+03  0.45002858846E+03  0.00000000000E+00 0.  1.
<mgrwt>
<rscale>  0 0.13663489E+04</rscale>
<asrwt>0</asrwt>
<pdfrwt beam="1">  1        2 0.14323464E+00 0.13663489E+04</pdfrwt>
<pdfrwt beam="2">  1       -1 0.77123807E-01 0.13663489E+04</pdfrwt>
<totfact> 0.52473484E+01</totfact>
</mgrwt>
</event>
<event>
12    6  0.1402540E-007  0.1338175E+04  0.7818608E-02  0.8999828E-01
          2   -1    0    0  501    0  0.00000000000E+00  0.00000000000E+00  0.63407724993E+03  0.63407724993E+03  0.00000000000E+00 0. -1.
         -1   -1    0    0    0  501 -0.00000000000E+00 -0.00000000000E+00 -0.70603100827E+03  0.70603100827E+03  0.00000000000E+00 0.  1.
         24    2    1    2    0    0  0.22159147385E+03  0.10009015056E+02 -0.30457163846E+03  0.38503928115E+03  0.79299454002E+02 0.  0.
        254    2    1    2    0    0 -0.22159147385E+03 -0.10009015056E+02  0.23261788011E+03  0.95506897706E+03  0.89935683192E+03 0.  0.
         23    2    4    4    0    0 -0.34730025493E+03 -0.37718482714E+03  0.73575577610E+02  0.52606465977E+03  0.91895591492E+02 0.  0.
         23    2    4    4    0    0  0.12570878108E+03  0.36717581208E+03  0.15904230250E+03  0.42900431729E+03  0.90163604908E+02 0.  0.
          2    1    3    3  502    0  0.72701220607E+02 -0.71029215105E+01 -0.46455545051E+02  0.86568104044E+02  0.00000000000E+00 0. -1.
         -1    1    3    3    0  502  0.14889025325E+03  0.17111936567E+02 -0.25811609341E+03  0.29847117710E+03  0.00000000000E+00 0.  1.
         11    1    5    5    0    0 -0.63853305913E+02 -0.67579099541E+02 -0.22045207503E+02  0.95551925908E+02  0.00000000000E+00 0. -1.
        -11    1    5    5    0    0 -0.28344694902E+03 -0.30960572760E+03  0.95620785113E+02  0.43051273386E+03  0.00000000000E+00 0.  1.
          1    1    6    6  503    0  0.85690109986E+01  0.92079763570E+02  0.73158986908E+02  0.11791670015E+03  0.00000000000E+00 0. -1.
         -1    1    6    6    0  503  0.11713977008E+03  0.27509604851E+03  0.85883315596E+02  0.31108761714E+03  0.00000000000E+00 0.  1.
<mgrwt>
<rscale>  0 0.13381752E+04</rscale>
<asrwt>0</asrwt>
<pdfrwt beam="1">  1        2 0.97550346E-01 0.13381752E+04</pdfrwt>
<pdfrwt beam="2">  1       -1 0.10862016E+00 0.13381752E+04</pdfrwt>
<totfact> 0.40736723E+01</totfact>
</mgrwt>
</event>
<event>
12    6  0.1402540E-007  0.1649468E+04  0.7818608E-02  0.8790721E-01
          2   -1    0    0  501    0  0.00000000000E+00  0.00000000000E+00  0.99863201100E+03  0.99863201100E+03  0.00000000000E+00 0. -1.
         -1   -1    0    0    0  501 -0.00000000000E+00 -0.00000000000E+00 -0.68111769844E+03  0.68111769844E+03  0.00000000000E+00 0.  1.
         24    2    1    2    0    0  0.34118086502E+03 -0.30564466137E+03  0.46937081142E+03  0.66085931635E+03  0.81259065442E+02 0.  0.
        254    2    1    2    0    0 -0.34118086502E+03  0.30564466137E+03 -0.15185649886E+03  0.10188903931E+04  0.89735956852E+03 0.  0.
         23    2    4    4    0    0 -0.33848711853E+02  0.35830732067E+03  0.28973142413E+03  0.47061572809E+03  0.89470632371E+02 0.  0.
         23    2    4    4    0    0 -0.30733215317E+03 -0.52662659304E+02 -0.44158792299E+03  0.54827466500E+03  0.91535820844E+02 0.  0.
          4    1    3    3  502    0  0.87145479522E+02 -0.41163773929E+02  0.12455277038E+03  0.15748708993E+03  0.00000000000E+00 0. -1.
         -3    1    3    3    0  502  0.25403538550E+03 -0.26448088744E+03  0.34481804104E+03  0.50337222642E+03  0.00000000000E+00 0.  1.
         11    1    5    5    0    0  0.14855243219E+02  0.28372572260E+02  0.56599057364E+01  0.32522540502E+02  0.00000000000E+00 0. -1.
        -11    1    5    5    0    0 -0.48703955072E+02  0.32993474841E+03  0.28407151840E+03  0.43809318759E+03  0.00000000000E+00 0.  1.
          2    1    6    6  503    0 -0.12493316060E+03 -0.61652956942E+02 -0.15462252950E+03  0.20812858609E+03  0.00000000000E+00 0. -1.
         -2    1    6    6    0  503 -0.18239899256E+03  0.89902976380E+01 -0.28696539349E+03  0.34014607892E+03  0.00000000000E+00 0.  1.
<mgrwt>
<rscale>  0 0.16494677E+04</rscale>
<asrwt>0</asrwt>
<pdfrwt beam="1">  1        2 0.15363569E+00 0.16494677E+04</pdfrwt>
<pdfrwt beam="2">  1       -1 0.10478734E+00 0.16494677E+04</pdfrwt>
<totfact> 0.23536045E+01</totfact>
</mgrwt>
</event>
<event>
12    6  0.1402540E-007  0.3341425E+04  0.7818608E-02  0.8152434E-01
          2   -1    0    0  501    0  0.00000000000E+00  0.00000000000E+00  0.14731183791E+04  0.14731183791E+04  0.00000000000E+00 0. -1.
         -1   -1    0    0    0  501 -0.00000000000E+00 -0.00000000000E+00 -0.18948108730E+04  0.18948108730E+04  0.00000000000E+00 0.  1.
         24    2    1    2    0    0 -0.76300402894E+03  0.26172097380E+03 -0.15280342604E+04  0.17297405053E+04  0.80252717110E+02 0.  0.
        254    2    1    2    0    0  0.76300402894E+03 -0.26172097380E+03  0.11063417664E+04  0.16381887467E+04  0.89944274387E+03 0.  0.
         23    2    4    4    0    0  0.37401379888E+03 -0.53770813190E+03  0.88269249929E+03  0.11031698763E+04  0.93922153358E+02 0.  0.
         23    2    4    4    0    0  0.38899023006E+03  0.27598715810E+03  0.22364926713E+03  0.53501887040E+03  0.93508750806E+02 0.  0.
          4    1    3    3  502    0 -0.37260569501E+03  0.92965209701E+02 -0.67652730245E+03  0.77792462690E+03  0.00000000000E+00 0. -1.
         -3    1    3    3    0  502 -0.39039833393E+03  0.16875576410E+03 -0.85150695791E+03  0.95181587843E+03  0.00000000000E+00 0.  1.
         11    1    5    5    0    0  0.22093840413E+03 -0.23870479085E+03  0.41229932120E+03  0.52515186932E+03  0.00000000000E+00 0. -1.
        -11    1    5    5    0    0  0.15307539476E+03 -0.29900334105E+03  0.47039317809E+03  0.57801800702E+03  0.00000000000E+00 0.  1.
          1    1    6    6  503    0  0.97663029796E+02  0.92101694217E+02  0.10576496502E+03  0.17090060647E+03  0.00000000000E+00 0. -1.
         -1    1    6    6    0  503  0.29132720026E+03  0.18388546388E+03  0.11788430210E+03  0.36411826392E+03  0.00000000000E+00 0.  1.
<mgrwt>
<rscale>  0 0.33414253E+04</rscale>
<asrwt>0</asrwt>
<pdfrwt beam="1">  1        2 0.22663360E+00 0.33414253E+04</pdfrwt>
<pdfrwt beam="2">  1       -1 0.29150936E+00 0.33414253E+04</pdfrwt>
<totfact> 0.46702466E-01</totfact>
</mgrwt>
</event>
<event>
12    6  0.1402540E-007  0.4082038E+04  0.7818608E-02  0.7988198E-01
         -1   -1    0    0    0  501 -0.00000000000E+00  0.00000000000E+00  0.12886710757E+04  0.12886710757E+04  0.00000000000E+00 0.  1.
          2   -1    0    0  501    0  0.00000000000E+00 -0.00000000000E+00 -0.32325999134E+04  0.32325999134E+04  0.00000000000E+00 0. -1.
         24    2    1    2    0    0 -0.17414963375E+04 -0.83665602887E+02  0.20239738307E+02  0.17453390632E+04  0.77391033295E+02 0.  0.
        254    2    1    2    0    0  0.17414963375E+04  0.83665602887E+02 -0.19641685760E+04  0.27759319258E+04  0.89890513144E+03 0.  0.
         23    2    4    4    0    0  0.17222070907E+04 -0.58038069631E+02 -0.19521171394E+04  0.26054791233E+04  0.91621258334E+02 0.  0.
         23    2    4    4    0    0  0.19289246760E+02  0.14170367252E+03 -0.12051436570E+02  0.17045280254E+03  0.91961486099E+02 0.  0.
          4    1    3    3  502    0 -0.94558495874E+03 -0.60095125055E+02  0.46656158584E+02  0.94864067770E+03  0.00000000000E+00 0. -1.
         -3    1    3    3    0  502 -0.79591137876E+03 -0.23570477832E+02 -0.26416420278E+02  0.79669838554E+03  0.00000000000E+00 0.  1.
         11    1    5    5    0    0  0.60179662667E+03 -0.43873769681E+02 -0.73941966714E+03  0.95437179950E+03  0.00000000000E+00 0. -1.
        -11    1    5    5    0    0  0.11204104641E+04 -0.14164299950E+02 -0.12126974723E+04  0.16511073238E+04  0.00000000000E+00 0.  1.
          2    1    6    6  503    0  0.18395907172E+02  0.13702808473E+03  0.18538478160E+02  0.13949473316E+03  0.00000000000E+00 0. -1.
         -2    1    6    6    0  503  0.89333958794E+00  0.46755877833E+01 -0.30589914730E+02  0.30958069383E+02  0.00000000000E+00 0.  1.
<mgrwt>
<rscale>  0 0.40820377E+04</rscale>
<asrwt>0</asrwt>
<pdfrwt beam="1">  1        2 0.49732306E+00 0.40820377E+04</pdfrwt>
<pdfrwt beam="2">  1       -1 0.19825709E+00 0.40820377E+04</pdfrwt>
<totfact> 0.16977651E-01</totfact>
</mgrwt>
</event>
<event>
12    6  0.1402540E-007  0.1473921E+04  0.7818608E-02  0.8901983E-01
         -1   -1    0    0    0  501 -0.00000000000E+00  0.00000000000E+00  0.31601152512E+03  0.31601152512E+03  0.00000000000E+00 0.  1.
          2   -1    0    0  501    0  0.00000000000E+00 -0.00000000000E+00 -0.17186419033E+04  0.17186419033E+04  0.00000000000E+00 0. -1.
         24    2    1    2    0    0  0.37225407464E+03 -0.16766682803E+03 -0.70730941511E+03  0.82061134602E+03  0.80194209252E+02 0.  0.
        254    2    1    2    0    0 -0.37225407464E+03  0.16766682803E+03 -0.69532096309E+03  0.12140420824E+04  0.90760215671E+03 0.  0.
         23    2    4    4    0    0 -0.26263669229E+03 -0.35607144033E+03 -0.29401398926E+03  0.53913471044E+03  0.91962532428E+02 0.  0.
         23    2    4    4    0    0 -0.10961738235E+03  0.52373826836E+03 -0.40130697383E+03  0.67490737198E+03  0.90193842609E+02 0.  0.
          4    1    3    3  502    0  0.24666589239E+03 -0.14791157476E+03 -0.51982486129E+03  0.59408735287E+03  0.00000000000E+00 0. -1.
         -3    1    3    3    0  502  0.12558818225E+03 -0.19755253271E+02 -0.18748455382E+03  0.22652399315E+03  0.00000000000E+00 0.  1.
         11    1    5    5    0    0 -0.20891121408E+03 -0.21094587195E+03 -0.18435501268E+03  0.34946935053E+03  0.00000000000E+00 0. -1.
        -11    1    5    5    0    0 -0.53725478212E+02 -0.14512556838E+03 -0.10965897658E+03  0.18966535992E+03  0.00000000000E+00 0.  1.
          1    1    6    6  503    0 -0.41892235525E+02  0.24322032271E+03 -0.13057627721E+03  0.27921541674E+03  0.00000000000E+00 0. -1.
         -1    1    6    6    0  503 -0.67725146825E+02  0.28051794565E+03 -0.27073069662E+03  0.39569195523E+03  0.00000000000E+00 0.  1.
<mgrwt>
<rscale>  0 0.14739208E+04</rscale>
<asrwt>0</asrwt>
<pdfrwt beam="1">  1        2 0.26440644E+00 0.14739208E+04</pdfrwt>
<pdfrwt beam="2">  1       -1 0.48617159E-01 0.14739208E+04</pdfrwt>
<totfact> 0.44709072E+01</totfact>
</mgrwt>
</event>
<event>
12    6  0.1402540E-007  0.1692979E+04  0.7818608E-02  0.8765379E-01
         -1   -1    0    0    0  501 -0.00000000000E+00  0.00000000000E+00  0.53450083015E+03  0.53450083015E+03  0.00000000000E+00 0.  1.
          2   -1    0    0  501    0  0.00000000000E+00 -0.00000000000E+00 -0.13405865523E+04  0.13405865523E+04  0.00000000000E+00 0. -1.
         24    2    1    2    0    0 -0.21967203776E+03 -0.51615147955E+03 -0.43556023428E+02  0.56848974950E+03  0.81334581212E+02 0.  0.
        254    2    1    2    0    0  0.21967203776E+03  0.51615147955E+03 -0.76252969868E+03  0.13065976329E+04  0.90059851152E+03 0.  0.
         23    2    4    4    0    0 -0.63905942806E+02 -0.11751490201E+03  0.10297044566E+03  0.19245244809E+03  0.92419210002E+02 0.  0.
         23    2    4    4    0    0  0.28357798057E+03  0.63366638156E+03 -0.86550014434E+03  0.11141451848E+04  0.10138756745E+03 0.  0.
          4    1    3    3  502    0 -0.28478207845E+02 -0.12967180111E+03 -0.34659196977E+02  0.13721167683E+03  0.00000000000E+00 0. -1.
         -3    1    3    3    0  502 -0.19119382991E+03 -0.38647967844E+03 -0.88968264507E+01  0.43127807267E+03  0.00000000000E+00 0.  1.
         11    1    5    5    0    0  0.56868544474E+01 -0.82355097162E+02  0.68206335150E+02  0.10708317560E+03  0.00000000000E+00 0. -1.
        -11    1    5    5    0    0 -0.69592797253E+02 -0.35159804850E+02  0.34764110509E+02  0.85369272494E+02  0.00000000000E+00 0.  1.
          3    1    6    6  503    0  0.10797985478E+03  0.31012619687E+03 -0.47524512114E+03  0.57766411711E+03  0.00000000000E+00 0. -1.
         -3    1    6    6    0  503  0.17559812578E+03  0.32354018468E+03 -0.39025502319E+03  0.53648106771E+03  0.00000000000E+00 0.  1.
<mgrwt>
<rscale>  0 0.16929792E+04</rscale>
<asrwt>0</asrwt>
<pdfrwt beam="1">  1        2 0.20624409E+00 0.16929792E+04</pdfrwt>
<pdfrwt beam="2">  1       -1 0.82230897E-01 0.16929792E+04</pdfrwt>
<totfact> 0.24990656E+01</totfact>
</mgrwt>
</event>
<event>
12    6  0.1402540E-007  0.2116943E+04  0.7818608E-02  0.8553816E-01
          2   -1    0    0  501    0  0.00000000000E+00  0.00000000000E+00  0.26559862937E+04  0.26559862937E+04  0.00000000000E+00 0. -1.
         -1   -1    0    0    0  501 -0.00000000000E+00 -0.00000000000E+00 -0.42182514760E+03  0.42182514760E+03  0.00000000000E+00 0.  1.
         24    2    1    2    0    0  0.57508490013E+03 -0.49534293249E+03  0.31010061058E+03  0.82214657434E+03  0.60624565115E+02 0.  0.
        254    2    1    2    0    0 -0.57508490013E+03  0.49534293249E+03  0.19240605355E+04  0.22556648670E+04  0.89995987940E+03 0.  0.
         23    2    4    4    0    0  0.16820584315E+02 -0.13892475891E+03  0.87790334172E+03  0.89356633352E+03  0.90352057533E+02 0.  0.
         23    2    4    4    0    0 -0.59190548444E+03  0.63426769140E+03  0.10461571938E+04  0.13620985334E+04  0.90663850397E+02 0.  0.
          2    1    3    3  502    0  0.29135108140E+03 -0.27352530950E+03  0.19004030072E+03  0.44251199246E+03  0.00000000000E+00 0. -1.
         -1    1    3    3    0  502  0.28373381872E+03 -0.22181762299E+03  0.12006030986E+03  0.37963458188E+03  0.00000000000E+00 0.  1.
         11    1    5    5    0    0  0.36049939376E+01 -0.64162682791E+02  0.65382669669E+03  0.65697731708E+03  0.00000000000E+00 0. -1.
        -11    1    5    5    0    0  0.13215590378E+02 -0.74762076121E+02  0.22407664503E+03  0.23658901644E+03  0.00000000000E+00 0.  1.
          4    1    6    6  503    0 -0.54116556394E+03  0.57169872229E+03  0.90409578165E+03  0.11987863776E+04  0.00000000000E+00 0. -1.
         -4    1    6    6    0  503 -0.50739920500E+02  0.62568969110E+02  0.14206141215E+03  0.16331215586E+03  0.00000000000E+00 0.  1.
<mgrwt>
<rscale>  0 0.21169429E+04</rscale>
<asrwt>0</asrwt>
<pdfrwt beam="1">  1        2 0.40861327E+00 0.21169429E+04</pdfrwt>
<pdfrwt beam="2">  1       -1 0.64896178E-01 0.21169429E+04</pdfrwt>
<totfact> 0.71155542E+00</totfact>
</mgrwt>
</event>
<event>
12    6  0.1402540E-007  0.1729482E+04  0.7818608E-02  0.8744726E-01
          2   -1    0    0  501    0  0.00000000000E+00  0.00000000000E+00  0.73319341324E+03  0.73319341324E+03  0.00000000000E+00 0. -1.
         -1   -1    0    0    0  501 -0.00000000000E+00 -0.00000000000E+00 -0.10198908828E+04  0.10198908828E+04  0.00000000000E+00 0.  1.
         24    2    1    2    0    0  0.58424841084E+03 -0.21150191295E+03 -0.33549015180E+02  0.62761122262E+03  0.81798811637E+02 0.  0.
        254    2    1    2    0    0 -0.58424841084E+03  0.21150191295E+03 -0.25314845443E+03  0.11254730735E+04  0.90361841192E+03 0.  0.
         23    2    4    4    0    0 -0.27173895398E+03  0.37625944879E+03 -0.49753672802E+03  0.68749389089E+03  0.98447053565E+02 0.  0.
         23    2    4    4    0    0 -0.31250945686E+03 -0.16475753584E+03  0.24438827359E+03  0.43797918258E+03  0.85398652559E+02 0.  0.
          4    1    3    3  502    0  0.40092026559E+03 -0.10455614349E+03 -0.28514281590E+02  0.41530965647E+03  0.00000000000E+00 0. -1.
         -3    1    3    3    0  502  0.18332814525E+03 -0.10694576946E+03 -0.50347335899E+01  0.21230156615E+03  0.00000000000E+00 0.  1.
         11    1    5    5    0    0 -0.22107353723E+03  0.24138798793E+03 -0.30831900142E+03  0.44966907412E+03  0.00000000000E+00 0. -1.
        -11    1    5    5    0    0 -0.50665416749E+02  0.13487146086E+03 -0.18921772660E+03  0.23782481677E+03  0.00000000000E+00 0.  1.
          3    1    6    6  503    0 -0.25439313599E+03 -0.16331724611E+03  0.22445890789E+03  0.37652382640E+03  0.00000000000E+00 0. -1.
         -3    1    6    6    0  503 -0.58116320869E+02 -0.14402897356E+01  0.19929365705E+02  0.61455356181E+02  0.00000000000E+00 0.  1.
<mgrwt>
<rscale>  0 0.17294823E+04</rscale>
<asrwt>0</asrwt>
<pdfrwt beam="1">  1        2 0.11279899E+00 0.17294823E+04</pdfrwt>
<pdfrwt beam="2">  1       -1 0.15690629E+00 0.17294823E+04</pdfrwt>
<totfact> 0.12915827E+01</totfact>
</mgrwt>
</event>
<event>
12    6  0.1402540E-007  0.2871976E+04  0.7818608E-02  0.8281265E-01
          2   -1    0    0  501    0  0.00000000000E+00  0.00000000000E+00  0.17640175007E+04  0.17640175007E+04  0.00000000000E+00 0. -1.
         -1   -1    0    0    0  501 -0.00000000000E+00 -0.00000000000E+00 -0.11689575670E+04  0.11689575670E+04  0.00000000000E+00 0.  1.
         24    2    1    2    0    0  0.76825034800E+03 -0.10189536541E+04  0.51251040503E+02  0.12797416107E+04  0.81466401495E+02 0.  0.
        254    2    1    2    0    0 -0.76825034800E+03  0.10189536541E+04  0.54380889317E+03  0.16532334570E+04  0.89943182321E+03 0.  0.
         23    2    4    4    0    0 -0.49637657666E+03  0.76211941727E+03  0.77964441967E+03  0.12020952280E+04  0.99858920076E+02 0.  0.
         23    2    4    4    0    0 -0.27187377134E+03  0.25683423687E+03 -0.23583552650E+03  0.45113822905E+03  0.89599851474E+02 0.  0.
          2    1    3    3  502    0  0.33819448734E+03 -0.48439823774E+03 -0.10724300042E+02  0.59087407678E+03  0.00000000000E+00 0. -1.
         -1    1    3    3    0  502  0.43005586066E+03 -0.53455541639E+03  0.61975340545E+02  0.68886753394E+03  0.00000000000E+00 0.  1.
         11    1    5    5    0    0 -0.11672933102E+03  0.23908418711E+03  0.18690172134E+03  0.32514495027E+03  0.00000000000E+00 0. -1.
        -11    1    5    5    0    0 -0.37964724564E+03  0.52303523015E+03  0.59274269833E+03  0.87695027768E+03  0.00000000000E+00 0.  1.
          4    1    6    6  503    0 -0.17222003789E+03  0.21747593313E+03 -0.17281132725E+03  0.32683218594E+03  0.00000000000E+00 0.  1.
         -4    1    6    6    0  503 -0.99653733446E+02  0.39358303742E+02 -0.63024199250E+02  0.12430604311E+03  0.00000000000E+00 0. -1.
<mgrwt>
<rscale>  0 0.28719760E+04</rscale>
<asrwt>0</asrwt>
<pdfrwt beam="1">  1        2 0.27138731E+00 0.28719760E+04</pdfrwt>
<pdfrwt beam="2">  1       -1 0.17983963E+00 0.28719760E+04</pdfrwt>
<totfact> 0.18562054E+00</totfact>
</mgrwt>
</event>
<event>
12    6  0.1402540E-007  0.1051116E+04  0.7818608E-02  0.9254192E-01
         -1   -1    0    0    0  501 -0.00000000000E+00  0.00000000000E+00  0.18461882256E+03  0.18461882256E+03  0.00000000000E+00 0.  1.
          2   -1    0    0  501    0  0.00000000000E+00 -0.00000000000E+00 -0.14961169266E+04  0.14961169266E+04  0.00000000000E+00 0. -1.
         24    2    1    2    0    0  0.33210420059E+02 -0.99829325031E+02 -0.25936249693E+03  0.29218266516E+03  0.83862857514E+02 0.  0.
        254    2    1    2    0    0 -0.33210420059E+02  0.99829325031E+02 -0.10521356071E+04  0.13885530840E+04  0.90001194725E+03 0.  0.
         23    2    4    4    0    0 -0.33285209999E+02  0.28561495034E+03 -0.11280016697E+04  0.11676978025E+04  0.91905309475E+02 0.  0.
         23    2    4    4    0    0  0.74789940501E-01 -0.18578562531E+03  0.75866062678E+02  0.22085528148E+03  0.92223054216E+02 0.  0.
          2    1    3    3  502    0 -0.32228607426E+01 -0.82648273608E+02 -0.22326724586E+03  0.23809533182E+03  0.00000000000E+00 0. -1.
         -1    1    3    3    0  502  0.36433280801E+02 -0.17181051423E+02 -0.36095251072E+02  0.54087333341E+02  0.00000000000E+00 0.  1.
         11    1    5    5    0    0  0.28401961352E+02  0.66668280753E+02 -0.33299325340E+03  0.34078708584E+03  0.00000000000E+00 0.  1.
        -11    1    5    5    0    0 -0.61687171351E+02  0.21894666958E+03 -0.79500841634E+03  0.82691071663E+03  0.00000000000E+00 0. -1.
          1    1    6    6  503    0  0.67178781546E+01 -0.19540629212E+03  0.69258137248E+02  0.20742574205E+03  0.00000000000E+00 0. -1.
         -1    1    6    6    0  503 -0.66430882141E+01  0.96206668169E+01  0.66079254297E+01  0.13429539438E+02  0.00000000000E+00 0.  1.
<mgrwt>
<rscale>  0 0.10511163E+04</rscale>
<asrwt>0</asrwt>
<pdfrwt beam="1">  1        2 0.23017184E+00 0.10511163E+04</pdfrwt>
<pdfrwt beam="2">  1       -1 0.28402896E-01 0.10511163E+04</pdfrwt>
<totfact> 0.16240249E+02</totfact>
</mgrwt>
</event>
<event>
12    6  0.1402540E-007  0.1428691E+04  0.7818608E-02  0.8933309E-01
         -1   -1    0    0    0  501 -0.00000000000E+00  0.00000000000E+00  0.21214566385E+03  0.21214566385E+03  0.00000000000E+00 0.  1.
          2   -1    0    0  501    0  0.00000000000E+00 -0.00000000000E+00 -0.24053727737E+04  0.24053727737E+04  0.00000000000E+00 0. -1.
         24    2    1    2    0    0 -0.40706361525E+03  0.10175892303E+03 -0.79547890457E+03  0.90284433942E+03  0.79281450135E+02 0.  0.
        254    2    1    2    0    0  0.40706361525E+03 -0.10175892303E+03 -0.13977482053E+04  0.17146740981E+04  0.90019528556E+03 0.  0.
         23    2    4    4    0    0  0.18981264526E+03 -0.49056502294E+03 -0.66977647097E+03  0.85647822370E+03  0.90948032193E+02 0.  0.
         23    2    4    4    0    0  0.21725096999E+03  0.38880609991E+03 -0.72797173430E+03  0.85819587442E+03  0.90493898427E+02 0.  0.
          2    1    3    3  502    0 -0.79496012939E+02 -0.96210566377E+01 -0.12703232347E+03  0.15016454978E+03  0.00000000000E+00 0. -1.
         -1    1    3    3    0  502 -0.32756760231E+03  0.11137997967E+03 -0.66844658110E+03  0.75267978965E+03  0.00000000000E+00 0.  1.
         11    1    5    5    0    0  0.15555063778E+03 -0.36279361683E+03 -0.43814652160E+03  0.58973518100E+03  0.00000000000E+00 0. -1.
        -11    1    5    5    0    0  0.34262007483E+02 -0.12777140611E+03 -0.23162994938E+03  0.26674304269E+03  0.00000000000E+00 0.  1.
          2    1    6    6  503    0  0.62545350545E+02  0.14246842379E+03 -0.33408233186E+03  0.36853789102E+03  0.00000000000E+00 0. -1.
         -2    1    6    6    0  503  0.15470561945E+03  0.24633767612E+03 -0.39388940244E+03  0.48965798341E+03  0.00000000000E+00 0.  1.
<mgrwt>
<rscale>  0 0.14286909E+04</rscale>
<asrwt>0</asrwt>
<pdfrwt beam="1">  1        2 0.37005736E+00 0.14286909E+04</pdfrwt>
<pdfrwt beam="2">  1       -1 0.32637793E-01 0.14286909E+04</pdfrwt>
<totfact> 0.38493110E+01</totfact>
</mgrwt>
</event>
<event>
12    6  0.1402540E-007  0.1520783E+04  0.7818608E-02  0.8870749E-01
          2   -1    0    0  501    0  0.00000000000E+00  0.00000000000E+00  0.11418779031E+04  0.11418779031E+04  0.00000000000E+00 0. -1.
         -1   -1    0    0    0  501 -0.00000000000E+00 -0.00000000000E+00 -0.50635459958E+03  0.50635459958E+03  0.00000000000E+00 0.  1.
         24    2    1    2    0    0  0.47930375926E+03  0.93011400164E+02  0.24856221351E+03  0.55355455317E+03  0.79096492632E+02 0.  0.
        254    2    1    2    0    0 -0.47930375926E+03 -0.93011400164E+02  0.38696109001E+03  0.10946779495E+04  0.90010983426E+03 0.  0.
         23    2    4    4    0    0  0.30801710228E+02  0.12801524437E+03 -0.21567626292E+03  0.26968326408E+03  0.94213398164E+02 0.  0.
         23    2    4    4    0    0 -0.51010546949E+03 -0.22102664453E+03  0.60263735293E+03  0.82499468542E+03  0.91564645138E+02 0.  0.
          2    1    3    3  502    0  0.29433222267E+03  0.27761504244E+02  0.17809452964E+03  0.34513739280E+03  0.00000000000E+00 0. -1.
         -1    1    3    3    0  502  0.18497153659E+03  0.65249895921E+02  0.70467683861E+02  0.20841716036E+03  0.00000000000E+00 0.  1.
         11    1    5    5    0    0  0.28643357205E+01  0.47183244900E+02 -0.11984711037E+02  0.48765728920E+02  0.00000000000E+00 0. -1.
        -11    1    5    5    0    0  0.27937374508E+02  0.80831999465E+02 -0.20369155188E+03  0.22091753516E+03  0.00000000000E+00 0.  1.
          3    1    6    6  503    0 -0.25737769284E+03 -0.15524762906E+03  0.29040316291E+03  0.41794628857E+03  0.00000000000E+00 0. -1.
         -3    1    6    6    0  503 -0.25272777665E+03 -0.65779015467E+02  0.31223419001E+03  0.40704839685E+03  0.00000000000E+00 0.  1.
<mgrwt>
<rscale>  0 0.15207829E+04</rscale>
<asrwt>0</asrwt>
<pdfrwt beam="1">  1        2 0.17567352E+00 0.15207829E+04</pdfrwt>
<pdfrwt beam="2">  1       -1 0.77900708E-01 0.15207829E+04</pdfrwt>
<totfact> 0.37294470E+01</totfact>
</mgrwt>
</event>
<event>
12    6  0.1402540E-007  0.1390616E+04  0.7818608E-02  0.8960639E-01
          2   -1    0    0  501    0  0.00000000000E+00  0.00000000000E+00  0.11227359708E+04  0.11227359708E+04  0.00000000000E+00 0. -1.
         -1   -1    0    0    0  501 -0.00000000000E+00 -0.00000000000E+00 -0.43060274884E+03  0.43060274884E+03  0.00000000000E+00 0.  1.
         24    2    1    2    0    0  0.31986131330E+01  0.38187197618E+03  0.33015259283E+03  0.51122010442E+03  0.80677278652E+02 0.  0.
        254    2    1    2    0    0 -0.31986131330E+01 -0.38187197618E+03  0.36198062909E+03  0.10421186152E+04  0.89952476061E+03 0.  0.
         23    2    4    4    0    0  0.41883005167E+03 -0.23687458600E+03  0.31828085256E+03  0.58412448768E+03  0.91490624230E+02 0.  0.
         23    2    4    4    0    0 -0.42202866480E+03 -0.14499739018E+03  0.43699776524E+02  0.45799412750E+03  0.93362269074E+02 0.  0.
          2    1    3    3  502    0  0.14769805244E+02  0.33289571291E+03  0.31529809402E+03  0.45874894105E+03  0.00000000000E+00 0. -1.
         -1    1    3    3    0  502 -0.11571192111E+02  0.48976263267E+02  0.14854498818E+02  0.52471163372E+02  0.00000000000E+00 0.  1.
         11    1    5    5    0    0  0.11877046716E+03 -0.11252997026E+03  0.86246206350E+02  0.18495357846E+03  0.00000000000E+00 0. -1.
        -11    1    5    5    0    0  0.30005958451E+03 -0.12434461573E+03  0.23203464621E+03  0.39917090921E+03  0.00000000000E+00 0.  1.
          2    1    6    6  503    0 -0.11567512890E+03 -0.11587248158E+02  0.42708670759E+02  0.12385083901E+03  0.00000000000E+00 0. -1.
         -2    1    6    6    0  503 -0.30635353590E+03 -0.13341014202E+03  0.99110576492E+00  0.33414328849E+03  0.00000000000E+00 0.  1.
<mgrwt>
<rscale>  0 0.13906160E+04</rscale>
<asrwt>0</asrwt>
<pdfrwt beam="1">  1        2 0.17272861E+00 0.13906160E+04</pdfrwt>
<pdfrwt beam="2">  1       -1 0.66246577E-01 0.13906160E+04</pdfrwt>
<totfact> 0.54111209E+01</totfact>
</mgrwt>
</event>
<event>
12    6  0.1402540E-007  0.2468242E+04  0.7818608E-02  0.8414388E-01
         -1   -1    0    0    0  501 -0.00000000000E+00  0.00000000000E+00  0.67170056087E+03  0.67170056087E+03  0.00000000000E+00 0.  1.
          2   -1    0    0  501    0  0.00000000000E+00 -0.00000000000E+00 -0.22674606846E+04  0.22674606846E+04  0.00000000000E+00 0. -1.
         24    2    1    2    0    0  0.64934170596E+03  0.84474907096E+03 -0.77320023171E+03  0.13188572404E+04  0.79373661668E+02 0.  0.
        254    2    1    2    0    0 -0.64934170596E+03 -0.84474907096E+03 -0.82255989207E+03  0.16203040051E+04  0.90196155630E+03 0.  0.
         23    2    4    4    0    0 -0.62334714607E+03 -0.13112937429E+03 -0.56446862074E+03  0.85547555446E+03  0.86354056973E+02 0.  0.
         23    2    4    4    0    0 -0.25994559896E+02 -0.71361969667E+03 -0.25809127133E+03  0.76482845069E+03  0.91775083882E+02 0.  0.
          4    1    3    3  502    0  0.11778733696E+03  0.16747579004E+03 -0.18690418270E+03  0.27722765105E+03  0.00000000000E+00 0. -1.
         -3    1    3    3    0  502  0.53155436900E+03  0.67727328092E+03 -0.58629604901E+03  0.10416295893E+04  0.00000000000E+00 0.  1.
         11    1    5    5    0    0 -0.45494882466E+03 -0.10946011004E+03 -0.45973256419E+03  0.65598321573E+03  0.00000000000E+00 0. -1.
        -11    1    5    5    0    0 -0.16839832141E+03 -0.21669264245E+02 -0.10473605656E+03  0.19949233873E+03  0.00000000000E+00 0.  1.
          1    1    6    6  503    0  0.14596666950E+02 -0.45627413725E+03 -0.13085677172E+03  0.47489224642E+03  0.00000000000E+00 0. -1.
         -1    1    6    6    0  503 -0.40591226846E+02 -0.25734555942E+03 -0.12723449961E+03  0.28993620426E+03  0.00000000000E+00 0.  1.
<mgrwt>
<rscale>  0 0.24682420E+04</rscale>
<asrwt>0</asrwt>
<pdfrwt beam="1">  1        2 0.34884011E+00 0.24682420E+04</pdfrwt>
<pdfrwt beam="2">  1       -1 0.10333855E+00 0.24682420E+04</pdfrwt>
<totfact> 0.42508764E+00</totfact>
</mgrwt>
</event>
<event>
12    6  0.1402540E-007  0.1315024E+04  0.7818608E-02  0.9017735E-01
          2   -1    0    0  501    0  0.00000000000E+00  0.00000000000E+00  0.68920859830E+03  0.68920859830E+03  0.00000000000E+00 0. -1.
         -1   -1    0    0    0  501 -0.00000000000E+00 -0.00000000000E+00 -0.62727272725E+03  0.62727272725E+03  0.00000000000E+00 0.  1.
         24    2    1    2    0    0  0.24142550508E+03 -0.20411676043E+03  0.14754253640E+03  0.35793248258E+03  0.79980845502E+02 0.  0.
        254    2    1    2    0    0 -0.24142550508E+03  0.20411676043E+03 -0.85606665348E+02  0.95854884297E+03  0.90085373775E+03 0.  0.
         23    2    4    4    0    0  0.96731603435E+02  0.16337345738E+03  0.34333636527E+03  0.40286633219E+03  0.91507006361E+02 0.  0.
         23    2    4    4    0    0 -0.33815710852E+03  0.40743303050E+02 -0.42894303062E+03  0.55568251079E+03  0.93705295957E+02 0.  0.
          2    1    3    3  502    0  0.19181491557E+03 -0.16434624666E+03  0.15094660694E+03  0.29425758915E+03  0.00000000000E+00 0. -1.
         -1    1    3    3    0  502  0.49610589510E+02 -0.39770513771E+02 -0.34040705385E+01  0.63674893430E+02  0.00000000000E+00 0.  1.
         11    1    5    5    0    0  0.57292909787E+02  0.15314343075E+03  0.22819137301E+03  0.28072529386E+03  0.00000000000E+00 0. -1.
        -11    1    5    5    0    0  0.39438693648E+02  0.10230026625E+02  0.11514499226E+03  0.12214103833E+03  0.00000000000E+00 0.  1.
          1    1    6    6  503    0 -0.19527985808E+03  0.23291898961E+02 -0.31820930450E+03  0.37407739440E+03  0.00000000000E+00 0. -1.
         -1    1    6    6    0  503 -0.14287725044E+03  0.17451404089E+02 -0.11073372612E+03  0.18160511639E+03  0.00000000000E+00 0.  1.
<mgrwt>
<rscale>  0 0.13150236E+04</rscale>
<asrwt>0</asrwt>
<pdfrwt beam="1">  1        2 0.10603209E+00 0.13150236E+04</pdfrwt>
<pdfrwt beam="2">  1       -1 0.96503496E-01 0.13150236E+04</pdfrwt>
<totfact> 0.48327411E+01</totfact>
</mgrwt>
</event>
<event>
12    6  0.1402540E-007  0.1997149E+04  0.7818608E-02  0.8607955E-01
         -1   -1    0    0    0  501 -0.00000000000E+00  0.00000000000E+00  0.39001009373E+03  0.39001009373E+03  0.00000000000E+00 0.  1.
          2   -1    0    0  501    0  0.00000000000E+00 -0.00000000000E+00 -0.25567319948E+04  0.25567319948E+04  0.00000000000E+00 0. -1.
         24    2    1    2    0    0  0.16746259199E+03  0.26912947707E+02 -0.20079346786E+04  0.20166657293E+04  0.79818317534E+02 0.  0.
        254    2    1    2    0    0 -0.16746259199E+03 -0.26912947707E+02 -0.15878722251E+03  0.93007635924E+03  0.90058904364E+03 0.  0.
         23    2    4    4    0    0 -0.30219453216E+02  0.42140094920E+03 -0.12892755532E+03  0.45103781572E+03  0.91218536243E+02 0.  0.
         23    2    4    4    0    0 -0.13724313878E+03 -0.44831389690E+03 -0.29859667186E+02  0.47903854352E+03  0.93623165698E+02 0.  0.
          2    1    3    3  502    0  0.16903667181E+03  0.20249578311E+02 -0.16686984779E+04  0.16773604419E+04  0.00000000000E+00 0. -1.
         -1    1    3    3    0  502 -0.15740798121E+01  0.66633693964E+01 -0.33923620070E+03  0.33930528744E+03  0.00000000000E+00 0.  1.
         11    1    5    5    0    0 -0.62656403000E+02  0.25594473081E+03 -0.73644974626E+02  0.27360027842E+03  0.00000000000E+00 0. -1.
        -11    1    5    5    0    0  0.32436949784E+02  0.16545621839E+03 -0.55282580696E+02  0.17743753730E+03  0.00000000000E+00 0.  1.
          2    1    6    6  503    0 -0.10853737371E+03 -0.42630709591E+03 -0.39292046332E+02  0.44165820090E+03  0.00000000000E+00 0. -1.
         -2    1    6    6    0  503 -0.28705765070E+02 -0.22006800991E+02  0.94323791457E+01  0.37380342621E+02  0.00000000000E+00 0.  1.
<mgrwt>
<rscale>  0 0.19971493E+04</rscale>
<asrwt>0</asrwt>
<pdfrwt beam="1">  1        2 0.39334338E+00 0.19971493E+04</pdfrwt>
<pdfrwt beam="2">  1       -1 0.60001554E-01 0.19971493E+04</pdfrwt>
<totfact> 0.96181937E+00</totfact>
</mgrwt>
</event>
<event>
12    6  0.1402540E-007  0.1848478E+04  0.7818608E-02  0.8680936E-01
         -1   -1    0    0    0  501 -0.00000000000E+00  0.00000000000E+00  0.59772914968E+03  0.59772914968E+03  0.00000000000E+00 0.  1.
          2   -1    0    0  501    0  0.00000000000E+00 -0.00000000000E+00 -0.14291051597E+04  0.14291051597E+04  0.00000000000E+00 0. -1.
         24    2    1    2    0    0 -0.69808722574E+03  0.72333738176E+02 -0.27088907826E+03  0.75566219086E+03  0.71319769648E+02 0.  0.
        254    2    1    2    0    0  0.69808722574E+03 -0.72333738176E+02 -0.56048693178E+03  0.12711721186E+04  0.89954155538E+03 0.  0.
         23    2    4    4    0    0  0.47978958728E+03 -0.18382576405E+03  0.12669491110E+03  0.53596822737E+03  0.84972823035E+02 0.  0.
         23    2    4    4    0    0  0.21829763846E+03  0.11149202588E+03 -0.68718184288E+03  0.73520389118E+03  0.90672739221E+02 0.  0.
          2    1    3    3  502    0 -0.24757124294E+03  0.26027567681E+02 -0.13305110770E+03  0.28226149555E+03  0.00000000000E+00 0. -1.
         -1    1    3    3    0  502 -0.45051598281E+03  0.46306170494E+02 -0.13783797057E+03  0.47340069531E+03  0.00000000000E+00 0.  1.
         11    1    5    5    0    0  0.31805804718E+03 -0.14496208698E+03  0.51063551330E+02  0.35324554394E+03  0.00000000000E+00 0. -1.
        -11    1    5    5    0    0  0.16173154011E+03 -0.38863677076E+02  0.75631359766E+02  0.18272268343E+03  0.00000000000E+00 0.  1.
          4    1    6    6  503    0  0.12053370285E+03  0.80639075354E+02 -0.51288417292E+03  0.53299269116E+03  0.00000000000E+00 0. -1.
         -4    1    6    6    0  503  0.97763935614E+02  0.30852950523E+02 -0.17429766996E+03  0.20221120002E+03  0.00000000000E+00 0.  1.
<mgrwt>
<rscale>  0 0.18484781E+04</rscale>
<asrwt>0</asrwt>
<pdfrwt beam="1">  1        2 0.21986233E+00 0.18484781E+04</pdfrwt>
<pdfrwt beam="2">  1       -1 0.91958332E-01 0.18484781E+04</pdfrwt>
<totfact> 0.17188926E+01</totfact>
</mgrwt>
</event>
<event>
12    6  0.1402540E-007  0.2977690E+04  0.7818608E-02  0.8250130E-01
          2   -1    0    0  501    0  0.00000000000E+00  0.00000000000E+00  0.29555245528E+04  0.29555245528E+04  0.00000000000E+00 0. -1.
         -1   -1    0    0    0  501 -0.00000000000E+00 -0.00000000000E+00 -0.75000562968E+03  0.75000562968E+03  0.00000000000E+00 0.  1.
         24    2    1    2    0    0 -0.72354276779E+03  0.11339736071E+04  0.11707469663E+04  0.17850870307E+04  0.80479623342E+02 0.  0.
        254    2    1    2    0    0  0.72354276779E+03 -0.11339736071E+04  0.10347719568E+04  0.19204431517E+04  0.89885405821E+03 0.  0.
         23    2    4    4    0    0  0.42353060244E+03 -0.22196825930E+03 -0.25214653330E+02  0.48753588218E+03  0.91691757163E+02 0.  0.
         23    2    4    4    0    0  0.30001216535E+03 -0.91200534781E+03  0.10599866101E+04  0.14329072695E+04  0.88828912260E+02 0.  0.
          4    1    3    3  502    0 -0.40542795892E+03  0.58886475715E+03  0.58013287337E+03  0.92069956167E+03  0.00000000000E+00 0. -1.
         -3    1    3    3    0  502 -0.31811480887E+03  0.54510884996E+03  0.59061409290E+03  0.86438746905E+03  0.00000000000E+00 0.  1.
         11    1    5    5    0    0  0.16007602619E+03 -0.60265224215E+02  0.29614620675E+02  0.17358933484E+03  0.00000000000E+00 0.  1.
        -11    1    5    5    0    0  0.26345457625E+03 -0.16170303509E+03 -0.54829274006E+02  0.31394654735E+03  0.00000000000E+00 0. -1.
          4    1    6    6  503    0  0.25417320688E+03 -0.76449120087E+03  0.93494277300E+03  0.12341672513E+04  0.00000000000E+00 0. -1.
         -4    1    6    6    0  503  0.45838958469E+02 -0.14751414693E+03  0.12504383713E+03  0.19874001827E+03  0.00000000000E+00 0.  1.
<mgrwt>
<rscale>  0 0.29776904E+04</rscale>
<asrwt>0</asrwt>
<pdfrwt beam="1">  1        2 0.45469608E+00 0.29776904E+04</pdfrwt>
<pdfrwt beam="2">  1       -1 0.11538548E+00 0.29776904E+04</pdfrwt>
<totfact> 0.12308734E+00</totfact>
</mgrwt>
</event>
<event>
12    6  0.1402540E-007  0.1464749E+04  0.7818608E-02  0.8908239E-01
          4   -1    0    0  501    0  0.00000000000E+00  0.00000000000E+00  0.27039339807E+03  0.27039339807E+03  0.00000000000E+00 0. -1.
         -3   -1    0    0    0  501 -0.00000000000E+00 -0.00000000000E+00 -0.19836741310E+04  0.19836741310E+04  0.00000000000E+00 0.  1.
         24    2    1    2    0    0 -0.37561746393E+03 -0.24085693015E+03 -0.65962267036E+03  0.80001557541E+03  0.76304086619E+02 0.  0.
        254    2    1    2    0    0  0.37561746393E+03  0.24085693015E+03 -0.10536580626E+04  0.14540519537E+04  0.89720188984E+03 0.  0.
         23    2    4    4    0    0  0.19177950623E+03  0.27947268288E+02  0.11830754853E+03  0.24543949091E+03  0.93184971130E+02 0.  0.
         23    2    4    4    0    0  0.18383795770E+03  0.21290966186E+03 -0.11719656111E+04  0.12086124628E+04  0.90076482579E+02 0.  0.
          2    1    3    3  502    0 -0.27287172088E+03 -0.21051231272E+03 -0.48086604843E+03  0.59161352790E+03  0.00000000000E+00 0. -1.
         -3    1    3    3    0  502 -0.10274574306E+03 -0.30344617428E+02 -0.17875662192E+03  0.20840204751E+03  0.00000000000E+00 0.  1.
         11    1    5    5    0    0  0.88910652481E+02  0.22306186404E+02  0.10836811398E+03  0.14193772650E+03  0.00000000000E+00 0. -1.
        -11    1    5    5    0    0  0.10286885374E+03  0.56410818838E+01  0.99394345453E+01  0.10350176440E+03  0.00000000000E+00 0.  1.
          4    1    6    6  503    0  0.16888120981E+03  0.13553460719E+03 -0.85368660847E+03  0.88072204370E+03  0.00000000000E+00 0. -1.
         -4    1    6    6    0  503  0.14956747891E+02  0.77375054673E+02 -0.31827900268E+03  0.32789041911E+03  0.00000000000E+00 0.  1.
<mgrwt>
<rscale>  0 0.14647490E+04</rscale>
<asrwt>0</asrwt>
<pdfrwt beam="1">  1        4 0.41598982E-01 0.14647490E+04</pdfrwt>
<pdfrwt beam="2">  1       -3 0.30518065E+00 0.14647490E+04</pdfrwt>
<totfact> 0.44713984E-01</totfact>
</mgrwt>
</event>
<event>
12    6  0.1402540E-007  0.3808245E+04  0.7818608E-02  0.8044388E-01
          2   -1    0    0  501    0  0.00000000000E+00  0.00000000000E+00  0.22097741849E+04  0.22097741849E+04  0.00000000000E+00 0. -1.
         -1   -1    0    0    0  501 -0.00000000000E+00 -0.00000000000E+00 -0.16407478995E+04  0.16407478995E+04  0.00000000000E+00 0.  1.
         24    2    1    2    0    0  0.15204374377E+04 -0.42566748753E+02 -0.69819255559E+03  0.16754671143E+04  0.78582925739E+02 0.  0.
        254    2    1    2    0    0 -0.15204374377E+04  0.42566748753E+02  0.12672188410E+04  0.21750549700E+04  0.90082107078E+03 0.  0.
         23    2    4    4    0    0 -0.13037352580E+04 -0.18645439772E+03  0.12902800606E+04  0.18457734738E+04  0.86984001406E+02 0.  0.
         23    2    4    4    0    0 -0.21670217973E+03  0.22902114647E+03 -0.23061219566E+02  0.32928149624E+03  0.92108434408E+02 0.  0.
          4    1    3    3  502    0  0.72443584660E+03 -0.97935475732E+01 -0.29096825366E+03  0.78074690781E+03  0.00000000000E+00 0. -1.
         -3    1    3    3    0  502  0.79600159113E+03 -0.32773201180E+02 -0.40722430192E+03  0.89472020648E+03  0.00000000000E+00 0.  1.
         11    1    5    5    0    0 -0.81031528105E+03 -0.73186163122E+02  0.79357325928E+03  0.11365410626E+04  0.00000000000E+00 0.  1.
        -11    1    5    5    0    0 -0.49341997695E+03 -0.11326823460E+03  0.49670680128E+03  0.70923241117E+03  0.00000000000E+00 0. -1.
          1    1    6    6  503    0 -0.10944262848E+03  0.14434970750E+03  0.28202440326E+02  0.18333004289E+03  0.00000000000E+00 0. -1.
         -1    1    6    6    0  503 -0.10725955125E+03  0.84671438974E+02 -0.51263659892E+02  0.14595145336E+03  0.00000000000E+00 0.  1.
<mgrwt>
<rscale>  0 0.38082449E+04</rscale>
<asrwt>0</asrwt>
<pdfrwt beam="1">  1        2 0.33996526E+00 0.38082449E+04</pdfrwt>
<pdfrwt beam="2">  1       -1 0.25242275E+00 0.38082449E+04</pdfrwt>
<totfact> 0.31231706E-01</totfact>
</mgrwt>
</event>
<event>
12    6  0.1402540E-007  0.2189671E+04  0.7818608E-02  0.8522740E-01
          2   -1    0    0  501    0  0.00000000000E+00  0.00000000000E+00  0.97191233170E+03  0.97191233170E+03  0.00000000000E+00 0. -1.
         -1   -1    0    0    0  501 -0.00000000000E+00 -0.00000000000E+00 -0.12333050680E+04  0.12333050680E+04  0.00000000000E+00 0.  1.
         24    2    1    2    0    0  0.52160653827E+03  0.68249623824E+03  0.18834574113E+03  0.88302804522E+03  0.79936940647E+02 0.  0.
        254    2    1    2    0    0 -0.52160653827E+03 -0.68249623824E+03 -0.44973847743E+03  0.13221893545E+04  0.89891350809E+03 0.  0.
         23    2    4    4    0    0  0.18967896674E+03 -0.37277211022E+03 -0.13548218216E+02  0.42823994725E+03  0.90932621335E+02 0.  0.
         23    2    4    4    0    0 -0.71128550500E+03 -0.30972412802E+03 -0.43619025921E+03  0.89394940722E+03  0.83830157695E+02 0.  0.
          2    1    3    3  502    0  0.28551536652E+03  0.43048552108E+03  0.13172658215E+03  0.53309351977E+03  0.00000000000E+00 0. -1.
         -1    1    3    3    0  502  0.23609117175E+03  0.25201071716E+03  0.56619158973E+02  0.34993452545E+03  0.00000000000E+00 0.  1.
         11    1    5    5    0    0  0.10114323764E+03 -0.28704738842E+03 -0.80951821457E+00  0.30434653446E+03  0.00000000000E+00 0.  1.
        -11    1    5    5    0    0  0.88535729097E+02 -0.85724721801E+02 -0.12738700002E+02  0.12389341279E+03  0.00000000000E+00 0. -1.
          2    1    6    6  503    0 -0.24969384381E+03 -0.98422561316E+02 -0.10718176479E+03  0.28900163826E+03  0.00000000000E+00 0. -1.
         -2    1    6    6    0  503 -0.46159166119E+03 -0.21130156670E+03 -0.32900849442E+03  0.60494776896E+03  0.00000000000E+00 0.  1.
<mgrwt>
<rscale>  0 0.21896707E+04</rscale>
<asrwt>0</asrwt>
<pdfrwt beam="1">  1        2 0.14952498E+00 0.21896707E+04</pdfrwt>
<pdfrwt beam="2">  1       -1 0.18973924E+00 0.21896707E+04</pdfrwt>
<totfact> 0.48629390E+00</totfact>
</mgrwt>
</event>
<event>
12    6  0.1402540E-007  0.1242887E+04  0.7818608E-02  0.9076124E-01
         -1   -1    0    0    0  501 -0.00000000000E+00  0.00000000000E+00  0.21227581032E+03  0.21227581032E+03  0.00000000000E+00 0.  1.
          2   -1    0    0  501    0  0.00000000000E+00 -0.00000000000E+00 -0.18192948427E+04  0.18192948427E+04  0.00000000000E+00 0. -1.
         24    2    1    2    0    0  0.53638035358E+02  0.12765903099E+03  0.19363571279E+02  0.15969735623E+03  0.77164957475E+02 0.  0.
        254    2    1    2    0    0 -0.53638035358E+02 -0.12765903099E+03 -0.16263826036E+04  0.18718732967E+04  0.91630529776E+03 0.  0.
         23    2    4    4    0    0 -0.17546714695E+03 -0.48317450534E+03 -0.74422647214E+03  0.90864859362E+03  0.86734667731E+02 0.  0.
         23    2    4    4    0    0  0.12182911160E+03  0.35551547435E+03 -0.88215613147E+03  0.96322470312E+03  0.91481164592E+02 0.  0.
          4    1    3    3  502    0  0.67159083912E+02  0.74203886697E+02 -0.31676472834E+01  0.10013287843E+03  0.00000000000E+00 0. -1.
         -3    1    3    3    0  502 -0.13521048553E+02  0.53455144296E+02  0.22531218563E+02  0.59564477800E+02  0.00000000000E+00 0.  1.
         11    1    5    5    0    0 -0.69206102484E+02 -0.11489404369E+03 -0.14695589829E+03  0.19896271495E+03  0.00000000000E+00 0. -1.
        -11    1    5    5    0    0 -0.10626104447E+03 -0.36828046165E+03 -0.59727057385E+03  0.70968587867E+03  0.00000000000E+00 0.  1.
          2    1    6    6  503    0  0.41218737494E+01  0.32088768033E+02 -0.16007464077E+03  0.16331126567E+03  0.00000000000E+00 0. -1.
         -2    1    6    6    0  503  0.11770723785E+03  0.32342670632E+03 -0.72208149070E+03  0.79991343745E+03  0.00000000000E+00 0.  1.
<mgrwt>
<rscale>  0 0.12428874E+04</rscale>
<asrwt>0</asrwt>
<pdfrwt beam="1">  1        2 0.27989151E+00 0.12428874E+04</pdfrwt>
<pdfrwt beam="2">  1       -1 0.32657817E-01 0.12428874E+04</pdfrwt>
<totfact> 0.82894067E+01</totfact>
</mgrwt>
</event>
<event>
12    6  0.1402540E-007  0.2447514E+04  0.7818608E-02  0.8421926E-01
         -1   -1    0    0    0  501 -0.00000000000E+00  0.00000000000E+00  0.31804549073E+03  0.31804549073E+03  0.00000000000E+00 0.  1.
          2   -1    0    0  501    0  0.00000000000E+00 -0.00000000000E+00 -0.47086999497E+04  0.47086999497E+04  0.00000000000E+00 0. -1.
         24    2    1    2    0    0 -0.91455353058E+03 -0.48092672881E+03 -0.14488574945E+04  0.17813446088E+04  0.79384488638E+02 0.  0.
        254    2    1    2    0    0  0.91455353058E+03  0.48092672881E+03 -0.29417969644E+04  0.32454008316E+04  0.90042128985E+03 0.  0.
         23    2    4    4    0    0  0.57395886342E+03  0.41755874545E+03 -0.27440709245E+04  0.28358142585E+04  0.90184186015E+02 0.  0.
         23    2    4    4    0    0  0.34059466716E+03  0.63367983360E+02 -0.19772603997E+03  0.40958657313E+03  0.92980349516E+02 0.  0.
          2    1    3    3  502    0 -0.82912893731E+03 -0.43595663004E+03 -0.13499760979E+04  0.16431519841E+04  0.00000000000E+00 0. -1.
         -1    1    3    3    0  502 -0.85424593270E+02 -0.44970098775E+02 -0.98881396626E+02  0.13819262469E+03  0.00000000000E+00 0.  1.
         11    1    5    5    0    0  0.18669498450E+02  0.64695331457E+01 -0.36733531261E+02  0.41710398589E+02  0.00000000000E+00 0. -1.
        -11    1    5    5    0    0  0.55528936497E+03  0.41108921231E+03 -0.27073373932E+04  0.27941038599E+04  0.00000000000E+00 0.  1.
          2    1    6    6  503    0  0.13171835413E+03  0.45411177858E+02 -0.12645548153E+03  0.18815655370E+03  0.00000000000E+00 0. -1.
         -2    1    6    6    0  503  0.20887631302E+03  0.17956805502E+02 -0.71270558440E+02  0.22143001943E+03  0.00000000000E+00 0.  1.
<mgrwt>
<rscale>  0 0.24475137E+04</rscale>
<asrwt>0</asrwt>
<pdfrwt beam="1">  1        2 0.72441538E+00 0.24475137E+04</pdfrwt>
<pdfrwt beam="2">  1       -1 0.48930075E-01 0.24475137E+04</pdfrwt>
<totfact> 0.32274102E-01</totfact>
</mgrwt>
</event>
<event>
12    6  0.1402540E-007  0.1254410E+04  0.7818608E-02  0.9066521E-01
          2   -1    0    0  501    0  0.00000000000E+00  0.00000000000E+00  0.60715349300E+03  0.60715349300E+03  0.00000000000E+00 0. -1.
         -1   -1    0    0    0  501 -0.00000000000E+00 -0.00000000000E+00 -0.64791864460E+03  0.64791864460E+03  0.00000000000E+00 0.  1.
         24    2    1    2    0    0  0.10691678220E+03  0.26813651495E+03  0.52152396500E+02  0.30398113663E+03  0.79726219052E+02 0.  0.
        254    2    1    2    0    0 -0.10691678220E+03 -0.26813651495E+03 -0.92917548095E+02  0.95109100097E+03  0.90144996112E+03 0.  0.
         23    2    4    4    0    0 -0.23238189557E+03 -0.18067212290E+03  0.35445143317E+03  0.46926673441E+03  0.89060025660E+02 0.  0.
         23    2    4    4    0    0  0.12546511337E+03 -0.87464392048E+02 -0.44736898127E+03  0.48182426655E+03  0.92866053500E+02 0.  0.
          4    1    3    3  502    0 -0.12270883704E+02  0.15749125157E+02  0.74465525045E+01  0.21308699498E+02  0.00000000000E+00 0. -1.
         -3    1    3    3    0  502  0.11918766591E+03  0.25238738979E+03  0.44705843995E+02  0.28267243714E+03  0.00000000000E+00 0.  1.
         11    1    5    5    0    0 -0.19302891208E+03 -0.13455170826E+03  0.32663979995E+03  0.40256413402E+03  0.00000000000E+00 0. -1.
        -11    1    5    5    0    0 -0.39352983487E+02 -0.46120414643E+02  0.27811633224E+02  0.66702600390E+02  0.00000000000E+00 0.  1.
          2    1    6    6  503    0  0.93596981770E+02 -0.10028708017E+03 -0.40302760878E+03  0.42573365721E+03  0.00000000000E+00 0. -1.
         -2    1    6    6    0  503  0.31868131595E+02  0.12822688126E+02 -0.44341372489E+02  0.56090609342E+02  0.00000000000E+00 0.  1.
<mgrwt>
<rscale>  0 0.12544099E+04</rscale>
<asrwt>0</asrwt>
<pdfrwt beam="1">  1        2 0.93408230E-01 0.12544099E+04</pdfrwt>
<pdfrwt beam="2">  1       -1 0.99679792E-01 0.12544099E+04</pdfrwt>
<totfact> 0.52769247E+01</totfact>
</mgrwt>
</event>
<event>
12    6  0.1402540E-007  0.2467133E+04  0.7818608E-02  0.8414789E-01
          2   -1    0    0  501    0  0.00000000000E+00  0.00000000000E+00  0.15232913266E+04  0.15232913266E+04  0.00000000000E+00 0. -1.
         -1   -1    0    0    0  501 -0.00000000000E+00 -0.00000000000E+00 -0.99894627488E+03  0.99894627488E+03  0.00000000000E+00 0.  1.
         24    2    1    2    0    0  0.62436885283E+03  0.14711299563E+03  0.10982368868E+04  0.12763122727E+04  0.10663048356E+03 0.  0.
        254    2    1    2    0    0 -0.62436885283E+03 -0.14711299563E+03 -0.57389183506E+03  0.12459253288E+04  0.90083260862E+03 0.  0.
         23    2    4    4    0    0 -0.25972276774E+03 -0.45147020288E+03 -0.47189058452E+02  0.53055955215E+03  0.89360902906E+02 0.  0.
         23    2    4    4    0    0 -0.36464608509E+03  0.30435720725E+03 -0.52670277661E+03  0.71536577666E+03  0.93446790011E+02 0.  0.
          4    1    3    3  502    0  0.54251235415E+03  0.14636936179E+03  0.88974534383E+03  0.10523261953E+04  0.00000000000E+00 0. -1.
         -3    1    3    3    0  502  0.81856498681E+02  0.74363383410E+00  0.20849154300E+03  0.22398607740E+03  0.00000000000E+00 0.  1.
         11    1    5    5    0    0 -0.62539305606E+02 -0.19575352452E+03 -0.21678851750E+02  0.20664118592E+03  0.00000000000E+00 0.  1.
        -11    1    5    5    0    0 -0.19718346214E+03 -0.25571667836E+03 -0.25510206702E+02  0.32391836622E+03  0.00000000000E+00 0. -1.
          3    1    6    6  503    0 -0.18929048687E+02  0.51850442096E+02 -0.73650472752E+02  0.92038955700E+02  0.00000000000E+00 0. -1.
         -3    1    6    6    0  503 -0.34571703640E+03  0.25250676515E+03 -0.45305230386E+03  0.62332682097E+03  0.00000000000E+00 0.  1.
<mgrwt>
<rscale>  0 0.24671329E+04</rscale>
<asrwt>0</asrwt>
<pdfrwt beam="1">  1        2 0.23435251E+00 0.24671329E+04</pdfrwt>
<pdfrwt beam="2">  1       -1 0.15368404E+00 0.24671329E+04</pdfrwt>
<totfact> 0.40977376E+00</totfact>
</mgrwt>
</event>
<event>
12    6  0.1402540E-007  0.2357923E+04  0.7818608E-02  0.8455427E-01
         -1   -1    0    0    0  501 -0.00000000000E+00  0.00000000000E+00  0.65740437100E+03  0.65740437100E+03  0.00000000000E+00 0.  1.
          2   -1    0    0  501    0  0.00000000000E+00 -0.00000000000E+00 -0.21143009930E+04  0.21143009930E+04  0.00000000000E+00 0. -1.
         24    2    1    2    0    0 -0.38004348969E+03 -0.88018976249E+03 -0.97159281829E+03  0.13672788935E+04  0.79321471829E+02 0.  0.
        254    2    1    2    0    0  0.38004348969E+03  0.88018976249E+03 -0.48530380370E+03  0.14044264705E+04  0.90428250961E+03 0.  0.
         23    2    4    4    0    0  0.29852875488E+03  0.61492665919E+03 -0.74353786207E+03  0.10142860007E+04  0.93130688743E+02 0.  0.
         23    2    4    4    0    0  0.81514734804E+02  0.26526310330E+03  0.25823405836E+03  0.39014046985E+03  0.92279961788E+02 0.  0.
          4    1    3    3  502    0 -0.21190642935E+03 -0.53716238527E+03 -0.63283838811E+03  0.85669842326E+03  0.00000000000E+00 0. -1.
         -3    1    3    3    0  502 -0.16813706033E+03 -0.34302737722E+03 -0.33875443019E+03  0.51058047020E+03  0.00000000000E+00 0.  1.
         11    1    5    5    0    0  0.16035743554E+03  0.32330111050E+03 -0.46036700257E+03  0.58495802605E+03  0.00000000000E+00 0.  1.
        -11    1    5    5    0    0  0.13817131934E+03  0.29162554869E+03 -0.28317085950E+03  0.42932797464E+03  0.00000000000E+00 0. -1.
          4    1    6    6  503    0  0.68788349417E+01  0.11000123000E+02  0.54115473452E+02  0.55648949164E+02  0.00000000000E+00 0. -1.
         -4    1    6    6    0  503  0.74635899862E+02  0.25426298030E+03  0.20411858491E+03  0.33449152068E+03  0.00000000000E+00 0.  1.
<mgrwt>
<rscale>  0 0.23579234E+04</rscale>
<asrwt>0</asrwt>
<pdfrwt beam="1">  1        2 0.32527707E+00 0.23579234E+04</pdfrwt>
<pdfrwt beam="2">  1       -1 0.10113913E+00 0.23579234E+04</pdfrwt>
<totfact> 0.54996560E+00</totfact>
</mgrwt>
</event>
<event>
12    6  0.1402540E-007  0.1413066E+04  0.7818608E-02  0.8944415E-01
         -1   -1    0    0    0  501 -0.00000000000E+00  0.00000000000E+00  0.33503970334E+04  0.33503970334E+04  0.00000000000E+00 0.  1.
          4   -1    0    0  501    0  0.00000000000E+00 -0.00000000000E+00 -0.14899397195E+03  0.14899397195E+03  0.00000000000E+00 0. -1.
         24    2    1    2    0    0  0.67634017960E+02  0.10547047581E+03 -0.21693516652E+02  0.15036276739E+03  0.80249433019E+02 0.  0.
        254    2    1    2    0    0 -0.67634017960E+02 -0.10547047581E+03  0.32230965781E+04  0.33490282379E+04  0.90107724711E+03 0.  0.
         23    2    4    4    0    0  0.21079945842E+03  0.59880783194E+02  0.27938678556E+04  0.28039646343E+04  0.92184357369E+02 0.  0.
         23    2    4    4    0    0 -0.27843347638E+03 -0.16535125901E+03  0.42922872246E+03  0.54506360366E+03  0.89391253659E+02 0.  0.
          2    1    3    3  502    0  0.47646586829E+02  0.11652968481E+03 -0.16918133481E+02  0.12702593404E+03  0.00000000000E+00 0. -1.
         -1    1    3    3    0  502  0.19987431132E+02 -0.11059208992E+02 -0.47753831702E+01  0.23336833358E+02  0.00000000000E+00 0.  1.
         11    1    5    5    0    0  0.10663626123E+03  0.55877109422E+02  0.19446665435E+04  0.19483894654E+04  0.00000000000E+00 0.  1.
        -11    1    5    5    0    0  0.10416319719E+03  0.40036737721E+01  0.84920131214E+03  0.85557516887E+03  0.00000000000E+00 0. -1.
          1    1    6    6  503    0 -0.16645021376E+03 -0.53244599747E+02  0.25956264732E+03  0.31291121576E+03  0.00000000000E+00 0. -1.
         -1    1    6    6    0  503 -0.11198326262E+03 -0.11210665926E+03  0.16966607514E+03  0.23215238791E+03  0.00000000000E+00 0.  1.
<mgrwt>
<rscale>  0 0.14130661E+04</rscale>
<asrwt>0</asrwt>
<pdfrwt beam="1">  1        4 0.22922152E-01 0.14130661E+04</pdfrwt>
<pdfrwt beam="2">  1       -1 0.51544564E+00 0.14130661E+04</pdfrwt>
<totfact> 0.89032140E-02</totfact>
</mgrwt>
</event>
<event>
12    6  0.1402540E-007  0.1772414E+04  0.7818608E-02  0.8721108E-01
         -1   -1    0    0    0  501 -0.00000000000E+00  0.00000000000E+00  0.22186584946E+03  0.22186584946E+03  0.00000000000E+00 0.  1.
          2   -1    0    0  501    0  0.00000000000E+00 -0.00000000000E+00 -0.35398100983E+04  0.35398100983E+04  0.00000000000E+00 0. -1.
         24    2    1    2    0    0 -0.29358940142E+03  0.55462584971E+03 -0.85866887440E+03  0.10665377171E+04  0.79911804148E+02 0.  0.
        254    2    1    2    0    0  0.29358940142E+03 -0.55462584971E+03 -0.24592753744E+04  0.26951382306E+04  0.90660363169E+03 0.  0.
         23    2    4    4    0    0 -0.11333655203E+02  0.22282081209E+03 -0.78829667725E+03  0.82483555520E+03  0.95731268241E+02 0.  0.
         23    2    4    4    0    0  0.30492305662E+03 -0.77744666180E+03 -0.16709786971E+04  0.18703026754E+04  0.91983198440E+02 0.  0.
          4    1    3    3  502    0 -0.24804656157E+03  0.51419377538E+03 -0.75905896250E+03  0.94978568314E+03  0.00000000000E+00 0. -1.
         -3    1    3    3    0  502 -0.45542839848E+02  0.40432074330E+02 -0.99609911898E+02  0.11675203401E+03  0.00000000000E+00 0.  1.
         11    1    5    5    0    0  0.12702700381E+02  0.10127630297E+03 -0.51135246112E+03  0.52143991757E+03  0.00000000000E+00 0.  1.
        -11    1    5    5    0    0 -0.24036355584E+02  0.12154450911E+03 -0.27694421613E+03  0.30339563763E+03  0.00000000000E+00 0. -1.
          3    1    6    6  503    0  0.16633629959E+03 -0.44381247384E+03 -0.10470778491E+04  0.11493516862E+04  0.00000000000E+00 0. -1.
         -3    1    6    6    0  503  0.13858675703E+03 -0.33363418795E+03 -0.62390084806E+03  0.72095098918E+03  0.00000000000E+00 0.  1.
<mgrwt>
<rscale>  0 0.17724141E+04</rscale>
<asrwt>0</asrwt>
<pdfrwt beam="1">  1        2 0.54458620E+00 0.17724141E+04</pdfrwt>
<pdfrwt beam="2">  1       -1 0.34133206E-01 0.17724141E+04</pdfrwt>
<totfact> 0.67245081E+00</totfact>
</mgrwt>
</event>
<event>
12    6  0.1402540E-007  0.1898269E+04  0.7818608E-02  0.8655719E-01
         -1   -1    0    0    0  501 -0.00000000000E+00  0.00000000000E+00  0.91046108742E+03  0.91046108742E+03  0.00000000000E+00 0.  1.
          2   -1    0    0  501    0  0.00000000000E+00 -0.00000000000E+00 -0.98945013862E+03  0.98945013862E+03  0.00000000000E+00 0. -1.
         24    2    1    2    0    0  0.41605227410E+03  0.42643202936E+03 -0.45911011312E+03  0.75619356140E+03  0.78120649583E+02 0.  0.
        254    2    1    2    0    0 -0.41605227410E+03 -0.42643202936E+03  0.38012106192E+03  0.11437176646E+04  0.89925208047E+03 0.  0.
         23    2    4    4    0    0 -0.28659450943E+03 -0.39171784576E+03  0.65809770045E+03  0.82215955350E+03  0.85290471601E+02 0.  0.
         23    2    4    4    0    0 -0.12945776467E+03 -0.34714183603E+02 -0.27797663853E+03  0.32155811114E+03  0.90356072792E+02 0.  0.
          4    1    3    3  502    0  0.10146704513E+03  0.14745537682E+03 -0.16124081546E+03  0.24090921520E+03  0.00000000000E+00 0. -1.
         -3    1    3    3    0  502  0.31458522897E+03  0.27897665254E+03 -0.29786929766E+03  0.51528434620E+03  0.00000000000E+00 0.  1.
         11    1    5    5    0    0 -0.24368701583E+03 -0.34824680236E+03  0.61425714226E+03  0.74697458715E+03  0.00000000000E+00 0. -1.
        -11    1    5    5    0    0 -0.42907493605E+02 -0.43471043401E+02  0.43840558194E+02  0.75184966346E+02  0.00000000000E+00 0.  1.
          3    1    6    6  503    0 -0.13733935435E+03 -0.47471085636E+02 -0.26231965135E+03  0.29987864497E+03  0.00000000000E+00 0. -1.
         -3    1    6    6    0  503  0.78815896860E+01  0.12756902033E+02 -0.15656987182E+02  0.21679466162E+02  0.00000000000E+00 0.  1.
<mgrwt>
<rscale>  0 0.18982685E+04</rscale>
<asrwt>0</asrwt>
<pdfrwt beam="1">  1        2 0.15222310E+00 0.18982685E+04</pdfrwt>
<pdfrwt beam="2">  1       -1 0.14007094E+00 0.18982685E+04</pdfrwt>
<totfact> 0.11446281E+01</totfact>
</mgrwt>
</event>
<event>
12    6  0.1402540E-007  0.2282542E+04  0.7818608E-02  0.8484837E-01
          2   -1    0    0  501    0  0.00000000000E+00  0.00000000000E+00  0.27891981644E+04  0.27891981644E+04  0.00000000000E+00 0. -1.
         -1   -1    0    0    0  501 -0.00000000000E+00 -0.00000000000E+00 -0.46697970514E+03  0.46697970514E+03  0.00000000000E+00 0.  1.
         24    2    1    2    0    0 -0.32291185275E+03 -0.44403972631E+03 -0.14533864336E+03  0.57354375138E+03  0.79911014908E+02 0.  0.
        254    2    1    2    0    0  0.32291185275E+03  0.44403972631E+03  0.24675571026E+04  0.26826341181E+04  0.89791113924E+03 0.  0.
         23    2    4    4    0    0  0.21377165544E+02  0.78352058634E+02 -0.40680218519E+02  0.12840091746E+03  0.90751788555E+02 0.  0.
         23    2    4    4    0    0  0.30153468721E+03  0.36568766768E+03  0.25082373211E+04  0.25542332007E+04  0.90565702600E+02 0.  0.
          4    1    3    3  502    0 -0.13596235428E+03 -0.19600393734E+03 -0.22745179864E+02  0.23962605960E+03  0.00000000000E+00 0. -1.
         -3    1    3    3    0  502 -0.18694949848E+03 -0.24803578897E+03 -0.12259346350E+03  0.33391769178E+03  0.00000000000E+00 0.  1.
         11    1    5    5    0    0  0.56228551974E+02  0.55796223925E+02 -0.18550299622E+02  0.81357128006E+02  0.00000000000E+00 0. -1.
        -11    1    5    5    0    0 -0.34851386429E+02  0.22555834709E+02 -0.22129918897E+02  0.47043789450E+02  0.00000000000E+00 0.  1.
          1    1    6    6  503    0  0.25477484420E+03  0.34817212993E+03  0.22979116045E+04  0.23380615465E+04  0.00000000000E+00 0. -1.
         -1    1    6    6    0  503  0.46759843014E+02  0.17515537750E+02  0.21032571660E+03  0.21617165412E+03  0.00000000000E+00 0.  1.
<mgrwt>
<rscale>  0 0.22825415E+04</rscale>
<asrwt>0</asrwt>
<pdfrwt beam="1">  1        2 0.42910740E+00 0.22825415E+04</pdfrwt>
<pdfrwt beam="2">  1       -1 0.71843034E-01 0.22825415E+04</pdfrwt>
<totfact> 0.47435116E+00</totfact>
</mgrwt>
</event>
<event>
12    6  0.1402540E-007  0.2101148E+04  0.7818608E-02  0.8560738E-01
         -1   -1    0    0    0  501 -0.00000000000E+00  0.00000000000E+00  0.32226362980E+03  0.32226362980E+03  0.00000000000E+00 0.  1.
          2   -1    0    0  501    0  0.00000000000E+00 -0.00000000000E+00 -0.34248548996E+04  0.34248548996E+04  0.00000000000E+00 0. -1.
         24    2    1    2    0    0 -0.45612968803E+03 -0.63919201890E+03 -0.18752030308E+04  0.20344760655E+04  0.78011058585E+02 0.  0.
        254    2    1    2    0    0  0.45612968803E+03  0.63919201890E+03 -0.12273882390E+04  0.17126424639E+04  0.90002310550E+03 0.  0.
         23    2    4    4    0    0  0.39797680416E+03  0.79872467413E+03 -0.12275227057E+04  0.15201949144E+04  0.88509564702E+02 0.  0.
         23    2    4    4    0    0  0.58152883867E+02 -0.15953265523E+03  0.13446669393E+00  0.19244754946E+03  0.90573810920E+02 0.  0.
          4    1    3    3  502    0 -0.25949242521E+03 -0.38444831284E+03 -0.11994812720E+04  0.12860373812E+04  0.00000000000E+00 0. -1.
         -3    1    3    3    0  502 -0.19663726281E+03 -0.25474370606E+03 -0.67572175873E+03  0.74843868428E+03  0.00000000000E+00 0.  1.
         11    1    5    5    0    0  0.32139419882E+03  0.70510147716E+03 -0.10374409925E+04  0.12948923264E+04  0.00000000000E+00 0.  1.
        -11    1    5    5    0    0  0.76582605347E+02  0.93623196969E+02 -0.19008171324E+03  0.22530258800E+03  0.00000000000E+00 0. -1.
          4    1    6    6  503    0  0.24891080285E+02 -0.32348531657E+02  0.37868347253E+02  0.55677689443E+02  0.00000000000E+00 0. -1.
         -4    1    6    6    0  503  0.33261803582E+02 -0.12718412357E+03 -0.37733880559E+02  0.13676986001E+03  0.00000000000E+00 0.  1.
<mgrwt>
<rscale>  0 0.21011484E+04</rscale>
<asrwt>0</asrwt>
<pdfrwt beam="1">  1        2 0.52690072E+00 0.21011484E+04</pdfrwt>
<pdfrwt beam="2">  1       -1 0.49579023E-01 0.21011484E+04</pdfrwt>
<totfact> 0.39370821E+00</totfact>
</mgrwt>
</event>
<event>
12    6  0.1402540E-007  0.3357798E+04  0.7818608E-02  0.8148342E-01
         -1   -1    0    0    0  501 -0.00000000000E+00  0.00000000000E+00  0.15831438180E+04  0.15831438180E+04  0.00000000000E+00 0.  1.
          2   -1    0    0  501    0  0.00000000000E+00 -0.00000000000E+00 -0.17804455853E+04  0.17804455853E+04  0.00000000000E+00 0. -1.
         24    2    1    2    0    0 -0.58404544818E+03  0.10161227134E+04 -0.11186206339E+04  0.16221336556E+04  0.79943853205E+02 0.  0.
        254    2    1    2    0    0  0.58404544818E+03 -0.10161227134E+04  0.92131886667E+03  0.17414557478E+04  0.90012510968E+03 0.  0.
         23    2    4    4    0    0 -0.10543455850E+03 -0.65961873536E+03  0.27755946742E+03  0.72892343376E+03  0.89870975139E+02 0.  0.
         23    2    4    4    0    0  0.68948000668E+03 -0.35650397804E+03  0.64375939925E+03  0.10125323140E+04  0.91201736704E+02 0.  0.
          4    1    3    3  502    0 -0.37824203278E+03  0.64583134731E+03 -0.66123320981E+03  0.99869641147E+03  0.00000000000E+00 0. -1.
         -3    1    3    3    0  502 -0.20580341539E+03  0.37029136609E+03 -0.45738742413E+03  0.62343724410E+03  0.00000000000E+00 0.  1.
         11    1    5    5    0    0 -0.10461327691E+03 -0.60030664763E+03  0.27759631846E+03  0.66960564881E+03  0.00000000000E+00 0.  1.
        -11    1    5    5    0    0 -0.82128159807E+00 -0.59312087723E+02 -0.36851037272E-01  0.59317784951E+02  0.00000000000E+00 0. -1.
          3    1    6    6  503    0  0.53090718053E+03 -0.27876435011E+03  0.54436518858E+03  0.80987990206E+03  0.00000000000E+00 0. -1.
         -3    1    6    6    0  503  0.15857282615E+03 -0.77739627931E+02  0.99394210676E+02  0.20265241193E+03  0.00000000000E+00 0.  1.
<mgrwt>
<rscale>  0 0.33577977E+04</rscale>
<asrwt>0</asrwt>
<pdfrwt beam="1">  1        2 0.27391471E+00 0.33577977E+04</pdfrwt>
<pdfrwt beam="2">  1       -1 0.24356059E+00 0.33577977E+04</pdfrwt>
<totfact> 0.64296454E-01</totfact>
</mgrwt>
</event>
<event>
12    6  0.1402540E-007  0.1230084E+04  0.7818608E-02  0.9086924E-01
          2   -1    0    0  501    0  0.00000000000E+00  0.00000000000E+00  0.48839407231E+03  0.48839407231E+03  0.00000000000E+00 0. -1.
         -1   -1    0    0    0  501 -0.00000000000E+00 -0.00000000000E+00 -0.77453120489E+03  0.77453120489E+03  0.00000000000E+00 0.  1.
         24    2    1    2    0    0  0.92653704854E+02  0.20106819171E+03  0.10413816749E+03  0.25670702006E+03  0.77721357932E+02 0.  0.
        254    2    1    2    0    0 -0.92653704854E+02 -0.20106819171E+03 -0.39027530007E+03  0.10062182571E+04  0.90063713250E+03 0.  0.
         23    2    4    4    0    0 -0.39074645836E+03 -0.27023829389E+03 -0.47283992738E+03  0.67637467687E+03  0.90518375968E+02 0.  0.
         23    2    4    4    0    0  0.29809275351E+03  0.69170102180E+02  0.82564627306E+02  0.32984358027E+03  0.91302119555E+02 0.  0.
          2    1    3    3  502    0  0.37965158608E+02  0.16440630131E+03  0.77553444501E+02  0.18570223997E+03  0.00000000000E+00 0. -1.
         -1    1    3    3    0  502  0.54688546246E+02  0.36661890401E+02  0.26584722985E+02  0.71004780082E+02  0.00000000000E+00 0.  1.
         11    1    5    5    0    0 -0.24838055772E+03 -0.19909807714E+03 -0.26244199664E+03  0.41256362827E+03  0.00000000000E+00 0. -1.
        -11    1    5    5    0    0 -0.14236590064E+03 -0.71140216747E+02 -0.21039793074E+03  0.26381104860E+03  0.00000000000E+00 0.  1.
          2    1    6    6  503    0  0.11700257640E+03  0.67827936555E+02  0.13067815503E+02  0.13587126136E+03  0.00000000000E+00 0. -1.
         -2    1    6    6    0  503  0.18109017711E+03  0.13421656251E+01  0.69496811803E+02  0.19397231891E+03  0.00000000000E+00 0.  1.
<mgrwt>
<rscale>  0 0.12300837E+04</rscale>
<asrwt>0</asrwt>
<pdfrwt beam="1">  1        2 0.75137550E-01 0.12300837E+04</pdfrwt>
<pdfrwt beam="2">  1       -1 0.11915865E+00 0.12300837E+04</pdfrwt>
<totfact> 0.44911998E+01</totfact>
</mgrwt>
</event>
<event>
12    6  0.1402540E-007  0.1436507E+04  0.7818608E-02  0.8927809E-01
         -1   -1    0    0    0  501 -0.00000000000E+00  0.00000000000E+00  0.86106503331E+03  0.86106503331E+03  0.00000000000E+00 0.  1.
          2   -1    0    0  501    0  0.00000000000E+00 -0.00000000000E+00 -0.59912768091E+03  0.59912768091E+03  0.00000000000E+00 0. -1.
         24    2    1    2    0    0  0.37079008866E+03 -0.21623024531E+03  0.49570850744E+02  0.43913792323E+03  0.78383911211E+02 0.  0.
        254    2    1    2    0    0 -0.37079008866E+03  0.21623024531E+03  0.21236650165E+03  0.10210547910E+04  0.90178298184E+03 0.  0.
         23    2    4    4    0    0 -0.28555958303E+03  0.18216061448E+03  0.55433677502E+03  0.65532755197E+03  0.86244856687E+02 0.  0.
         23    2    4    4    0    0 -0.85230505631E+02  0.34069630838E+02 -0.34197027337E+03  0.36572723902E+03  0.91584751234E+02 0.  0.
          2    1    3    3  502    0  0.58594730708E+02 -0.19742303762E+02 -0.17385917585E+02  0.64229052265E+02  0.00000000000E+00 0. -1.
         -1    1    3    3    0  502  0.31219535795E+03 -0.19648794155E+03  0.66956768328E+02  0.37490887096E+03  0.00000000000E+00 0.  1.
         11    1    5    5    0    0 -0.14814795603E+03  0.66332645309E+02  0.19630824553E+03  0.25472487898E+03  0.00000000000E+00 0.  1.
        -11    1    5    5    0    0 -0.13741162700E+03  0.11582796917E+03  0.35802852949E+03  0.40060267299E+03  0.00000000000E+00 0. -1.
          4    1    6    6  503    0 -0.79733410260E+02  0.39093547347E+02 -0.15520556659E+03  0.17881412153E+03  0.00000000000E+00 0. -1.
         -4    1    6    6    0  503 -0.54970953710E+01 -0.50239165089E+01 -0.18676470677E+03  0.18691311749E+03  0.00000000000E+00 0.  1.
<mgrwt>
<rscale>  0 0.14365067E+04</rscale>
<asrwt>0</asrwt>
<pdfrwt beam="1">  1        2 0.92173489E-01 0.14365067E+04</pdfrwt>
<pdfrwt beam="2">  1       -1 0.13247154E+00 0.14365067E+04</pdfrwt>
<totfact> 0.26652341E+01</totfact>
</mgrwt>
</event>
<event>
12    6  0.1402540E-007  0.2061632E+04  0.7818608E-02  0.8578336E-01
         -1   -1    0    0    0  501 -0.00000000000E+00  0.00000000000E+00  0.69923440666E+03  0.69923440666E+03  0.00000000000E+00 0.  1.
          2   -1    0    0  501    0  0.00000000000E+00 -0.00000000000E+00 -0.15196361474E+04  0.15196361474E+04  0.00000000000E+00 0. -1.
         24    2    1    2    0    0 -0.61457720218E+03  0.82429725786E+02  0.26399838835E+03  0.67905041826E+03  0.83153619008E+02 0.  0.
        254    2    1    2    0    0  0.61457720218E+03 -0.82429725786E+02 -0.10844001290E+04  0.15398201358E+04  0.90034582994E+03 0.  0.
         23    2    4    4    0    0  0.55213348605E+03  0.31548790916E+03 -0.85131810655E+03  0.10665196524E+04  0.91310696067E+02 0.  0.
         23    2    4    4    0    0  0.62443716125E+02 -0.39791763495E+03 -0.23308202250E+03  0.47330048334E+03  0.86304440394E+02 0.  0.
          4    1    3    3  502    0 -0.64959006478E+02  0.16774973118E+02  0.32093617238E+01  0.67166749574E+02  0.00000000000E+00 0. -1.
         -1    1    3    3    0  502 -0.54961819570E+03  0.65654752668E+02  0.26078902663E+03  0.61188366868E+03  0.00000000000E+00 0.  1.
         11    1    5    5    0    0  0.20070619761E+03  0.72612768907E+02 -0.32214173797E+03  0.38643355355E+03  0.00000000000E+00 0. -1.
        -11    1    5    5    0    0  0.35142728844E+03  0.24287514026E+03 -0.52917636859E+03  0.68008609888E+03  0.00000000000E+00 0.  1.
          1    1    6    6  503    0 -0.11820581486E+02 -0.10142068532E+03 -0.30348355016E+02  0.10652184851E+03  0.00000000000E+00 0. -1.
         -1    1    6    6    0  503  0.74264297611E+02 -0.29649694963E+03 -0.20273366748E+03  0.36677863483E+03  0.00000000000E+00 0.  1.
<mgrwt>
<rscale>  0 0.20616322E+04</rscale>
<asrwt>0</asrwt>
<pdfrwt beam="1">  1        2 0.23379017E+00 0.20616322E+04</pdfrwt>
<pdfrwt beam="2">  1       -1 0.10757453E+00 0.20616322E+04</pdfrwt>
<totfact> 0.10483204E+01</totfact>
</mgrwt>
</event>
<event>
12    6  0.1402540E-007  0.1944537E+04  0.7818608E-02  0.8633000E-01
         -1   -1    0    0    0  501 -0.00000000000E+00  0.00000000000E+00  0.88723616376E+03  0.88723616376E+03  0.00000000000E+00 0.  1.
          2   -1    0    0  501    0  0.00000000000E+00 -0.00000000000E+00 -0.10654505598E+04  0.10654505598E+04  0.00000000000E+00 0. -1.
         24    2    1    2    0    0  0.59694655638E+03  0.46859750198E+03 -0.94174270355E+01  0.76280458185E+03  0.76507072365E+02 0.  0.
        254    2    1    2    0    0 -0.59694655638E+03 -0.46859750198E+03 -0.16879696902E+03  0.11898821417E+04  0.90077648972E+03 0.  0.
         23    2    4    4    0    0 -0.53884939367E+03 -0.71286493639E+03 -0.56833701294E+02  0.89996342567E+03  0.90382583283E+02 0.  0.
         23    2    4    4    0    0 -0.58097162713E+02  0.24426743441E+03 -0.11196326773E+03  0.28991871606E+03  0.92061005725E+02 0.  0.
          4    1    3    3  502    0  0.11018743573E+03  0.98424473889E+02 -0.30735743266E+02  0.15090836281E+03  0.00000000000E+00 0. -1.
         -3    1    3    3    0  502  0.48675912065E+03  0.37017302809E+03  0.21318316231E+02  0.61189621904E+03  0.00000000000E+00 0.  1.
         11    1    5    5    0    0 -0.32048939004E+03 -0.47280845308E+03 -0.68214359260E+02  0.57525166774E+03  0.00000000000E+00 0.  1.
        -11    1    5    5    0    0 -0.21836000363E+03 -0.24005648330E+03  0.11380657966E+02  0.32471175793E+03  0.00000000000E+00 0. -1.
          3    1    6    6  503    0 -0.62112991715E+02  0.15396361136E+03 -0.11065202523E+03  0.19951613481E+03  0.00000000000E+00 0. -1.
         -3    1    6    6    0  503  0.40158290021E+01  0.90303823051E+02 -0.13112424974E+01  0.90402581252E+02  0.00000000000E+00 0.  1.
<mgrwt>
<rscale>  0 0.19445372E+04</rscale>
<asrwt>0</asrwt>
<pdfrwt beam="1">  1        2 0.16391547E+00 0.19445372E+04</pdfrwt>
<pdfrwt beam="2">  1       -1 0.13649787E+00 0.19445372E+04</pdfrwt>
<totfact> 0.10910544E+01</totfact>
</mgrwt>
</event>
<event>
12    6  0.1402540E-007  0.2037862E+04  0.7818608E-02  0.8589121E-01
         -1   -1    0    0    0  501 -0.00000000000E+00  0.00000000000E+00  0.48768125817E+03  0.48768125817E+03  0.00000000000E+00 0.  1.
          2   -1    0    0  501    0  0.00000000000E+00 -0.00000000000E+00 -0.21288912214E+04  0.21288912214E+04  0.00000000000E+00 0. -1.
         24    2    1    2    0    0  0.22392574761E+03 -0.77034555912E+03 -0.87333754163E+03  0.11885898667E+04  0.80326762763E+02 0.  0.
        254    2    1    2    0    0 -0.22392574761E+03  0.77034555912E+03 -0.76787242160E+03  0.14279826128E+04  0.89773674635E+03 0.  0.
         23    2    4    4    0    0  0.28951800584E+03  0.44583894461E+03 -0.56481467643E+03  0.78090721332E+03  0.90594794883E+02 0.  0.
         23    2    4    4    0    0 -0.51344375345E+03  0.32450661451E+03 -0.20305774517E+03  0.64707539950E+03  0.92439677357E+02 0.  0.
          4    1    3    3  502    0  0.53214589507E+02 -0.21435003657E+03 -0.19083481739E+03  0.29188295298E+03  0.00000000000E+00 0. -1.
         -3    1    3    3    0  502  0.17071115810E+03 -0.55599552255E+03 -0.68250272424E+03  0.89670691376E+03  0.00000000000E+00 0.  1.
         11    1    5    5    0    0  0.19626336347E+03  0.30743924200E+03 -0.44544062242E+03  0.57572175872E+03  0.00000000000E+00 0.  1.
        -11    1    5    5    0    0  0.93254642373E+02  0.13839970261E+03 -0.11937405401E+03  0.20518545460E+03  0.00000000000E+00 0. -1.
          2    1    6    6  503    0 -0.13997287827E+03  0.43186330176E+02 -0.39380890785E+02  0.15168493770E+03  0.00000000000E+00 0. -1.
         -2    1    6    6    0  503 -0.37347087518E+03  0.28132028434E+03 -0.16367685438E+03  0.49539046180E+03  0.00000000000E+00 0.  1.
<mgrwt>
<rscale>  0 0.20378620E+04</rscale>
<asrwt>0</asrwt>
<pdfrwt beam="1">  1        2 0.32752172E+00 0.20378620E+04</pdfrwt>
<pdfrwt beam="2">  1       -1 0.75027887E-01 0.20378620E+04</pdfrwt>
<totfact> 0.10663720E+01</totfact>
</mgrwt>
</event>
<event>
12    6  0.1402540E-007  0.4132217E+04  0.7818608E-02  0.7978393E-01
         -1   -1    0    0    0  501 -0.00000000000E+00  0.00000000000E+00  0.24555235294E+04  0.24555235294E+04  0.00000000000E+00 0.  1.
          2   -1    0    0  501    0  0.00000000000E+00 -0.00000000000E+00 -0.17384498733E+04  0.17384498733E+04  0.00000000000E+00 0. -1.
         24    2    1    2    0    0  0.16201496613E+04  0.10870482859E+04  0.59774486673E+03  0.20423608252E+04  0.85906425254E+02 0.  0.
        254    2    1    2    0    0 -0.16201496613E+04 -0.10870482859E+04  0.11932878933E+03  0.21516125774E+04  0.89924324986E+03 0.  0.
         23    2    4    4    0    0 -0.14085844845E+04 -0.11321291657E+04  0.32331550341E+03  0.18381358153E+04  0.91562343435E+02 0.  0.
         23    2    4    4    0    0 -0.21156517675E+03  0.45080879755E+02 -0.20398671409E+03  0.31347676215E+03  0.99322661839E+02 0.  0.
          4    1    3    3  502    0  0.24682696058E+03  0.19745099862E+03  0.78730599244E+02  0.32574369155E+03  0.00000000000E+00 0. -1.
         -3    1    3    3    0  502  0.13733227007E+04  0.88959728729E+03  0.51901426749E+03  0.17166171337E+04  0.00000000000E+00 0.  1.
         11    1    5    5    0    0 -0.50107878409E+03 -0.35990406394E+03  0.82162154063E+02  0.62238372622E+03  0.00000000000E+00 0. -1.
        -11    1    5    5    0    0 -0.90750570045E+03 -0.77222510172E+03  0.24115334935E+03  0.12157520890E+04  0.00000000000E+00 0.  1.
          4    1    6    6  503    0 -0.77124608141E+02  0.17032866561E+02 -0.14267259566E+03  0.16307603526E+03  0.00000000000E+00 0. -1.
         -4    1    6    6    0  503 -0.13444056861E+03  0.28048013194E+02 -0.61314118427E+02  0.15040072689E+03  0.00000000000E+00 0.  1.
<mgrwt>
<rscale>  0 0.41322171E+04</rscale>
<asrwt>0</asrwt>
<pdfrwt beam="1">  1        2 0.26745383E+00 0.41322171E+04</pdfrwt>
<pdfrwt beam="2">  1       -1 0.37777285E+00 0.41322171E+04</pdfrwt>
<totfact> 0.83990565E-02</totfact>
</mgrwt>
</event>
<event>
12    6  0.1402540E-007  0.1753410E+04  0.7818608E-02  0.8731476E-01
          2   -1    0    0  501    0  0.00000000000E+00  0.00000000000E+00  0.67306189948E+03  0.67306189948E+03  0.00000000000E+00 0. -1.
         -1   -1    0    0    0  501 -0.00000000000E+00 -0.00000000000E+00 -0.11419622546E+04  0.11419622546E+04  0.00000000000E+00 0.  1.
         24    2    1    2    0    0 -0.56766057771E+03 -0.30122426956E+03 -0.17121037287E+03  0.66981010364E+03  0.79737012154E+02 0.  0.
        254    2    1    2    0    0  0.56766057771E+03  0.30122426956E+03 -0.29768998224E+03  0.11452140504E+04  0.89995627877E+03 0.  0.
         23    2    4    4    0    0  0.53869509540E+03  0.50983987812E+03 -0.44755802401E+03  0.87127388769E+03  0.93171322758E+02 0.  0.
         23    2    4    4    0    0  0.28965482310E+02 -0.20861560856E+03  0.14986804177E+03  0.27394016273E+03  0.90682476316E+02 0.  0.
          2    1    3    3  502    0 -0.51448179850E+03 -0.24391853911E+03 -0.14966337270E+03  0.58871631525E+03  0.00000000000E+00 0. -1.
         -1    1    3    3    0  502 -0.53178779210E+02 -0.57305730442E+02 -0.21547000171E+02  0.81093788394E+02  0.00000000000E+00 0.  1.
         11    1    5    5    0    0  0.54708306061E+02  0.28436080720E+02 -0.16128464111E+02  0.63731756553E+02  0.00000000000E+00 0.  1.
        -11    1    5    5    0    0  0.48398678934E+03  0.48140379740E+03 -0.43142955990E+03  0.80754213114E+03  0.00000000000E+00 0. -1.
          4    1    6    6  503    0  0.21841552333E+01  0.17641663663E+01 -0.86968955916E+01  0.91388626198E+01  0.00000000000E+00 0.  1.
         -4    1    6    6    0  503  0.26781327077E+02 -0.21037977493E+03  0.15856493736E+03  0.26480130011E+03  0.00000000000E+00 0. -1.
<mgrwt>
<rscale>  0 0.17534096E+04</rscale>
<asrwt>0</asrwt>
<pdfrwt beam="1">  1        2 0.10354799E+00 0.17534096E+04</pdfrwt>
<pdfrwt beam="2">  1       -1 0.17568650E+00 0.17534096E+04</pdfrwt>
<totfact> 0.10416040E+01</totfact>
</mgrwt>
</event>
<event>
12    6  0.1402540E-007  0.4220968E+04  0.7818608E-02  0.7961396E-01
          2   -1    0    0  501    0  0.00000000000E+00  0.00000000000E+00  0.37607784602E+04  0.37607784602E+04  0.00000000000E+00 0. -1.
         -1   -1    0    0    0  501 -0.00000000000E+00 -0.00000000000E+00 -0.11843671321E+04  0.11843671321E+04  0.00000000000E+00 0.  1.
         24    2    1    2    0    0  0.71278941444E+03 -0.12775926590E+04 -0.39143889279E+03  0.15164459827E+04  0.77924708759E+02 0.  0.
        254    2    1    2    0    0 -0.71278941444E+03  0.12775926590E+04  0.29678502209E+04  0.34286996095E+04  0.89862913761E+03 0.  0.
         23    2    4    4    0    0  0.13298822337E+03  0.62135685973E+03  0.11133863584E+04  0.12851507135E+04  0.90625375488E+02 0.  0.
         23    2    4    4    0    0 -0.84577763781E+03  0.65623579923E+03  0.18544638625E+04  0.21435488960E+04  0.98895982616E+02 0.  0.
          2    1    3    3  502    0  0.48635210526E+03 -0.86191089900E+03 -0.30201313057E+03  0.10347176906E+04  0.00000000000E+00 0. -1.
         -1    1    3    3    0  502  0.22643730918E+03 -0.41568175996E+03 -0.89425762220E+02  0.48172829219E+03  0.00000000000E+00 0.  1.
         11    1    5    5    0    0  0.11484735588E+03  0.60131179634E+03  0.10381679674E+04  0.12052213573E+04  0.00000000000E+00 0. -1.
        -11    1    5    5    0    0  0.18140867491E+02  0.20045063388E+02  0.75218390949E+02  0.79929356162E+02  0.00000000000E+00 0.  1.
          3    1    6    6  503    0 -0.83693093646E+03  0.65799158355E+03  0.18469319800E+04  0.21317983148E+04  0.00000000000E+00 0. -1.
         -3    1    6    6    0  503 -0.88467013571E+01 -0.17557843195E+01  0.75318825203E+01  0.11750581168E+02  0.00000000000E+00 0.  1.
<mgrwt>
<rscale>  0 0.42209679E+04</rscale>
<asrwt>0</asrwt>
<pdfrwt beam="1">  1        2 0.57858130E+00 0.42209679E+04</pdfrwt>
<pdfrwt beam="2">  1       -1 0.18221033E+00 0.42209679E+04</pdfrwt>
<totfact> 0.92512245E-02</totfact>
</mgrwt>
</event>
<event>
12    6  0.1402540E-007  0.1229797E+04  0.7818608E-02  0.9087168E-01
          2   -1    0    0  501    0  0.00000000000E+00  0.00000000000E+00  0.53631524898E+03  0.53631524898E+03  0.00000000000E+00 0. -1.
         -1   -1    0    0    0  501 -0.00000000000E+00 -0.00000000000E+00 -0.70499567092E+03  0.70499567092E+03  0.00000000000E+00 0.  1.
         24    2    1    2    0    0  0.21572942877E+02 -0.26628313046E+03 -0.10299220602E+03  0.29734521965E+03  0.80216505250E+02 0.  0.
        254    2    1    2    0    0 -0.21572942877E+02  0.26628313046E+03 -0.65688215917E+02  0.94396570025E+03  0.90298627016E+03 0.  0.
         23    2    4    4    0    0 -0.39602397400E+03 -0.69127170433E+02 -0.11943451122E+03  0.43002078195E+03  0.95077425110E+02 0.  0.
         23    2    4    4    0    0  0.37445103112E+03  0.33541030090E+03  0.53746295306E+02  0.51394491829E+03  0.92396266808E+02 0.  0.
          4    1    3    3  502    0 -0.25533691683E+02 -0.41643754209E+02 -0.11003182592E+02  0.50072364661E+02  0.00000000000E+00 0. -1.
         -3    1    3    3    0  502  0.47106634560E+02 -0.22463937626E+03 -0.91989023431E+02  0.24727285499E+03  0.00000000000E+00 0.  1.
         11    1    5    5    0    0 -0.62080209988E+01  0.85570909769E+01  0.72735184145E+01  0.12832279643E+02  0.00000000000E+00 0.  1.
        -11    1    5    5    0    0 -0.38981595300E+03 -0.77684261410E+02 -0.12670802964E+03  0.41718850231E+03  0.00000000000E+00 0. -1.
          1    1    6    6  503    0  0.21046480813E+03  0.14476790486E+03  0.60002249647E+02  0.26239941255E+03  0.00000000000E+00 0.  1.
         -1    1    6    6    0  503  0.16398622299E+03  0.19064239603E+03 -0.62559543409E+01  0.25154550575E+03  0.00000000000E+00 0. -1.
<mgrwt>
<rscale>  0 0.12297966E+04</rscale>
<asrwt>0</asrwt>
<pdfrwt beam="1">  1        2 0.82510039E-01 0.12297966E+04</pdfrwt>
<pdfrwt beam="2">  1       -1 0.10846087E+00 0.12297966E+04</pdfrwt>
<totfact> 0.50413918E+01</totfact>
</mgrwt>
</event>
<event>
12    6  0.1402540E-007  0.4390000E+04  0.7818608E-02  0.7930183E-01
         -1   -1    0    0    0  501 -0.00000000000E+00  0.00000000000E+00  0.19741399126E+04  0.19741399126E+04  0.00000000000E+00 0.  1.
          2   -1    0    0  501    0  0.00000000000E+00 -0.00000000000E+00 -0.24405687099E+04  0.24405687099E+04  0.00000000000E+00 0. -1.
         24    2    1    2    0    0  0.13718661958E+04  0.15677013758E+04 -0.50613101108E+03  0.21452803528E+04  0.79716553172E+02 0.  0.
        254    2    1    2    0    0 -0.13718661958E+04 -0.15677013758E+04  0.39702213745E+02  0.22694282697E+04  0.89945758237E+03 0.  0.
         23    2    4    4    0    0 -0.12906606912E+04 -0.14831910579E+04 -0.20959380948E+03  0.19793156178E+04  0.90000088007E+02 0.  0.
         23    2    4    4    0    0 -0.81205504606E+02 -0.84510317944E+02  0.24929602322E+03  0.29011265190E+03  0.90997339412E+02 0.  0.
          2    1    3    3  502    0  0.74517581668E+03  0.88814492140E+03 -0.31391264458E+03  0.12010951451E+04  0.00000000000E+00 0. -1.
         -1    1    3    3    0  502  0.62669037910E+03  0.67955645441E+03 -0.19221836650E+03  0.94418520769E+03  0.00000000000E+00 0.  1.
         11    1    5    5    0    0 -0.18458810739E+03 -0.19320562565E+03 -0.57029674228E+02  0.27322804928E+03  0.00000000000E+00 0.  1.
        -11    1    5    5    0    0 -0.11060725838E+04 -0.12899854322E+04 -0.15256413525E+03  0.17060875685E+04  0.00000000000E+00 0. -1.
          3    1    6    6  503    0 -0.30967732606E+01 -0.50688418134E+02  0.15488235077E+03  0.16299524017E+03  0.00000000000E+00 0. -1.
         -3    1    6    6    0  503 -0.78108731345E+02 -0.33821899810E+02  0.94413672452E+02  0.12711741173E+03  0.00000000000E+00 0.  1.
<mgrwt>
<rscale>  0 0.43899996E+04</rscale>
<asrwt>0</asrwt>
<pdfrwt beam="1">  1        2 0.37547211E+00 0.43899996E+04</pdfrwt>
<pdfrwt beam="2">  1       -1 0.30371383E+00 0.43899996E+04</pdfrwt>
<totfact> 0.10232402E-01</totfact>
</mgrwt>
</event>
<event>
12    6  0.1402540E-007  0.1139991E+04  0.7818608E-02  0.9167067E-01
          2   -1    0    0  501    0  0.00000000000E+00  0.00000000000E+00  0.60087262382E+03  0.60087262382E+03  0.00000000000E+00 0. -1.
         -1   -1    0    0    0  501 -0.00000000000E+00 -0.00000000000E+00 -0.54070498621E+03  0.54070498621E+03  0.00000000000E+00 0.  1.
         24    2    1    2    0    0  0.17660282427E+03  0.94288473826E+02  0.32761027496E+02  0.21835887980E+03  0.80798772428E+02 0.  0.
        254    2    1    2    0    0 -0.17660282427E+03 -0.94288473826E+02  0.27406610118E+02  0.92321873023E+03  0.90083451740E+03 0.  0.
         23    2    4    4    0    0  0.18858261101E+03 -0.17879949217E+03 -0.30683077984E+03  0.41247517061E+03  0.91967273162E+02 0.  0.
         23    2    4    4    0    0 -0.36518543529E+03  0.84511018343E+02  0.33423738996E+03  0.51074355963E+03  0.92961478501E+02 0.  0.
          2    1    3    3  502    0  0.75116641687E+02  0.37897550594E+02  0.54494261405E+02  0.10024150201E+03  0.00000000000E+00 0. -1.
         -1    1    3    3    0  502  0.10148618259E+03  0.56390923233E+02 -0.21733233909E+02  0.11811737779E+03  0.00000000000E+00 0.  1.
         11    1    5    5    0    0  0.10277134835E+03 -0.65272371325E+02 -0.20150428891E+03  0.23542814392E+03  0.00000000000E+00 0. -1.
        -11    1    5    5    0    0  0.85811262661E+02 -0.11352712084E+03 -0.10532649093E+03  0.17704702669E+03  0.00000000000E+00 0.  1.
          2    1    6    6  503    0 -0.10303822446E+03  0.21160317239E+02  0.15352296693E+03  0.18610195082E+03  0.00000000000E+00 0. -1.
         -2    1    6    6    0  503 -0.26214721083E+03  0.63350701105E+02  0.18071442303E+03  0.32464160880E+03  0.00000000000E+00 0.  1.
<mgrwt>
<rscale>  0 0.11399909E+04</rscale>
<asrwt>0</asrwt>
<pdfrwt beam="1">  1        2 0.92441943E-01 0.11399909E+04</pdfrwt>
<pdfrwt beam="2">  1       -1 0.83185382E-01 0.11399909E+04</pdfrwt>
<totfact> 0.80439511E+01</totfact>
</mgrwt>
</event>
<event>
12    6  0.1402540E-007  0.4081615E+04  0.7818608E-02  0.7988282E-01
         -1   -1    0    0    0  501 -0.00000000000E+00  0.00000000000E+00  0.12067259314E+04  0.12067259314E+04  0.00000000000E+00 0.  1.
          2   -1    0    0  501    0  0.00000000000E+00 -0.00000000000E+00 -0.34514010408E+04  0.34514010408E+04  0.00000000000E+00 0. -1.
         24    2    1    2    0    0 -0.15703082445E+04 -0.68876025712E+03 -0.30588870480E+02  0.17169064530E+04  0.81076596768E+02 0.  0.
        254    2    1    2    0    0  0.15703082445E+04  0.68876025712E+03 -0.22140862389E+04  0.29412205192E+04  0.89907819141E+03 0.  0.
         23    2    4    4    0    0  0.88876312081E+03  0.84292035008E+03 -0.14850506060E+04  0.19273090786E+04  0.93436505689E+02 0.  0.
         23    2    4    4    0    0  0.68154512373E+03 -0.15416009296E+03 -0.72903563298E+03  0.10139114406E+04  0.90853537527E+02 0.  0.
          2    1    3    3  502    0 -0.43116462167E+03 -0.15237030073E+03 -0.20473308824E+02  0.45775407797E+03  0.00000000000E+00 0. -1.
         -1    1    3    3    0  502 -0.11391436229E+04 -0.53638995639E+03 -0.10115561656E+02  0.12591523750E+04  0.00000000000E+00 0.  1.
         11    1    5    5    0    0  0.84096633021E+03  0.76905158238E+03 -0.13967383858E+04  0.18026488352E+04  0.00000000000E+00 0. -1.
        -11    1    5    5    0    0  0.47796790591E+02  0.73868767694E+02 -0.88312220204E+02  0.12466024334E+03  0.00000000000E+00 0.  1.
          4    1    6    6  503    0  0.67989722053E+03 -0.14658229177E+03 -0.72648701582E+03  0.10057484690E+04  0.00000000000E+00 0. -1.
         -4    1    6    6    0  503  0.16479031982E+01 -0.75778011911E+01 -0.25486171596E+01  0.81629715955E+01  0.00000000000E+00 0.  1.
<mgrwt>
<rscale>  0 0.40816149E+04</rscale>
<asrwt>0</asrwt>
<pdfrwt beam="1">  1        2 0.53098477E+00 0.40816149E+04</pdfrwt>
<pdfrwt beam="2">  1       -1 0.18565015E+00 0.40816149E+04</pdfrwt>
<totfact> 0.14800357E-01</totfact>
</mgrwt>
</event>
<event>
12    6  0.1402540E-007  0.1998134E+04  0.7818608E-02  0.8607494E-01
         -1   -1    0    0    0  501 -0.00000000000E+00  0.00000000000E+00  0.37351887130E+03  0.37351887130E+03  0.00000000000E+00 0.  1.
          2   -1    0    0  501    0  0.00000000000E+00 -0.00000000000E+00 -0.26722466190E+04  0.26722466190E+04  0.00000000000E+00 0. -1.
         24    2    1    2    0    0 -0.64506618571E+03  0.46296608989E+03 -0.90825601942E+03  0.12092199497E+04  0.82679536199E+02 0.  0.
        254    2    1    2    0    0  0.64506618571E+03 -0.46296608989E+03 -0.13904717283E+04  0.18365455406E+04  0.89946645914E+03 0.  0.
         23    2    4    4    0    0  0.17251198613E+03 -0.23480950703E+03  0.42009011148E+02  0.30825924672E+03  0.91450075012E+02 0.  0.
         23    2    4    4    0    0  0.47255419958E+03 -0.22815658286E+03 -0.14324807395E+04  0.15282862939E+04  0.91077051353E+02 0.  0.
          4    1    3    3  502    0 -0.58809644343E+03  0.39051144860E+03 -0.79482880612E+03  0.10630660606E+04  0.00000000000E+00 0. -1.
         -3    1    3    3    0  502 -0.56969742275E+02  0.72454641295E+02 -0.11342721330E+03  0.14615388909E+03  0.00000000000E+00 0.  1.
         11    1    5    5    0    0 -0.10755567840E+02 -0.13478499227E+02  0.76154715072E+01  0.18850665433E+02  0.00000000000E+00 0. -1.
        -11    1    5    5    0    0  0.18326755397E+03 -0.22133100781E+03  0.34393539640E+02  0.28940858129E+03  0.00000000000E+00 0.  1.
          3    1    6    6  503    0  0.98877662925E+02 -0.17618079372E+02 -0.34359924269E+03  0.35797713408E+03  0.00000000000E+00 0. -1.
         -3    1    6    6    0  503  0.37367653666E+03 -0.21053850349E+03 -0.10888814968E+04  0.11703091598E+04  0.00000000000E+00 0.  1.
<mgrwt>
<rscale>  0 0.19981337E+04</rscale>
<asrwt>0</asrwt>
<pdfrwt beam="1">  1        2 0.41111487E+00 0.19981337E+04</pdfrwt>
<pdfrwt beam="2">  1       -1 0.57464441E-01 0.19981337E+04</pdfrwt>
<totfact> 0.89575256E+00</totfact>
</mgrwt>
</event>
<event>
12    6  0.1402540E-007  0.3828667E+04  0.7818608E-02  0.8040031E-01
         -1   -1    0    0    0  501 -0.00000000000E+00  0.00000000000E+00  0.17522531185E+04  0.17522531185E+04  0.00000000000E+00 0.  1.
          2   -1    0    0  501    0  0.00000000000E+00 -0.00000000000E+00 -0.20914065359E+04  0.20914065359E+04  0.00000000000E+00 0. -1.
         24    2    1    2    0    0 -0.84926824823E+03  0.15944960140E+04 -0.21833930778E+03  0.18214756426E+04  0.80170861226E+02 0.  0.
        254    2    1    2    0    0  0.84926824823E+03 -0.15944960140E+04 -0.12081410960E+03  0.20221840119E+04  0.90053208318E+03 0.  0.
         23    2    4    4    0    0  0.61866783911E+03 -0.15435318788E+04 -0.32550164559E+03  0.16970401942E+04  0.93560373191E+02 0.  0.
         23    2    4    4    0    0  0.23060040912E+03 -0.50964135199E+02  0.20468753598E+03  0.32514381771E+03  0.89708545009E+02 0.  0.
          4    1    3    3  502    0 -0.38901609979E+03  0.64966573972E+03 -0.80185784352E+02  0.76146494291E+03  0.00000000000E+00 0. -1.
         -3    1    3    3    0  502 -0.46025214844E+03  0.94483027427E+03 -0.13815352343E+03  0.10600106996E+04  0.00000000000E+00 0.  1.
         11    1    5    5    0    0  0.33261035933E+03 -0.84687645177E+03 -0.13103245193E+03  0.91923820589E+03  0.00000000000E+00 0. -1.
        -11    1    5    5    0    0  0.28605747979E+03 -0.69665542702E+03 -0.19446919366E+03  0.77780198831E+03  0.00000000000E+00 0.  1.
          3    1    6    6  503    0  0.55426185274E+02  0.23896655920E+02  0.66462624260E+02  0.89779689249E+02  0.00000000000E+00 0. -1.
         -3    1    6    6    0  503  0.17517422384E+03 -0.74860791119E+02  0.13822491172E+03  0.23536412846E+03  0.00000000000E+00 0.  1.
<mgrwt>
<rscale>  0 0.38286675E+04</rscale>
<asrwt>0</asrwt>
<pdfrwt beam="1">  1        2 0.32175485E+00 0.38286675E+04</pdfrwt>
<pdfrwt beam="2">  1       -1 0.26957740E+00 0.38286675E+04</pdfrwt>
<totfact> 0.28107918E-01</totfact>
</mgrwt>
</event>
<event>
12    6  0.1402540E-007  0.1589007E+04  0.7818608E-02  0.8827330E-01
          2   -1    0    0  501    0  0.00000000000E+00  0.00000000000E+00  0.11874886517E+04  0.11874886517E+04  0.00000000000E+00 0. -1.
         -1   -1    0    0    0  501 -0.00000000000E+00 -0.00000000000E+00 -0.53157204975E+03  0.53157204975E+03  0.00000000000E+00 0.  1.
         24    2    1    2    0    0 -0.29182569652E+03 -0.43371500269E+03  0.95190369712E+02  0.53688900224E+03  0.76926286362E+02 0.  0.
        254    2    1    2    0    0  0.29182569652E+03  0.43371500269E+03  0.56072623225E+03  0.11821716992E+04  0.89991392822E+03 0.  0.
         23    2    4    4    0    0  0.30138882840E+03  0.24446331344E+03 -0.16107768316E+03  0.43010783454E+03  0.91919485493E+02 0.  0.
         23    2    4    4    0    0 -0.95631318796E+01  0.18925168925E+03  0.72180391542E+03  0.75206386469E+03  0.93228262288E+02 0.  0.
          2    1    3    3  502    0 -0.17442336870E+03 -0.26581775047E+03  0.95665659307E+02  0.33201582249E+03  0.00000000000E+00 0. -1.
         -1    1    3    3    0  502 -0.11740232783E+03 -0.16789725222E+03 -0.47528959506E+00  0.20487317975E+03  0.00000000000E+00 0.  1.
         11    1    5    5    0    0  0.23436342658E+03  0.21381554848E+03 -0.95102069692E+02  0.33119134673E+03  0.00000000000E+00 0.  1.
        -11    1    5    5    0    0  0.67025401825E+02  0.30647764952E+02 -0.65975613471E+02  0.98916487803E+02  0.00000000000E+00 0. -1.
          2    1    6    6  503    0  0.36020965614E+02  0.70388283719E+02  0.20265284787E+03  0.21753206016E+03  0.00000000000E+00 0. -1.
         -2    1    6    6    0  503 -0.45584097494E+02  0.11886340553E+03  0.51915106755E+03  0.53453180453E+03  0.00000000000E+00 0.  1.
<mgrwt>
<rscale>  0 0.15890070E+04</rscale>
<asrwt>0</asrwt>
<pdfrwt beam="1">  1        2 0.18269056E+00 0.15890070E+04</pdfrwt>
<pdfrwt beam="2">  1       -1 0.81780316E-01 0.15890070E+04</pdfrwt>
<totfact> 0.31388584E+01</totfact>
</mgrwt>
</event>
<event>
12    6  0.1402540E-007  0.3517837E+04  0.7818608E-02  0.8109576E-01
         -1   -1    0    0    0  501 -0.00000000000E+00  0.00000000000E+00  0.18842484416E+04  0.18842484416E+04  0.00000000000E+00 0.  1.
          2   -1    0    0  501    0  0.00000000000E+00 -0.00000000000E+00 -0.16419245890E+04  0.16419245890E+04  0.00000000000E+00 0. -1.
         24    2    1    2    0    0  0.11153647044E+04 -0.11917970195E+04 -0.67599469136E+02  0.16357108195E+04  0.81003932686E+02 0.  0.
        254    2    1    2    0    0 -0.11153647044E+04  0.11917970195E+04  0.30992332168E+03  0.18904622111E+04  0.90187379753E+03 0.  0.
         23    2    4    4    0    0 -0.11827354698E+04  0.10083247503E+04  0.46603057789E+03  0.16252226736E+04  0.92640410629E+02 0.  0.
         23    2    4    4    0    0  0.67370765316E+02  0.18347226925E+03 -0.15610725622E+03  0.26523953756E+03  0.88213622742E+02 0.  0.
          4    1    3    3  502    0  0.37658414197E+03 -0.44741452950E+03 -0.49276942643E+00  0.58480391586E+03  0.00000000000E+00 0. -1.
         -3    1    3    3    0  502  0.73878056247E+03 -0.74438249004E+03 -0.67106699710E+02  0.10509069036E+04  0.00000000000E+00 0.  1.
         11    1    5    5    0    0 -0.54021256767E+03  0.48987889029E+03  0.26087737073E+03  0.77451142534E+03  0.00000000000E+00 0. -1.
        -11    1    5    5    0    0 -0.64252290209E+03  0.51844586001E+03  0.20515320717E+03  0.85071124823E+03  0.00000000000E+00 0.  1.
          2    1    6    6  503    0  0.11236784108E+01  0.11003466471E+03 -0.11178650709E+03  0.15686017103E+03  0.00000000000E+00 0. -1.
         -2    1    6    6    0  503  0.66247086905E+02  0.73437604542E+02 -0.44320749130E+02  0.10837936652E+03  0.00000000000E+00 0.  1.
<mgrwt>
<rscale>  0 0.35178367E+04</rscale>
<asrwt>0</asrwt>
<pdfrwt beam="1">  1        2 0.25260378E+00 0.35178367E+04</pdfrwt>
<pdfrwt beam="2">  1       -1 0.28988437E+00 0.35178367E+04</pdfrwt>
<totfact> 0.37897100E-01</totfact>
</mgrwt>
</event>
<event>
12    6  0.1402540E-007  0.1669489E+04  0.7818608E-02  0.8778960E-01
         -1   -1    0    0    0  501 -0.00000000000E+00  0.00000000000E+00  0.44114712024E+03  0.44114712024E+03  0.00000000000E+00 0.  1.
          2   -1    0    0  501    0  0.00000000000E+00 -0.00000000000E+00 -0.15795138736E+04  0.15795138736E+04  0.00000000000E+00 0. -1.
         24    2    1    2    0    0  0.55095170204E+03 -0.11746166847E+03 -0.61388985364E+03  0.83706878146E+03  0.80488328022E+02 0.  0.
        254    2    1    2    0    0 -0.55095170204E+03  0.11746166847E+03 -0.52447689967E+03  0.11835922123E+04  0.89914931201E+03 0.  0.
         23    2    4    4    0    0 -0.49833691654E+03 -0.11141728010E+03  0.83548459150E+02  0.52534899631E+03  0.90872054036E+02 0.  0.
         23    2    4    4    0    0 -0.52614785498E+02  0.22887894856E+03 -0.60802535882E+03  0.65824321604E+03  0.91844464963E+02 0.  0.
          4    1    3    3  502    0  0.25550796331E+03 -0.37387744885E+02 -0.33495869310E+03  0.42294147215E+03  0.00000000000E+00 0. -1.
         -3    1    3    3    0  502  0.29544373873E+03 -0.80073923582E+02 -0.27893116054E+03  0.41412730931E+03  0.00000000000E+00 0.  1.
         11    1    5    5    0    0 -0.30005789919E+03 -0.10161790189E+03  0.80234032121E+02  0.32680030716E+03  0.00000000000E+00 0. -1.
        -11    1    5    5    0    0 -0.19827901735E+03 -0.97993782010E+01  0.33144270287E+01  0.19854868914E+03  0.00000000000E+00 0.  1.
          4    1    6    6  503    0 -0.64557461321E+02  0.10409917721E+03 -0.36133160567E+03  0.38152959749E+03  0.00000000000E+00 0. -1.
         -4    1    6    6    0  503  0.11942675823E+02  0.12477977135E+03 -0.24669375315E+03  0.27671361855E+03  0.00000000000E+00 0.  1.
<mgrwt>
<rscale>  0 0.16694885E+04</rscale>
<asrwt>0</asrwt>
<pdfrwt beam="1">  1        2 0.24300214E+00 0.16694885E+04</pdfrwt>
<pdfrwt beam="2">  1       -1 0.67868787E-01 0.16694885E+04</pdfrwt>
<totfact> 0.27353128E+01</totfact>
</mgrwt>
</event>
<event>
12    6  0.1402540E-007  0.1782285E+04  0.7818608E-02  0.8715777E-01
         -1   -1    0    0    0  501 -0.00000000000E+00  0.00000000000E+00  0.45264513280E+03  0.45264513280E+03  0.00000000000E+00 0.  1.
          2   -1    0    0  501    0  0.00000000000E+00 -0.00000000000E+00 -0.17544307204E+04  0.17544307204E+04  0.00000000000E+00 0. -1.
         24    2    1    2    0    0 -0.28750586342E+03  0.13278739679E+03  0.23296865481E+03  0.40112387674E+03  0.79585527061E+02 0.  0.
        254    2    1    2    0    0  0.28750586342E+03 -0.13278739679E+03 -0.15347542424E+04  0.18059519765E+04  0.89760784447E+03 0.  0.
         23    2    4    4    0    0 -0.12687793880E+03  0.12112531421E+03 -0.46598329113E+01  0.19798346465E+03  0.91686341065E+02 0.  0.
         23    2    4    4    0    0  0.41438380222E+03 -0.25391271100E+03 -0.15300944095E+04  0.16079685118E+04  0.90488853740E+02 0.  0.
          4    1    3    3  502    0 -0.18438312916E+03  0.89556652350E+02  0.10213585458E+03  0.22901804534E+03  0.00000000000E+00 0. -1.
         -3    1    3    3    0  502 -0.10312273426E+03  0.43230744440E+02  0.13083280023E+03  0.17210583140E+03  0.00000000000E+00 0.  1.
         11    1    5    5    0    0  0.11895124015E+02  0.17278453602E+02 -0.12608297686E+02  0.24474642076E+02  0.00000000000E+00 0.  1.
        -11    1    5    5    0    0 -0.13877306281E+03  0.10384686061E+03  0.79484647746E+01  0.17350882258E+03  0.00000000000E+00 0. -1.
          1    1    6    6  503    0  0.19644324312E+03 -0.13396031824E+03 -0.60607181520E+03  0.65104405366E+03  0.00000000000E+00 0. -1.
         -1    1    6    6    0  503  0.21794055910E+03 -0.11995239276E+03 -0.92402259428E+03  0.95692445813E+03  0.00000000000E+00 0.  1.
<mgrwt>
<rscale>  0 0.17822845E+04</rscale>
<asrwt>0</asrwt>
<pdfrwt beam="1">  1        2 0.26991242E+00 0.17822845E+04</pdfrwt>
<pdfrwt beam="2">  1       -1 0.69637712E-01 0.17822845E+04</pdfrwt>
<totfact> 0.20538879E+01</totfact>
</mgrwt>
</event>
<event>
12    6  0.1402540E-007  0.3893049E+04  0.7818608E-02  0.8026477E-01
          2   -1    0    0  501    0  0.00000000000E+00  0.00000000000E+00  0.20853350064E+04  0.20853350064E+04  0.00000000000E+00 0. -1.
         -3   -1    0    0    0  501 -0.00000000000E+00 -0.00000000000E+00 -0.18169534624E+04  0.18169534624E+04  0.00000000000E+00 0.  1.
         24    2    1    2    0    0  0.16823450725E+04  0.74449530795E+03  0.19586958533E+03  0.18518611624E+04  0.80415570048E+02 0.  0.
        254    2    1    2    0    0 -0.16823450725E+04 -0.74449530795E+03  0.72511958676E+02  0.20504273065E+04  0.90246105095E+03 0.  0.
         23    2    4    4    0    0 -0.10459448986E+04 -0.14238783072E+03  0.36909302827E+03  0.11212221636E+04  0.81452142658E+02 0.  0.
         23    2    4    4    0    0 -0.63640017392E+03 -0.60210747722E+03 -0.29658106960E+03  0.92920514282E+03  0.89012758144E+02 0.  0.
          2    1    3    3  502    0  0.93359303532E+03  0.40007796642E+03  0.14648984554E+03  0.10262151868E+04  0.00000000000E+00 0. -1.
         -1    1    3    3    0  502  0.74875203717E+03  0.34441734152E+03  0.49379739791E+02  0.82564597559E+03  0.00000000000E+00 0.  1.
         11    1    5    5    0    0 -0.25847828694E+03 -0.11315932872E+02  0.11799900838E+03  0.28436392376E+03  0.00000000000E+00 0. -1.
        -11    1    5    5    0    0 -0.78746661164E+03 -0.13107189785E+03  0.25109401989E+03  0.83685823989E+03  0.00000000000E+00 0.  1.
          2    1    6    6  503    0 -0.56188121783E+03 -0.49074353003E+03 -0.23904725545E+03  0.78337941354E+03  0.00000000000E+00 0. -1.
         -2    1    6    6    0  503 -0.74518956086E+02 -0.11136394719E+03 -0.57533814153E+02  0.14582572928E+03  0.00000000000E+00 0.  1.
<mgrwt>
<rscale>  0 0.38930485E+04</rscale>
<asrwt>0</asrwt>
<pdfrwt beam="1">  1        2 0.32082077E+00 0.38930485E+04</pdfrwt>
<pdfrwt beam="2">  1       -3 0.27953130E+00 0.38930485E+04</pdfrwt>
<totfact> 0.14861553E-01</totfact>
</mgrwt>
</event>
<event>
12    6  0.1402540E-007  0.1725352E+04  0.7818608E-02  0.8747036E-01
         -3   -1    0    0    0  501 -0.00000000000E+00  0.00000000000E+00  0.35311991872E+03  0.35311991872E+03  0.00000000000E+00 0.  1.
          2   -1    0    0  501    0  0.00000000000E+00 -0.00000000000E+00 -0.21075280452E+04  0.21075280452E+04  0.00000000000E+00 0. -1.
         24    2    1    2    0    0  0.25579437731E+03  0.56875252904E+03 -0.59381406161E+03  0.86471593942E+03  0.78792851017E+02 0.  0.
        254    2    1    2    0    0 -0.25579437731E+03 -0.56875252904E+03 -0.11605940649E+04  0.15959320245E+04  0.90061658918E+03 0.  0.
         23    2    4    4    0    0 -0.43461587429E+03 -0.66883234525E+03 -0.11027442031E+04  0.13640117179E+04  0.90859919651E+02 0.  0.
         23    2    4    4    0    0  0.17882149698E+03  0.10007981621E+03 -0.57849861820E+02  0.23192030660E+03  0.91909328722E+02 0.  0.
          2    1    3    3  502    0  0.59849176864E+02  0.13625167348E+03 -0.19043853265E+03  0.24168838867E+03  0.00000000000E+00 0. -1.
         -1    1    3    3    0  502  0.19594520045E+03  0.43250085556E+03 -0.40337552896E+03  0.62302755075E+03  0.00000000000E+00 0.  1.
         11    1    5    5    0    0 -0.22854557296E+03 -0.40447284970E+03 -0.58145185300E+03  0.74425642249E+03  0.00000000000E+00 0. -1.
        -11    1    5    5    0    0 -0.20607030133E+03 -0.26435949556E+03 -0.52129235007E+03  0.61975529544E+03  0.00000000000E+00 0.  1.
          3    1    6    6  503    0  0.11875791510E+03  0.80604198312E+02 -0.80832991411E+02  0.16472538264E+03  0.00000000000E+00 0. -1.
         -3    1    6    6    0  503  0.60063581875E+02  0.19475617902E+02  0.22983129591E+02  0.67194923961E+02  0.00000000000E+00 0.  1.
<mgrwt>
<rscale>  0 0.17253523E+04</rscale>
<asrwt>0</asrwt>
<pdfrwt beam="1">  1        2 0.32423508E+00 0.17253523E+04</pdfrwt>
<pdfrwt beam="2">  1       -3 0.54326141E-01 0.17253523E+04</pdfrwt>
<totfact> 0.11870910E+01</totfact>
</mgrwt>
</event>
<event>
12    6  0.1402540E-007  0.1602421E+04  0.7818608E-02  0.8819062E-01
          2   -1    0    0  501    0  0.00000000000E+00  0.00000000000E+00  0.30391968761E+03  0.30391968761E+03  0.00000000000E+00 0. -1.
         -1   -1    0    0    0  501 -0.00000000000E+00 -0.00000000000E+00 -0.21121978938E+04  0.21121978938E+04  0.00000000000E+00 0.  1.
         24    2    1    2    0    0 -0.58064117953E+01  0.28324570062E+03  0.78812724063E+02  0.30491351914E+03  0.80616172969E+02 0.  0.
        254    2    1    2    0    0  0.58064117953E+01 -0.28324570062E+03 -0.18870909303E+04  0.21112040623E+04  0.90322121997E+03 0.  0.
         23    2    4    4    0    0  0.22241250507E+03 -0.48163807941E+03 -0.68946106513E+03  0.87468655337E+03  0.90980461432E+02 0.  0.
         23    2    4    4    0    0 -0.21660609328E+03  0.19839237880E+03 -0.11976298652E+04  0.12365175089E+04  0.91545182231E+02 0.  0.
          2    1    3    3  502    0  0.15225012786E+02  0.24730154638E+03  0.86752783473E+02  0.26251838277E+03  0.00000000000E+00 0. -1.
         -1    1    3    3    0  502 -0.21031424581E+02  0.35944154240E+02 -0.79400594099E+01  0.42395136364E+02  0.00000000000E+00 0.  1.
         11    1    5    5    0    0  0.15058267226E+03 -0.40406447636E+03 -0.52827469065E+03  0.68192183644E+03  0.00000000000E+00 0. -1.
        -11    1    5    5    0    0  0.71829832816E+02 -0.77573603057E+02 -0.16118637449E+03  0.19276471693E+03  0.00000000000E+00 0.  1.
          4    1    6    6  503    0 -0.87570368325E+02  0.76859928443E+02 -0.66599678060E+03  0.67611221686E+03  0.00000000000E+00 0. -1.
         -4    1    6    6    0  503 -0.12903572495E+03  0.12153245035E+03 -0.53163308456E+03  0.56040529209E+03  0.00000000000E+00 0.  1.
<mgrwt>
<rscale>  0 0.16024213E+04</rscale>
<asrwt>0</asrwt>
<pdfrwt beam="1">  1        2 0.46756875E-01 0.16024213E+04</pdfrwt>
<pdfrwt beam="2">  1       -1 0.32495352E+00 0.16024213E+04</pdfrwt>
<totfact> 0.27059830E+00</totfact>
</mgrwt>
</event>
<event>
12    6  0.1402540E-007  0.1585768E+04  0.7818608E-02  0.8829339E-01
          2   -1    0    0  501    0  0.00000000000E+00  0.00000000000E+00  0.32597706528E+04  0.32597706528E+04  0.00000000000E+00 0. -1.
         -1   -1    0    0    0  501 -0.00000000000E+00 -0.00000000000E+00 -0.19285571901E+03  0.19285571901E+03  0.00000000000E+00 0.  1.
         24    2    1    2    0    0 -0.17537275099E+03  0.47352517924E+03  0.14360599102E+04  0.15243073815E+04  0.79140575158E+02 0.  0.
        254    2    1    2    0    0  0.17537275099E+03 -0.47352517924E+03  0.16308550236E+04  0.19283189903E+04  0.89651788772E+03 0.  0.
         23    2    4    4    0    0  0.12164649760E+03 -0.17034518396E+03 -0.34166619703E+02  0.23259624497E+03  0.95489806748E+02 0.  0.
         23    2    4    4    0    0  0.53726253390E+02 -0.30317999527E+03  0.16650216433E+04  0.16957227453E+04  0.91509214567E+02 0.  0.
          2    1    3    3  502    0 -0.14228287798E+03  0.30118151258E+03  0.10104050116E+04  0.10638952056E+04  0.00000000000E+00 0. -1.
         -1    1    3    3    0  502 -0.33089873016E+02  0.17234366666E+03  0.42565489853E+03  0.46041217596E+03  0.00000000000E+00 0.  1.
         11    1    5    5    0    0  0.48533477608E+02 -0.96640476662E+02 -0.62602302541E+02  0.12495570600E+03  0.00000000000E+00 0. -1.
        -11    1    5    5    0    0  0.73113019996E+02 -0.73704707302E+02  0.28435682838E+02  0.10764053897E+03  0.00000000000E+00 0.  1.
          2    1    6    6  503    0  0.73374378256E+01 -0.36494892327E+02  0.86648528108E+02  0.94306323134E+02  0.00000000000E+00 0.  1.
         -2    1    6    6    0  503  0.46388815564E+02 -0.26668510295E+03  0.15783731152E+04  0.16014164222E+04  0.00000000000E+00 0. -1.
<mgrwt>
<rscale>  0 0.15857685E+04</rscale>
<asrwt>0</asrwt>
<pdfrwt beam="1">  1        2 0.50150314E+00 0.15857685E+04</pdfrwt>
<pdfrwt beam="2">  1       -1 0.29670113E-01 0.15857685E+04</pdfrwt>
<totfact> 0.13593516E+01</totfact>
</mgrwt>
</event>
<event>
12    6  0.1402540E-007  0.2538108E+04  0.7818608E-02  0.8389534E-01
         -3   -1    0    0    0  501 -0.00000000000E+00  0.00000000000E+00  0.22439378928E+04  0.22439378928E+04  0.00000000000E+00 0.  1.
          2   -1    0    0  501    0  0.00000000000E+00 -0.00000000000E+00 -0.71771045726E+03  0.71771045726E+03  0.00000000000E+00 0. -1.
         24    2    1    2    0    0  0.37930550772E+03  0.48940876657E+03  0.17395994406E+04  0.18482354885E+04  0.79841079216E+02 0.  0.
        254    2    1    2    0    0 -0.37930550772E+03 -0.48940876657E+03 -0.21337200514E+03  0.11134128616E+04  0.90042599848E+03 0.  0.
         23    2    4    4    0    0 -0.45236534330E+03 -0.67889014923E+03 -0.24363152156E+02  0.82134011551E+03  0.92085740548E+02 0.  0.
         23    2    4    4    0    0  0.73059835580E+02  0.18948138266E+03 -0.18900885298E+03  0.29207274606E+03  0.91330216976E+02 0.  0.
          2    1    3    3  502    0  0.21847933535E+02  0.53977305222E+02  0.11846494915E+03  0.13200312821E+03  0.00000000000E+00 0. -1.
         -1    1    3    3    0  502  0.35745757419E+03  0.43543146135E+03  0.16211344915E+04  0.17162323602E+04  0.00000000000E+00 0.  1.
         11    1    5    5    0    0 -0.25126863380E+03 -0.45637279970E+03 -0.21098029255E+02  0.52139925726E+03  0.00000000000E+00 0. -1.
        -11    1    5    5    0    0 -0.20109670950E+03 -0.22251734953E+03 -0.32651229010E+01  0.29994085824E+03  0.00000000000E+00 0.  1.
          4    1    6    6  503    0  0.70428752885E+02  0.62881917159E+02 -0.63492753297E+02  0.11377905985E+03  0.00000000000E+00 0. -1.
         -4    1    6    6    0  503  0.26310826954E+01  0.12659946550E+03 -0.12551609969E+03  0.17829368621E+03  0.00000000000E+00 0.  1.
<mgrwt>
<rscale>  0 0.25381077E+04</rscale>
<asrwt>0</asrwt>
<pdfrwt beam="1">  1        2 0.11041699E+00 0.25381077E+04</pdfrwt>
<pdfrwt beam="2">  1       -3 0.34522121E+00 0.25381077E+04</pdfrwt>
<totfact> 0.46809009E-01</totfact>
</mgrwt>
</event>
<event>
12    6  0.1402540E-007  0.2338235E+04  0.7818608E-02  0.8462996E-01
         -1   -1    0    0    0  501 -0.00000000000E+00  0.00000000000E+00  0.67126123960E+03  0.67126123960E+03  0.00000000000E+00 0.  1.
          2   -1    0    0  501    0  0.00000000000E+00 -0.00000000000E+00 -0.20362202739E+04  0.20362202739E+04  0.00000000000E+00 0. -1.
         24    2    1    2    0    0  0.23384879271E+03 -0.93892710699E+03 -0.85000527683E+03  0.12904880342E+04  0.81123521756E+02 0.  0.
        254    2    1    2    0    0 -0.23384879271E+03  0.93892710699E+03 -0.51495375743E+03  0.14169934792E+04  0.89801101206E+03 0.  0.
         23    2    4    4    0    0 -0.40128856409E+03  0.70228438716E+03  0.57911200772E+01  0.81415966992E+03  0.92663687275E+02 0.  0.
         23    2    4    4    0    0  0.16743977138E+03  0.23664271983E+03 -0.52074487751E+03  0.60283380930E+03  0.90540158482E+02 0.  0.
          2    1    3    3  502    0  0.96383474375E+01 -0.14790050638E+03 -0.11383193703E+03  0.18688276383E+03  0.00000000000E+00 0. -1.
         -1    1    3    3    0  502  0.22421044527E+03 -0.79102660061E+03 -0.73617333980E+03  0.11036052704E+04  0.00000000000E+00 0.  1.
         11    1    5    5    0    0 -0.12925120696E+03  0.31744566307E+03 -0.41280444346E+01  0.34277494694E+03  0.00000000000E+00 0.  1.
        -11    1    5    5    0    0 -0.27203735712E+03  0.38483872409E+03  0.99191645118E+01  0.47138472298E+03  0.00000000000E+00 0. -1.
          4    1    6    6  503    0  0.15533193276E+03  0.16229766379E+03 -0.34585669269E+03  0.41241410365E+03  0.00000000000E+00 0. -1.
         -4    1    6    6    0  503  0.12107838620E+02  0.74345056038E+02 -0.17488818481E+03  0.19041970565E+03  0.00000000000E+00 0.  1.
<mgrwt>
<rscale>  0 0.23382350E+04</rscale>
<asrwt>0</asrwt>
<pdfrwt beam="1">  1        2 0.31326465E+00 0.23382350E+04</pdfrwt>
<pdfrwt beam="2">  1       -1 0.10327096E+00 0.23382350E+04</pdfrwt>
<totfact> 0.58043157E+00</totfact>
</mgrwt>
</event>
<event>
12    6  0.1402540E-007  0.1526606E+04  0.7818608E-02  0.8866951E-01
          2   -1    0    0  501    0  0.00000000000E+00  0.00000000000E+00  0.61663681142E+03  0.61663681142E+03  0.00000000000E+00 0. -1.
         -1   -1    0    0    0  501 -0.00000000000E+00 -0.00000000000E+00 -0.94485333767E+03  0.94485333767E+03  0.00000000000E+00 0.  1.
         24    2    1    2    0    0  0.47510431776E+03 -0.10004034537E+03 -0.18862666363E+02  0.49267959132E+03  0.81518072001E+02 0.  0.
        254    2    1    2    0    0 -0.47510431776E+03  0.10004034537E+03 -0.30935385989E+03  0.10688105578E+04  0.90051319497E+03 0.  0.
         23    2    4    4    0    0 -0.19930942024E+03 -0.37541950556E+03 -0.26655775806E+03  0.51029818465E+03  0.93204874961E+02 0.  0.
         23    2    4    4    0    0 -0.27579489752E+03  0.47545985093E+03 -0.42796101826E+02  0.55851237312E+03  0.89328994497E+02 0.  0.
          2    1    3    3  502    0  0.67532735565E+02 -0.34689846102E+01  0.23726846647E+02  0.71663571491E+02  0.00000000000E+00 0. -1.
         -1    1    3    3    0  502  0.40757158220E+03 -0.96571360757E+02 -0.42589513010E+02  0.42101601983E+03  0.00000000000E+00 0.  1.
         11    1    5    5    0    0 -0.87839114091E+02 -0.98812748189E+02 -0.11759449166E+03  0.17694104566E+03  0.00000000000E+00 0. -1.
        -11    1    5    5    0    0 -0.11147030615E+03 -0.27660675737E+03 -0.14896326639E+03  0.33335713899E+03  0.00000000000E+00 0.  1.
          3    1    6    6  503    0 -0.15404985360E+03  0.27040694333E+03  0.20188827570E+02  0.31186352970E+03  0.00000000000E+00 0. -1.
         -3    1    6    6    0  503 -0.12174504392E+03  0.20505290760E+03 -0.62984929396E+02  0.24664884343E+03  0.00000000000E+00 0.  1.
<mgrwt>
<rscale>  0 0.15266058E+04</rscale>
<asrwt>0</asrwt>
<pdfrwt beam="1">  1        2 0.94867202E-01 0.15266058E+04</pdfrwt>
<pdfrwt beam="2">  1       -1 0.14536205E+00 0.15266058E+04</pdfrwt>
<totfact> 0.20062853E+01</totfact>
</mgrwt>
</event>
<event>
12    6  0.1402540E-007  0.2865572E+04  0.7818608E-02  0.8283195E-01
          2   -1    0    0  501    0  0.00000000000E+00  0.00000000000E+00  0.21970947512E+04  0.21970947512E+04  0.00000000000E+00 0. -1.
         -1   -1    0    0    0  501 -0.00000000000E+00 -0.00000000000E+00 -0.93435889607E+03  0.93435889607E+03  0.00000000000E+00 0.  1.
         24    2    1    2    0    0  0.58110630236E+03  0.99212511620E+03 -0.67848429269E+02  0.11543175262E+04  0.76477193995E+02 0.  0.
        254    2    1    2    0    0 -0.58110630236E+03 -0.99212511620E+03  0.13305842844E+04  0.19771361210E+04  0.90366803769E+03 0.  0.
         23    2    4    4    0    0  0.84604414618E+02 -0.71242741918E+03  0.53864242755E+03  0.90169997572E+03  0.90644618573E+02 0.  0.
         23    2    4    4    0    0 -0.66571071697E+03 -0.27969769702E+03  0.79194185684E+03  0.10754361453E+04  0.89383654000E+02 0.  0.
          4    1    3    3  502    0  0.26060188950E+01  0.24525517109E+02  0.24234212159E+01  0.24782358530E+02  0.00000000000E+00 0. -1.
         -1    1    3    3    0  502  0.57850028346E+03  0.96759959909E+03 -0.70271850485E+02  0.11295351677E+04  0.00000000000E+00 0.  1.
         11    1    5    5    0    0 -0.72239443049E+01 -0.23875746830E+03  0.20858790802E+03  0.31712178956E+03  0.00000000000E+00 0. -1.
        -11    1    5    5    0    0  0.91828358923E+02 -0.47366995087E+03  0.33005451953E+03  0.58457818615E+03  0.00000000000E+00 0.  1.
          2    1    6    6  503    0 -0.27080007241E+03 -0.66681651935E+02  0.30551953131E+03  0.41366811085E+03  0.00000000000E+00 0. -1.
         -2    1    6    6    0  503 -0.39491064456E+03 -0.21301604509E+03  0.48642232553E+03  0.66176803446E+03  0.00000000000E+00 0.  1.
<mgrwt>
<rscale>  0 0.28655715E+04</rscale>
<asrwt>0</asrwt>
<pdfrwt beam="1">  1        2 0.33801458E+00 0.28655715E+04</pdfrwt>
<pdfrwt beam="2">  1       -1 0.14374752E+00 0.28655715E+04</pdfrwt>
<totfact> 0.19944866E+00</totfact>
</mgrwt>
</event>
<event>
12    6  0.1402540E-007  0.1749138E+04  0.7818608E-02  0.8733825E-01
         -1   -1    0    0    0  501 -0.00000000000E+00  0.00000000000E+00  0.84762120240E+03  0.84762120240E+03  0.00000000000E+00 0.  1.
          2   -1    0    0  501    0  0.00000000000E+00 -0.00000000000E+00 -0.90237332237E+03  0.90237332237E+03  0.00000000000E+00 0. -1.
         24    2    1    2    0    0 -0.58962391104E+03 -0.75280539220E+02 -0.25889658157E+03  0.65310841060E+03  0.78737792609E+02 0.  0.
        254    2    1    2    0    0  0.58962391104E+03  0.75280539220E+02  0.20414446160E+03  0.10968861142E+04  0.89897756935E+03 0.  0.
         23    2    4    4    0    0  0.56690866783E+03 -0.23304825510E+03 -0.12894174324E+03  0.63328595381E+03  0.93424832227E+02 0.  0.
         23    2    4    4    0    0  0.22715243213E+02  0.30832879432E+03  0.33308620484E+03  0.46360016036E+03  0.91630023165E+02 0.  0.
          2    1    3    3  502    0 -0.51627762980E+02  0.51111927599E+01 -0.44719135181E+02  0.68493439490E+02  0.00000000000E+00 0. -1.
         -1    1    3    3    0  502 -0.53799614806E+03 -0.80391731980E+02 -0.21417744639E+03  0.58461497111E+03  0.00000000000E+00 0.  1.
         11    1    5    5    0    0  0.19711847187E+03 -0.11802525284E+03 -0.18066931769E+02  0.23046055255E+03  0.00000000000E+00 0.  1.
        -11    1    5    5    0    0  0.36979019596E+03 -0.11502300226E+03 -0.11087481147E+03  0.40282540126E+03  0.00000000000E+00 0. -1.
          1    1    6    6  503    0  0.40480204880E+02  0.27733195236E+03  0.32040670697E+03  0.42569016510E+03  0.00000000000E+00 0. -1.
         -1    1    6    6    0  503 -0.17764961666E+02  0.30996841955E+02  0.12679497872E+02  0.37909995258E+02  0.00000000000E+00 0.  1.
<mgrwt>
<rscale>  0 0.17491378E+04</rscale>
<asrwt>0</asrwt>
<pdfrwt beam="1">  1        2 0.13882666E+00 0.17491378E+04</pdfrwt>
<pdfrwt beam="2">  1       -1 0.13040326E+00 0.17491378E+04</pdfrwt>
<totfact> 0.15903297E+01</totfact>
</mgrwt>
</event>
<event>
12    6  0.1402540E-007  0.1831503E+04  0.7818608E-02  0.8689723E-01
         -1   -1    0    0    0  501 -0.00000000000E+00  0.00000000000E+00  0.25822108072E+03  0.25822108072E+03  0.00000000000E+00 0.  1.
          2   -1    0    0  501    0  0.00000000000E+00 -0.00000000000E+00 -0.32476094251E+04  0.32476094251E+04  0.00000000000E+00 0. -1.
         24    2    1    2    0    0 -0.45004457786E+03 -0.45730058023E+03 -0.64256873144E+03  0.91153885128E+03  0.79652746585E+02 0.  0.
        254    2    1    2    0    0  0.45004457786E+03  0.45730058023E+03 -0.23468196129E+04  0.25942916545E+04  0.90062364522E+03 0.  0.
         23    2    4    4    0    0 -0.18482175673E+03  0.41054796472E+03 -0.87162468682E+03  0.98491960874E+03  0.87340299403E+02 0.  0.
         23    2    4    4    0    0  0.63486633460E+03  0.46752615503E+02 -0.14751949261E+04  0.16093720458E+04  0.92936762713E+02 0.  0.
          4    1    3    3  502    0 -0.12742187048E+03 -0.17587083062E+03 -0.24327464621E+03  0.32611261188E+03  0.00000000000E+00 0. -1.
         -3    1    3    3    0  502 -0.32262270738E+03 -0.28142974961E+03 -0.39929408523E+03  0.58542623940E+03  0.00000000000E+00 0.  1.
         11    1    5    5    0    0 -0.58150394525E+02  0.23427011676E+03 -0.44529660346E+03  0.50651063271E+03  0.00000000000E+00 0.  1.
        -11    1    5    5    0    0 -0.12667136221E+03  0.17627784796E+03 -0.42632808335E+03  0.47840897603E+03  0.00000000000E+00 0. -1.
          1    1    6    6  503    0  0.34742025090E+03  0.71786593207E+02 -0.82248341377E+03  0.89573049051E+03  0.00000000000E+00 0. -1.
         -1    1    6    6    0  503  0.28744608369E+03 -0.25033977705E+02 -0.65271151232E+03  0.71364155526E+03  0.00000000000E+00 0.  1.
<mgrwt>
<rscale>  0 0.18315034E+04</rscale>
<asrwt>0</asrwt>
<pdfrwt beam="1">  1        2 0.49963223E+00 0.18315034E+04</pdfrwt>
<pdfrwt beam="2">  1       -1 0.39726319E-01 0.18315034E+04</pdfrwt>
<totfact> 0.80227053E+00</totfact>
</mgrwt>
</event>
<event>
12    6  0.1402540E-007  0.1381351E+04  0.7818608E-02  0.8967429E-01
          2   -1    0    0  501    0  0.00000000000E+00  0.00000000000E+00  0.84359953108E+03  0.84359953108E+03  0.00000000000E+00 0. -1.
         -1   -1    0    0    0  501 -0.00000000000E+00 -0.00000000000E+00 -0.56547302936E+03  0.56547302936E+03  0.00000000000E+00 0.  1.
         24    2    1    2    0    0 -0.17442616351E+03  0.34601833913E+03  0.12898787635E+02  0.39606017623E+03  0.80895654661E+02 0.  0.
        254    2    1    2    0    0  0.17442616351E+03 -0.34601833913E+03  0.26522771409E+03  0.10130123842E+04  0.89760524325E+03 0.  0.
         23    2    4    4    0    0  0.99360292147E+02 -0.64059387294E+03  0.22907834143E+03  0.69375520064E+03  0.92662906299E+02 0.  0.
         23    2    4    4    0    0  0.75065871367E+02  0.29457553381E+03  0.36149372657E+02  0.31925718357E+03  0.90602107899E+02 0.  0.
          2    1    3    3  502    0 -0.35157882659E+02  0.12299680346E+03  0.33751547187E+02  0.13230063232E+03  0.00000000000E+00 0. -1.
         -1    1    3    3    0  502 -0.13926828085E+03  0.22302153566E+03 -0.20852759552E+02  0.26375954391E+03  0.00000000000E+00 0.  1.
         11    1    5    5    0    0  0.77786231796E+02 -0.36484531282E+03  0.17445438492E+03  0.41182172424E+03  0.00000000000E+00 0. -1.
        -11    1    5    5    0    0  0.21574060351E+02 -0.27574856012E+03  0.54623956511E+02  0.28193347640E+03  0.00000000000E+00 0.  1.
          1    1    6    6  503    0  0.59524605359E+01  0.19960309216E+03  0.25603395887E+02  0.20132650115E+03  0.00000000000E+00 0. -1.
         -1    1    6    6    0  503  0.69113410831E+02  0.94972441652E+02  0.10545976770E+02  0.11793068242E+03  0.00000000000E+00 0.  1.
<mgrwt>
<rscale>  0 0.13813512E+04</rscale>
<asrwt>0</asrwt>
<pdfrwt beam="1">  1        2 0.12978454E+00 0.13813512E+04</pdfrwt>
<pdfrwt beam="2">  1       -1 0.86995851E-01 0.13813512E+04</pdfrwt>
<totfact> 0.46453550E+01</totfact>
</mgrwt>
</event>
<event>
12    6  0.1402540E-007  0.1919947E+04  0.7818608E-02  0.8644991E-01
         -1   -1    0    0    0  501 -0.00000000000E+00  0.00000000000E+00  0.80206888423E+03  0.80206888423E+03  0.00000000000E+00 0.  1.
          2   -1    0    0  501    0  0.00000000000E+00 -0.00000000000E+00 -0.11489652064E+04  0.11489652064E+04  0.00000000000E+00 0. -1.
         24    2    1    2    0    0 -0.72066177300E+03  0.18829027897E+03 -0.65326244034E+02  0.75204336753E+03  0.80592110408E+02 0.  0.
        254    2    1    2    0    0  0.72066177300E+03 -0.18829027897E+03 -0.28157007816E+03  0.11989907231E+04  0.89637627424E+03 0.  0.
         23    2    4    4    0    0 -0.71708522716E+02 -0.29825617800E+03  0.57854244871E+02  0.32507749605E+03  0.90716067172E+02 0.  0.
         23    2    4    4    0    0  0.79237029572E+03  0.10996589903E+03 -0.33942432303E+03  0.87391322708E+03  0.92586569860E+02 0.  0.
          2    1    3    3  502    0 -0.17262624463E+03  0.47408737948E+02 -0.50462817836E+02  0.18599436753E+03  0.00000000000E+00 0. -1.
         -1    1    3    3    0  502 -0.54803552838E+03  0.14088154102E+03 -0.14863426198E+02  0.56604900000E+03  0.00000000000E+00 0.  1.
         11    1    5    5    0    0 -0.21133576897E+02 -0.22319872341E+03  0.14343872962E+02  0.22465539142E+03  0.00000000000E+00 0. -1.
        -11    1    5    5    0    0 -0.50574945819E+02 -0.75057454594E+02  0.43510371908E+02  0.10042210463E+03  0.00000000000E+00 0.  1.
          1    1    6    6  503    0  0.70971233949E+03  0.12445747205E+03 -0.29149039930E+03  0.77726952858E+03  0.00000000000E+00 0. -1.
         -1    1    6    6    0  503  0.82657956229E+02 -0.14491573015E+02 -0.47933923731E+02  0.96643698504E+02  0.00000000000E+00 0.  1.
<mgrwt>
<rscale>  0 0.19199471E+04</rscale>
<asrwt>0</asrwt>
<pdfrwt beam="1">  1        2 0.17676388E+00 0.19199471E+04</pdfrwt>
<pdfrwt beam="2">  1       -1 0.12339521E+00 0.19199471E+04</pdfrwt>
<totfact> 0.12530099E+01</totfact>
</mgrwt>
</event>
<event>
12    6  0.1402540E-007  0.2932344E+04  0.7818608E-02  0.8263319E-01
         -1   -1    0    0    0  501 -0.00000000000E+00  0.00000000000E+00  0.11638087240E+04  0.11638087240E+04  0.00000000000E+00 0.  1.
          2   -1    0    0  501    0  0.00000000000E+00 -0.00000000000E+00 -0.18470912089E+04  0.18470912089E+04  0.00000000000E+00 0. -1.
         24    2    1    2    0    0 -0.81020210613E+03  0.10001925249E+04  0.18242357070E+02  0.12896599713E+04  0.77958439594E+02 0.  0.
        254    2    1    2    0    0  0.81020210613E+03 -0.10001925249E+04 -0.70152484198E+03  0.17212399617E+04  0.90206283712E+03 0.  0.
         23    2    4    4    0    0  0.17633946561E+03 -0.71815132634E+02  0.19005741987E+03  0.28325735094E+03  0.88655984620E+02 0.  0.
         23    2    4    4    0    0  0.63386264052E+03 -0.92837739225E+03 -0.89158226185E+03  0.14379826107E+04  0.95961604914E+02 0.  0.
          4    1    3    3  502    0 -0.10534844647E+03  0.14184204847E+03  0.28355802135E+02  0.17894555988E+03  0.00000000000E+00 0. -1.
         -3    1    3    3    0  502 -0.70485365966E+03  0.85835047641E+03 -0.10113445065E+02  0.11107144114E+04  0.00000000000E+00 0.  1.
         11    1    5    5    0    0  0.95715162644E+02 -0.30480370625E+02  0.40316848126E+02  0.10823998150E+03  0.00000000000E+00 0. -1.
        -11    1    5    5    0    0  0.80624302969E+02 -0.41334762008E+02  0.14974057174E+03  0.17501736944E+03  0.00000000000E+00 0.  1.
          1    1    6    6  503    0  0.45474765979E+03 -0.65995180289E+03 -0.57907870432E+03  0.98876891235E+03  0.00000000000E+00 0. -1.
         -1    1    6    6    0  503  0.17911498073E+03 -0.26842558936E+03 -0.31250355752E+03  0.44921369838E+03  0.00000000000E+00 0.  1.
<mgrwt>
<rscale>  0 0.29323444E+04</rscale>
<asrwt>0</asrwt>
<pdfrwt beam="1">  1        2 0.28416788E+00 0.29323444E+04</pdfrwt>
<pdfrwt beam="2">  1       -1 0.17904750E+00 0.29323444E+04</pdfrwt>
<totfact> 0.16825566E+00</totfact>
</mgrwt>
</event>
<event>
12    6  0.1402540E-007  0.2572883E+04  0.7818608E-02  0.8377471E-01
          2   -1    0    0  501    0  0.00000000000E+00  0.00000000000E+00  0.18787338793E+04  0.18787338793E+04  0.00000000000E+00 0. -1.
         -1   -1    0    0    0  501 -0.00000000000E+00 -0.00000000000E+00 -0.88087605061E+03  0.88087605061E+03  0.00000000000E+00 0.  1.
         24    2    1    2    0    0  0.96492249038E+03 -0.56045607342E+03  0.26697177336E+03  0.11499671285E+04  0.77227236924E+02 0.  0.
        254    2    1    2    0    0 -0.96492249038E+03  0.56045607342E+03  0.73088605532E+03  0.16096428014E+04  0.90087130026E+03 0.  0.
         23    2    4    4    0    0 -0.48417870942E+03 -0.12992353784E+02  0.69801164581E+03  0.85458217057E+03  0.92155328964E+02 0.  0.
         23    2    4    4    0    0 -0.48074378096E+03  0.57344842720E+03  0.32874409513E+02  0.75506063085E+03  0.95279315034E+02 0.  0.
          4    1    3    3  502    0  0.86110018515E+03 -0.50786482047E+03  0.21530824676E+03  0.10226328011E+04  0.00000000000E+00 0. -1.
         -3    1    3    3    0  502  0.10382230523E+03 -0.52591252943E+02  0.51663526596E+02  0.12733432738E+03  0.00000000000E+00 0.  1.
         11    1    5    5    0    0 -0.24284086752E+03  0.11226595847E+02  0.27567770751E+03  0.36755397129E+03  0.00000000000E+00 0.  1.
        -11    1    5    5    0    0 -0.24133784190E+03 -0.24218949631E+02  0.42233393830E+03  0.48702819928E+03  0.00000000000E+00 0. -1.
          4    1    6    6  503    0 -0.16818476900E+03  0.27272898862E+03  0.55211169812E+01  0.32046481942E+03  0.00000000000E+00 0.  1.
         -4    1    6    6    0  503 -0.31255901196E+03  0.30071943858E+03  0.27353292532E+02  0.43459581143E+03  0.00000000000E+00 0. -1.
<mgrwt>
<rscale>  0 0.25728830E+04</rscale>
<asrwt>0</asrwt>
<pdfrwt beam="1">  1        2 0.28903598E+00 0.25728830E+04</pdfrwt>
<pdfrwt beam="2">  1       -1 0.13551939E+00 0.25728830E+04</pdfrwt>
<totfact> 0.35907288E+00</totfact>
</mgrwt>
</event>
<event>
12    6  0.1402540E-007  0.1292134E+04  0.7818608E-02  0.9035826E-01
         -1   -1    0    0    0  501 -0.00000000000E+00  0.00000000000E+00  0.13656357980E+03  0.13656357980E+03  0.00000000000E+00 0.  1.
          2   -1    0    0  501    0  0.00000000000E+00 -0.00000000000E+00 -0.30564729120E+04  0.30564729120E+04  0.00000000000E+00 0. -1.
         24    2    1    2    0    0  0.13150703249E+03  0.22864373407E+03 -0.12315872387E+04  0.12620046251E+04  0.79224304723E+02 0.  0.
        254    2    1    2    0    0 -0.13150703249E+03 -0.22864373407E+03 -0.16883220936E+04  0.19310318668E+04  0.89937785285E+03 0.  0.
         23    2    4    4    0    0  0.65741994256E+02 -0.49459213526E+03 -0.57865102412E+03  0.76949796580E+03  0.91360394015E+02 0.  0.
         23    2    4    4    0    0 -0.19724902675E+03  0.26594840119E+03 -0.11096710695E+04  0.11615339010E+04  0.90307198502E+02 0.  0.
          2    1    3    3  502    0  0.12798619025E+03  0.16460182986E+03 -0.85942690069E+03  0.88435786021E+03  0.00000000000E+00 0. -1.
         -1    1    3    3    0  502  0.35208422437E+01  0.64041904210E+02 -0.37216033798E+03  0.37764676484E+03  0.00000000000E+00 0.  1.
         11    1    5    5    0    0  0.71322812702E+02 -0.42973462505E+03 -0.53996544278E+03  0.69377335707E+03  0.00000000000E+00 0.  1.
        -11    1    5    5    0    0 -0.55808184464E+01 -0.64857510209E+02 -0.38685581340E+02  0.75724608739E+02  0.00000000000E+00 0. -1.
          3    1    6    6  503    0 -0.14998837294E+03  0.22597895033E+03 -0.99405093316E+03  0.10303884004E+04  0.00000000000E+00 0. -1.
         -3    1    6    6    0  503 -0.47260653813E+02  0.39969450861E+02 -0.11562013630E+03  0.13114550057E+03  0.00000000000E+00 0.  1.
<mgrwt>
<rscale>  0 0.12921345E+04</rscale>
<asrwt>0</asrwt>
<pdfrwt beam="1">  1        2 0.47022664E+00 0.12921345E+04</pdfrwt>
<pdfrwt beam="2">  1       -1 0.21009780E-01 0.12921345E+04</pdfrwt>
<totfact> 0.34161434E+01</totfact>
</mgrwt>
</event>
<event>
12    6  0.1402540E-007  0.1595879E+04  0.7818608E-02  0.8823084E-01
          2   -1    0    0  501    0  0.00000000000E+00  0.00000000000E+00  0.16874189722E+04  0.16874189722E+04  0.00000000000E+00 0. -1.
         -1   -1    0    0    0  501 -0.00000000000E+00 -0.00000000000E+00 -0.37732610255E+03  0.37732610255E+03  0.00000000000E+00 0.  1.
         24    2    1    2    0    0  0.34358338566E+03  0.41671806404E+03  0.46945207162E+03  0.72024188530E+03  0.81606605057E+02 0.  0.
        254    2    1    2    0    0 -0.34358338566E+03 -0.41671806404E+03  0.84064079802E+03  0.13445031894E+04  0.89961568868E+03 0.  0.
         23    2    4    4    0    0  0.19972673152E+02 -0.47723284975E+02  0.81100758758E+03  0.81768200119E+03  0.90521424790E+02 0.  0.
         23    2    4    4    0    0 -0.36355605881E+03 -0.36899477907E+03  0.29633210435E+02  0.52682118825E+03  0.91281336267E+02 0.  0.
          4    1    3    3  502    0  0.55633036149E+02  0.10381341858E+03  0.13560877724E+03  0.17961626054E+03  0.00000000000E+00 0. -1.
         -3    1    3    3    0  502  0.28795034951E+03  0.31290464547E+03  0.33384329438E+03  0.54062562475E+03  0.00000000000E+00 0.  1.
         11    1    5    5    0    0 -0.52447813590E+01 -0.14313642902E+02  0.18074225958E+02  0.23644571230E+02  0.00000000000E+00 0. -1.
        -11    1    5    5    0    0  0.25217454511E+02 -0.33409642073E+02  0.79293336163E+03  0.79403742996E+03  0.00000000000E+00 0.  1.
          1    1    6    6  503    0 -0.11831078761E+03 -0.86021429672E+02  0.41905162793E+02  0.15216166237E+03  0.00000000000E+00 0. -1.
         -1    1    6    6    0  503 -0.24524527120E+03 -0.28297334940E+03 -0.12271952358E+02  0.37465952587E+03  0.00000000000E+00 0.  1.
<mgrwt>
<rscale>  0 0.15958787E+04</rscale>
<asrwt>0</asrwt>
<pdfrwt beam="1">  1        2 0.25960292E+00 0.15958787E+04</pdfrwt>
<pdfrwt beam="2">  1       -1 0.58050170E-01 0.15958787E+04</pdfrwt>
<totfact> 0.32742458E+01</totfact>
</mgrwt>
</event>
<event>
12    6  0.1402540E-007  0.2164371E+04  0.7818608E-02  0.8533406E-01
         -1   -1    0    0    0  501 -0.00000000000E+00  0.00000000000E+00  0.80659902402E+03  0.80659902402E+03  0.00000000000E+00 0.  1.
          2   -1    0    0  501    0  0.00000000000E+00 -0.00000000000E+00 -0.14519300346E+04  0.14519300346E+04  0.00000000000E+00 0. -1.
         24    2    1    2    0    0 -0.32154788839E+03  0.49426020031E+03 -0.96770677859E+03  0.11362132271E+04  0.82691584101E+02 0.  0.
        254    2    1    2    0    0  0.32154788839E+03 -0.49426020031E+03  0.32237576799E+03  0.11223158315E+04  0.89887735519E+03 0.  0.
         23    2    4    4    0    0  0.35203995609E+03 -0.11750934548E+03 -0.23056968745E+03  0.44645600546E+03  0.91760596590E+02 0.  0.
         23    2    4    4    0    0 -0.30492067702E+02 -0.37675085483E+03  0.55294545544E+03  0.67585982602E+03  0.90370653038E+02 0.  0.
          2    1    3    3  502    0 -0.20697104945E+03  0.30416307043E+03 -0.67643929931E+03  0.77001448972E+03  0.00000000000E+00 0. -1.
         -1    1    3    3    0  502 -0.11457683894E+03  0.19009712988E+03 -0.29126747928E+03  0.36619873743E+03  0.00000000000E+00 0.  1.
         11    1    5    5    0    0  0.28743363265E+03 -0.84936126036E+02 -0.22326048536E+03  0.37373450873E+03  0.00000000000E+00 0. -1.
        -11    1    5    5    0    0  0.64606323434E+02 -0.32573219444E+02 -0.73092020815E+01  0.72721496737E+02  0.00000000000E+00 0.  1.
          4    1    6    6  503    0 -0.11742877087E+02 -0.36298286344E+03  0.49949931272E+03  0.61757106289E+03  0.00000000000E+00 0. -1.
         -4    1    6    6    0  503 -0.18749190615E+02 -0.13767991389E+02  0.53446142714E+02  0.58288763125E+02  0.00000000000E+00 0.  1.
<mgrwt>
<rscale>  0 0.21643709E+04</rscale>
<asrwt>0</asrwt>
<pdfrwt beam="1">  1        2 0.22337385E+00 0.21643709E+04</pdfrwt>
<pdfrwt beam="2">  1       -1 0.12409216E+00 0.21643709E+04</pdfrwt>
<totfact> 0.80453097E+00</totfact>
</mgrwt>
</event>
<event>
12    6  0.1402540E-007  0.3016731E+04  0.7818608E-02  0.8238969E-01
          2   -1    0    0  501    0  0.00000000000E+00  0.00000000000E+00  0.11844790348E+04  0.11844790348E+04  0.00000000000E+00 0. -1.
         -1   -1    0    0    0  501 -0.00000000000E+00 -0.00000000000E+00 -0.19208166468E+04  0.19208166468E+04  0.00000000000E+00 0.  1.
         24    2    1    2    0    0 -0.98317338672E+03 -0.90539148225E+03 -0.66094915140E+03  0.14932066394E+04  0.80303441356E+02 0.  0.
        254    2    1    2    0    0  0.98317338672E+03  0.90539148225E+03 -0.75388460616E+02  0.16120890422E+04  0.89821156498E+03 0.  0.
         23    2    4    4    0    0  0.58340489791E+03  0.29103118636E+03 -0.43647335135E+03  0.78987917705E+03  0.91321966410E+02 0.  0.
         23    2    4    4    0    0  0.39976848881E+03  0.61436029589E+03  0.36108489074E+03  0.82220986514E+03  0.91615207304E+02 0.  0.
          2    1    3    3  502    0 -0.63974216370E+03 -0.63962168297E+03 -0.44016540697E+03  0.10060474734E+04  0.00000000000E+00 0. -1.
         -1    1    3    3    0  502 -0.34343122302E+03 -0.26576979928E+03 -0.22078374443E+03  0.48715916594E+03  0.00000000000E+00 0.  1.
         11    1    5    5    0    0  0.59468372557E+02  0.23419831187E+02 -0.78413033896E+02  0.10116115713E+03  0.00000000000E+00 0.  1.
        -11    1    5    5    0    0  0.52393652535E+03  0.26761135518E+03 -0.35806031746E+03  0.68871801991E+03  0.00000000000E+00 0. -1.
          1    1    6    6  503    0  0.27423546035E+03  0.49262785754E+03  0.27525243935E+03  0.62741628853E+03  0.00000000000E+00 0. -1.
         -1    1    6    6    0  503  0.12553302846E+03  0.12173243835E+03  0.85832451389E+02  0.19479357662E+03  0.00000000000E+00 0.  1.
<mgrwt>
<rscale>  0 0.30167314E+04</rscale>
<asrwt>0</asrwt>
<pdfrwt beam="1">  1        2 0.18222754E+00 0.30167314E+04</pdfrwt>
<pdfrwt beam="2">  1       -1 0.29551025E+00 0.30167314E+04</pdfrwt>
<totfact> 0.66547724E-01</totfact>
</mgrwt>
</event>
<event>
12    6  0.1402540E-007  0.1724486E+04  0.7818608E-02  0.8747521E-01
         -1   -1    0    0    0  501 -0.00000000000E+00  0.00000000000E+00  0.11218282514E+04  0.11218282514E+04  0.00000000000E+00 0.  1.
          2   -1    0    0  501    0  0.00000000000E+00 -0.00000000000E+00 -0.66272453238E+03  0.66272453238E+03  0.00000000000E+00 0. -1.
         24    2    1    2    0    0 -0.22245330032E+03 -0.58244517097E+03  0.15577995081E+03  0.64788631244E+03  0.82227931810E+02 0.  0.
        254    2    1    2    0    0  0.22245330032E+03  0.58244517097E+03  0.30332376820E+03  0.11366664713E+04  0.90070944852E+03 0.  0.
         23    2    4    4    0    0 -0.43017721601E+02  0.65441549404E+03 -0.67475249607E+02  0.66572010346E+03  0.92304840778E+02 0.  0.
         23    2    4    4    0    0  0.26547102192E+03 -0.71970323075E+02  0.37079901781E+03  0.47094636786E+03  0.92973000947E+02 0.  0.
          4    1    3    3  502    0 -0.16318184219E+03 -0.33545117800E+03  0.68292621629E+02  0.37923566368E+03  0.00000000000E+00 0. -1.
         -3    1    3    3    0  502 -0.59271458133E+02 -0.24699399297E+03  0.87487329176E+02  0.26865064876E+03  0.00000000000E+00 0.  1.
         11    1    5    5    0    0 -0.14880415492E+02  0.15118754856E+03  0.23002043713E+02  0.15364958712E+03  0.00000000000E+00 0.  1.
        -11    1    5    5    0    0 -0.28137306109E+02  0.50322794548E+03 -0.90477293320E+02  0.51207051635E+03  0.00000000000E+00 0. -1.
          1    1    6    6  503    0  0.22277095304E+03 -0.33698778222E+02  0.33373962883E+03  0.40267188258E+03  0.00000000000E+00 0. -1.
         -1    1    6    6    0  503  0.42700068883E+02 -0.38271544853E+02  0.37059388986E+02  0.68274485279E+02  0.00000000000E+00 0.  1.
<mgrwt>
<rscale>  0 0.17244861E+04</rscale>
<asrwt>0</asrwt>
<pdfrwt beam="1">  1        2 0.10195762E+00 0.17244861E+04</pdfrwt>
<pdfrwt beam="2">  1       -1 0.17258896E+00 0.17244861E+04</pdfrwt>
<totfact> 0.11212822E+01</totfact>
</mgrwt>
</event>
<event>
12    6  0.1402540E-007  0.2548919E+04  0.7818608E-02  0.8385762E-01
          2   -1    0    0  501    0  0.00000000000E+00  0.00000000000E+00  0.18364000720E+04  0.18364000720E+04  0.00000000000E+00 0. -1.
         -1   -1    0    0    0  501 -0.00000000000E+00 -0.00000000000E+00 -0.88447311279E+03  0.88447311279E+03  0.00000000000E+00 0.  1.
         24    2    1    2    0    0  0.89121167599E+03 -0.30247850605E+03  0.10521819619E+04  0.14138110329E+04  0.77609649933E+02 0.  0.
        254    2    1    2    0    0 -0.89121167599E+03  0.30247850605E+03 -0.10025500276E+03  0.13070621518E+04  0.90144822654E+03 0.  0.
         23    2    4    4    0    0 -0.37715453138E+03  0.24668265551E+03  0.37968600722E+03  0.59634104260E+03  0.91451090441E+02 0.  0.
         23    2    4    4    0    0 -0.51405714461E+03  0.55795850543E+02 -0.47994100998E+03  0.71072110923E+03  0.86099925527E+02 0.  0.
          4    1    3    3  502    0  0.39958582014E+03 -0.16409847809E+03  0.52378099502E+03  0.67892832385E+03  0.00000000000E+00 0. -1.
         -1    1    3    3    0  502  0.49162585584E+03 -0.13838002796E+03  0.52840096690E+03  0.73488270907E+03  0.00000000000E+00 0.  1.
         11    1    5    5    0    0 -0.89829049658E+02  0.52621059209E+02  0.41722986331E+02  0.11215632672E+03  0.00000000000E+00 0. -1.
        -11    1    5    5    0    0 -0.28732548172E+03  0.19406159630E+03  0.33796302089E+03  0.48418471588E+03  0.00000000000E+00 0.  1.
          2    1    6    6  503    0 -0.12305285365E+03  0.15471424756E+02 -0.16847825295E+03  0.20920394713E+03  0.00000000000E+00 0. -1.
         -2    1    6    6    0  503 -0.39100429096E+03  0.40324425787E+02 -0.31146275703E+03  0.50151716210E+03  0.00000000000E+00 0.  1.
<mgrwt>
<rscale>  0 0.25489186E+04</rscale>
<asrwt>0</asrwt>
<pdfrwt beam="1">  1        2 0.28252309E+00 0.25489186E+04</pdfrwt>
<pdfrwt beam="2">  1       -1 0.13607279E+00 0.25489186E+04</pdfrwt>
<totfact> 0.37586245E+00</totfact>
</mgrwt>
</event>
<event>
12    6  0.1402540E-007  0.2089856E+04  0.7818608E-02  0.8565725E-01
         -1   -1    0    0    0  501 -0.00000000000E+00  0.00000000000E+00  0.73895942007E+03  0.73895942007E+03  0.00000000000E+00 0.  1.
          2   -1    0    0  501    0  0.00000000000E+00 -0.00000000000E+00 -0.14775832600E+04  0.14775832600E+04  0.00000000000E+00 0. -1.
         24    2    1    2    0    0  0.62952822663E+03 -0.49701633452E+03 -0.59820707948E+03  0.10038877038E+04  0.81288295467E+02 0.  0.
        254    2    1    2    0    0 -0.62952822663E+03  0.49701633452E+03 -0.14041676041E+03  0.12126549762E+04  0.89860124632E+03 0.  0.
         23    2    4    4    0    0 -0.52387560308E+03  0.39945308116E+03  0.30837497189E+03  0.73237959935E+03  0.85301481254E+02 0.  0.
         23    2    4    4    0    0 -0.10565262356E+03  0.97563253356E+02 -0.44879173230E+03  0.48027537689E+03  0.92570802098E+02 0.  0.
          4    1    3    3  502    0  0.41969356851E+03 -0.30255066761E+03 -0.42409120404E+03  0.66897903350E+03  0.00000000000E+00 0. -1.
         -3    1    3    3    0  502  0.20983465812E+03 -0.19446566691E+03 -0.17411587543E+03  0.33490867029E+03  0.00000000000E+00 0.  1.
         11    1    5    5    0    0 -0.38446034955E+03  0.26832728011E+03  0.25493531165E+03  0.53366778313E+03  0.00000000000E+00 0.  1.
        -11    1    5    5    0    0 -0.13941525353E+03  0.13112580105E+03  0.53439660244E+02  0.19871181622E+03  0.00000000000E+00 0. -1.
          3    1    6    6  503    0 -0.26802728543E+02 -0.18323353979E+01 -0.19179532059E+03  0.19366772759E+03  0.00000000000E+00 0. -1.
         -3    1    6    6    0  503 -0.78849895012E+02  0.99395588754E+02 -0.25699641171E+03  0.28660764930E+03  0.00000000000E+00 0.  1.
<mgrwt>
<rscale>  0 0.20898556E+04</rscale>
<asrwt>0</asrwt>
<pdfrwt beam="1">  1        2 0.22732050E+00 0.20898556E+04</pdfrwt>
<pdfrwt beam="2">  1       -1 0.11368607E+00 0.20898556E+04</pdfrwt>
<totfact> 0.96913103E+00</totfact>
</mgrwt>
</event>
<event>
12    6  0.1402540E-007  0.1422642E+04  0.7818608E-02  0.8937590E-01
         -1   -1    0    0    0  501 -0.00000000000E+00  0.00000000000E+00  0.35763682340E+03  0.35763682340E+03  0.00000000000E+00 0.  1.
          2   -1    0    0  501    0  0.00000000000E+00 -0.00000000000E+00 -0.14147802353E+04  0.14147802353E+04  0.00000000000E+00 0. -1.
         24    2    1    2    0    0 -0.12138750088E+03 -0.30273794894E+03  0.10521882948E+01  0.34267983344E+03  0.10508648842E+03 0.  0.
        254    2    1    2    0    0  0.12138750088E+03  0.30273794894E+03 -0.10581956002E+04  0.14297372253E+04  0.90442546069E+03 0.  0.
         23    2    4    4    0    0  0.98154558511E+02  0.39567197054E+03 -0.59174738525E+02  0.42200322730E+03  0.91621223222E+02 0.  0.
         23    2    4    4    0    0  0.23232942372E+02 -0.92934021601E+02 -0.99902086168E+03  0.10077339980E+04  0.91151668228E+02 0.  0.
          2    1    3    3  502    0  0.31649280868E+01 -0.54183214592E+02  0.31903239698E+02  0.62957558851E+02  0.00000000000E+00 0. -1.
         -1    1    3    3    0  502 -0.12455242897E+03 -0.24855473435E+03 -0.30851051403E+02  0.27972227459E+03  0.00000000000E+00 0.  1.
         11    1    5    5    0    0  0.10529056227E+03  0.28113842692E+03 -0.64752815498E+02  0.30711210447E+03  0.00000000000E+00 0.  1.
        -11    1    5    5    0    0 -0.71360037565E+01  0.11453354362E+03  0.55780769728E+01  0.11489112283E+03  0.00000000000E+00 0. -1.
          2    1    6    6  503    0  0.55920378980E+02 -0.37572746719E+02 -0.46438547300E+03  0.46924691541E+03  0.00000000000E+00 0. -1.
         -2    1    6    6    0  503 -0.32687436608E+02 -0.55361274881E+02 -0.53463538868E+03  0.53848708257E+03  0.00000000000E+00 0.  1.
<mgrwt>
<rscale>  0 0.14226419E+04</rscale>
<asrwt>0</asrwt>
<pdfrwt beam="1">  1        2 0.21765850E+00 0.14226419E+04</pdfrwt>
<pdfrwt beam="2">  1       -1 0.55021050E-01 0.14226419E+04</pdfrwt>
<totfact> 0.52464213E+01</totfact>
</mgrwt>
</event>
<event>
12    6  0.1402540E-007  0.1669516E+04  0.7818608E-02  0.8778944E-01
          2   -1    0    0  501    0  0.00000000000E+00  0.00000000000E+00  0.83939576443E+03  0.83939576443E+03  0.00000000000E+00 0. -1.
         -1   -1    0    0    0  501 -0.00000000000E+00 -0.00000000000E+00 -0.83014597047E+03  0.83014597047E+03  0.00000000000E+00 0.  1.
         24    2    1    2    0    0 -0.10678916584E+03 -0.26783799682E+03  0.51729235393E+03  0.59746217908E+03  0.78921210836E+02 0.  0.
        254    2    1    2    0    0  0.10678916584E+03  0.26783799682E+03 -0.50804255997E+03  0.10720795558E+04  0.89894728031E+03 0.  0.
         23    2    4    4    0    0 -0.33494936372E+02  0.19479799794E+03  0.22796124280E+03  0.31325939882E+03  0.84243409037E+02 0.  0.
         23    2    4    4    0    0  0.14028410221E+03  0.73039998877E+02 -0.73600380277E+03  0.75882015700E+03  0.95351781350E+02 0.  0.
          2    1    3    3  502    0 -0.64032933881E+02 -0.14708185493E+03  0.36338864722E+03  0.39722109410E+03  0.00000000000E+00 0. -1.
         -1    1    3    3    0  502 -0.42756231958E+02 -0.12075614189E+03  0.15390370671E+03  0.20024108498E+03  0.00000000000E+00 0.  1.
         11    1    5    5    0    0 -0.46105971940E+02  0.61019842734E+02  0.54839357371E+02  0.94109175815E+02  0.00000000000E+00 0. -1.
        -11    1    5    5    0    0  0.12611035568E+02  0.13377815521E+03  0.17312188543E+03  0.21915022301E+03  0.00000000000E+00 0.  1.
          1    1    6    6  503    0  0.85794009163E+02  0.50571114848E+02 -0.24767980087E+03  0.26695193092E+03  0.00000000000E+00 0. -1.
         -1    1    6    6    0  503  0.54490093049E+02  0.22468884029E+02 -0.48832400190E+03  0.49186822607E+03  0.00000000000E+00 0.  1.
<mgrwt>
<rscale>  0 0.16695161E+04</rscale>
<asrwt>0</asrwt>
<pdfrwt beam="1">  1        2 0.12913781E+00 0.16695161E+04</pdfrwt>
<pdfrwt beam="2">  1       -1 0.12771476E+00 0.16695161E+04</pdfrwt>
<totfact> 0.18646045E+01</totfact>
</mgrwt>
</event>
<event>
12    6  0.1402540E-007  0.3791743E+04  0.7818608E-02  0.8047929E-01
          2   -1    0    0  501    0  0.00000000000E+00  0.00000000000E+00  0.37713023693E+04  0.37713023693E+04  0.00000000000E+00 0. -1.
         -1   -1    0    0    0  501 -0.00000000000E+00 -0.00000000000E+00 -0.95307378360E+03  0.95307378360E+03  0.00000000000E+00 0.  1.
         24    2    1    2    0    0  0.61236226351E+03  0.16797947277E+04  0.13071780465E+04  0.22163053870E+04  0.81223482732E+02 0.  0.
        254    2    1    2    0    0 -0.61236226351E+03 -0.16797947277E+04  0.15110505392E+04  0.25080707659E+04  0.90024850211E+03 0.  0.
         23    2    4    4    0    0 -0.49452953942E+02  0.84138263421E+02  0.17894138097E+03  0.22531481787E+03  0.96030762291E+02 0.  0.
         23    2    4    4    0    0 -0.56290930957E+03 -0.17639329912E+04  0.13321091582E+04  0.22827559480E+04  0.90185478990E+02 0.  0.
          4    1    3    3  502    0  0.46799365210E+03  0.12879540025E+04  0.10436928090E+04  0.17225383161E+04  0.00000000000E+00 0. -1.
         -3    1    3    3    0  502  0.14436861142E+03  0.39184072522E+03  0.26348523752E+03  0.49376707089E+03  0.00000000000E+00 0.  1.
         11    1    5    5    0    0 -0.69026824847E+02  0.61413682987E+02  0.80956812582E+02  0.12284277964E+03  0.00000000000E+00 0. -1.
        -11    1    5    5    0    0  0.19573870905E+02  0.22724580434E+02  0.97984568383E+02  0.10247203823E+03  0.00000000000E+00 0.  1.
          3    1    6    6  503    0 -0.20916184046E+02 -0.87666461414E+02  0.88599911593E+02  0.12638369969E+03  0.00000000000E+00 0. -1.
         -3    1    6    6    0  503 -0.54199312552E+03 -0.16762665298E+04  0.12435092466E+04  0.21563722483E+04  0.00000000000E+00 0.  1.
<mgrwt>
<rscale>  0 0.37917434E+04</rscale>
<asrwt>0</asrwt>
<pdfrwt beam="1">  1        2 0.58020036E+00 0.37917434E+04</pdfrwt>
<pdfrwt beam="2">  1       -1 0.14662674E+00 0.37917434E+04</pdfrwt>
<totfact> 0.17390085E-01</totfact>
</mgrwt>
</event>
<event>
12    6  0.1402540E-007  0.3354194E+04  0.7818608E-02  0.8149241E-01
         -1   -1    0    0    0  501 -0.00000000000E+00  0.00000000000E+00  0.14520889036E+04  0.14520889036E+04  0.00000000000E+00 0.  1.
          2   -1    0    0  501    0  0.00000000000E+00 -0.00000000000E+00 -0.19369713121E+04  0.19369713121E+04  0.00000000000E+00 0. -1.
         24    2    1    2    0    0  0.14831712259E+04 -0.22367365518E+02 -0.69750864997E+03  0.16411175082E+04  0.80319202481E+02 0.  0.
        254    2    1    2    0    0 -0.14831712259E+04  0.22367365518E+02  0.21262624144E+03  0.17479427076E+04  0.89988699619E+03 0.  0.
         23    2    4    4    0    0 -0.14196195303E+04 -0.21583714908E+03  0.30330020894E+03  0.14705648066E+04  0.93083553229E+02 0.  0.
         23    2    4    4    0    0 -0.63551695643E+02  0.23820451460E+03 -0.90673967503E+02  0.27737790099E+03  0.89087163962E+02 0.  0.
          2    1    3    3  502    0  0.10111310486E+04  0.19807527890E+00 -0.51269840300E+03  0.11336867685E+04  0.00000000000E+00 0. -1.
         -1    1    3    3    0  502  0.47204017732E+03 -0.22565440797E+02 -0.18481024698E+03  0.50743073962E+03  0.00000000000E+00 0.  1.
         11    1    5    5    0    0 -0.74740131284E+03 -0.13275810410E+03  0.20363122211E+03  0.78593836353E+03  0.00000000000E+00 0. -1.
        -11    1    5    5    0    0 -0.67221821745E+03 -0.83079044981E+02  0.99668986832E+02  0.68462644305E+03  0.00000000000E+00 0.  1.
          4    1    6    6  503    0 -0.23210125536E+02  0.11698814636E+03 -0.90346690064E+02  0.14962439882E+03  0.00000000000E+00 0. -1.
         -4    1    6    6    0  503 -0.40341570106E+02  0.12121636824E+03 -0.32727743941E+00  0.12775350218E+03  0.00000000000E+00 0.  1.
<mgrwt>
<rscale>  0 0.33541941E+04</rscale>
<asrwt>0</asrwt>
<pdfrwt beam="1">  1        2 0.29799559E+00 0.33541941E+04</pdfrwt>
<pdfrwt beam="2">  1       -1 0.22339829E+00 0.33541941E+04</pdfrwt>
<totfact> 0.71554753E-01</totfact>
</mgrwt>
</event>
<event>
12    6  0.1402540E-007  0.1544787E+04  0.7818608E-02  0.8855205E-01
         -3   -1    0    0    0  501 -0.00000000000E+00  0.00000000000E+00  0.29416526931E+03  0.29416526931E+03  0.00000000000E+00 0.  1.
          4   -1    0    0  501    0  0.00000000000E+00 -0.00000000000E+00 -0.20280824004E+04  0.20280824004E+04  0.00000000000E+00 0. -1.
         24    2    1    2    0    0  0.11243144420E+02  0.22155312607E+03  0.10775841182E+03  0.26061594964E+03  0.84241331426E+02 0.  0.
        254    2    1    2    0    0 -0.11243144420E+02 -0.22155312607E+03 -0.18416755429E+04  0.20616317201E+04  0.89963567511E+03 0.  0.
         23    2    4    4    0    0 -0.11861470369E+03 -0.44646212639E+03 -0.16930035087E+04  0.17571326245E+04  0.88635779608E+02 0.  0.
         23    2    4    4    0    0  0.10737155927E+03  0.22490900032E+03 -0.14867203429E+03  0.30449909564E+03  0.92215049224E+02 0.  0.
          4    1    3    3  502    0  0.34117082724E+02  0.37679022453E+02  0.12835536148E+02  0.52425519119E+02  0.00000000000E+00 0. -1.
         -3    1    3    3    0  502 -0.22873938305E+02  0.18387410361E+03  0.94922875673E+02  0.20819043052E+03  0.00000000000E+00 0.  1.
         11    1    5    5    0    0 -0.33688735607E+02 -0.31089069574E+02 -0.19253621539E+03  0.19791830484E+03  0.00000000000E+00 0.  1.
        -11    1    5    5    0    0 -0.84925968080E+02 -0.41537305681E+03 -0.15004672933E+04  0.15592143196E+04  0.00000000000E+00 0. -1.
          1    1    6    6  503    0  0.13575767802E+02  0.89324081101E+02 -0.95031049061E+02  0.13112586786E+03  0.00000000000E+00 0. -1.
         -1    1    6    6    0  503  0.93795791465E+02  0.13558491922E+03 -0.53640985226E+02  0.17337322778E+03  0.00000000000E+00 0.  1.
<mgrwt>
<rscale>  0 0.15447866E+04</rscale>
<asrwt>0</asrwt>
<pdfrwt beam="1">  1        4 0.31201268E+00 0.15447866E+04</pdfrwt>
<pdfrwt beam="2">  1       -3 0.45256195E-01 0.15447866E+04</pdfrwt>
<totfact> 0.27938400E-01</totfact>
</mgrwt>
</event>
<event>
12    6  0.1402540E-007  0.1796857E+04  0.7818608E-02  0.8707973E-01
         -1   -1    0    0    0  501 -0.00000000000E+00  0.00000000000E+00  0.77680075353E+03  0.77680075353E+03  0.00000000000E+00 0.  1.
          2   -1    0    0  501    0  0.00000000000E+00 -0.00000000000E+00 -0.10391002651E+04  0.10391002651E+04  0.00000000000E+00 0. -1.
         24    2    1    2    0    0  0.58035335292E+03 -0.33228487639E+03 -0.57455000608E+02  0.67601489865E+03  0.80447577784E+02 0.  0.
        254    2    1    2    0    0 -0.58035335292E+03  0.33228487639E+03 -0.20484451098E+03  0.11398861200E+04  0.90008657339E+03 0.  0.
         23    2    4    4    0    0 -0.45601289368E+03  0.47682678542E+03 -0.45921308477E+03  0.80887024948E+03  0.89904842856E+02 0.  0.
         23    2    4    4    0    0 -0.12434045924E+03 -0.14454190903E+03  0.25436857379E+03  0.33101587053E+03  0.92277960228E+02 0.  0.
          2    1    3    3  502    0  0.45347026712E+03 -0.26470113279E+03 -0.77858553304E+02  0.53081439994E+03  0.00000000000E+00 0. -1.
         -1    1    3    3    0  502  0.12688308580E+03 -0.67583743606E+02  0.20403552696E+02  0.14520049871E+03  0.00000000000E+00 0.  1.
         11    1    5    5    0    0 -0.38346544371E+02  0.40667676201E+02 -0.11361750688E+02  0.57038642441E+02  0.00000000000E+00 0. -1.
        -11    1    5    5    0    0 -0.41766634931E+03  0.43615910922E+03 -0.44785133408E+03  0.75183160704E+03  0.00000000000E+00 0.  1.
          2    1    6    6  503    0 -0.12019738621E+02 -0.20031643622E+01 -0.60484390935E+01  0.13604058198E+02  0.00000000000E+00 0. -1.
         -2    1    6    6    0  503 -0.11232072062E+03 -0.14253874467E+03  0.26041701288E+03  0.31741181234E+03  0.00000000000E+00 0.  1.
<mgrwt>
<rscale>  0 0.17968571E+04</rscale>
<asrwt>0</asrwt>
<pdfrwt beam="1">  1        2 0.15986158E+00 0.17968571E+04</pdfrwt>
<pdfrwt beam="2">  1       -1 0.11950781E+00 0.17968571E+04</pdfrwt>
<totfact> 0.16022721E+01</totfact>
</mgrwt>
</event>
<event>
12    6  0.1402540E-007  0.2816795E+04  0.7818608E-02  0.8298073E-01
          2   -1    0    0  501    0  0.00000000000E+00  0.00000000000E+00  0.30424961737E+04  0.30424961737E+04  0.00000000000E+00 0. -1.
         -1   -1    0    0    0  501 -0.00000000000E+00 -0.00000000000E+00 -0.65195942445E+03  0.65195942445E+03  0.00000000000E+00 0.  1.
         24    2    1    2    0    0 -0.42187922219E+03 -0.30232896665E+03  0.25854125749E+04  0.26382132369E+04  0.80162452595E+02 0.  0.
        254    2    1    2    0    0  0.42187922219E+03  0.30232896665E+03 -0.19487582558E+03  0.10562423613E+04  0.89904752724E+03 0.  0.
         23    2    4    4    0    0  0.48374356845E+03  0.15186499535E+03 -0.48751009962E+03  0.70917497539E+03  0.90510947683E+02 0.  0.
         23    2    4    4    0    0 -0.61864346259E+02  0.15046397130E+03  0.29263427404E+03  0.34706738592E+03  0.91402122679E+02 0.  0.
          2    1    3    3  502    0 -0.35408080123E+03 -0.22197938725E+03  0.21549425931E+04  0.21950912604E+04  0.00000000000E+00 0. -1.
         -3    1    3    3    0  502 -0.67798420963E+02 -0.80349579402E+02  0.43046998179E+03  0.44312197646E+03  0.00000000000E+00 0.  1.
         11    1    5    5    0    0  0.54086726407E+02  0.48544497637E+02 -0.79549612093E+02  0.10775009517E+03  0.00000000000E+00 0. -1.
        -11    1    5    5    0    0  0.42965684204E+03  0.10332049771E+03 -0.40796048753E+03  0.60142488022E+03  0.00000000000E+00 0.  1.
          4    1    6    6  503    0  0.13514951193E+02 -0.31323477467E+01  0.36461454101E+02  0.39011577042E+02  0.00000000000E+00 0. -1.
         -4    1    6    6    0  503 -0.75379297452E+02  0.15359631904E+03  0.25617281994E+03  0.30805580888E+03  0.00000000000E+00 0.  1.
<mgrwt>
<rscale>  0 0.28167954E+04</rscale>
<asrwt>0</asrwt>
<pdfrwt beam="1">  1        2 0.46807632E+00 0.28167954E+04</pdfrwt>
<pdfrwt beam="2">  1       -1 0.10030145E+00 0.28167954E+04</pdfrwt>
<totfact> 0.15296995E+00</totfact>
</mgrwt>
</event>
<event>
12    6  0.1402540E-007  0.3545928E+04  0.7818608E-02  0.8102991E-01
         -1   -1    0    0    0  501 -0.00000000000E+00  0.00000000000E+00  0.83570264390E+03  0.83570264390E+03  0.00000000000E+00 0.  1.
          2   -1    0    0  501    0  0.00000000000E+00 -0.00000000000E+00 -0.37613867833E+04  0.37613867833E+04  0.00000000000E+00 0. -1.
         24    2    1    2    0    0  0.71165413861E+02  0.15801179102E+04 -0.20130593516E+04  0.25613533644E+04  0.79284160453E+02 0.  0.
        254    2    1    2    0    0 -0.71165413861E+02 -0.15801179102E+04 -0.91262478785E+03  0.20357360628E+04  0.89972228369E+03 0.  0.
         23    2    4    4    0    0  0.14475223460E+03  0.38596743800E+02 -0.50476904524E+02  0.18661866214E+03  0.99175042805E+02 0.  0.
         23    2    4    4    0    0 -0.21591764846E+03 -0.16187146540E+04 -0.86214788333E+03  0.18491174007E+04  0.95281827872E+02 0.  0.
          4    1    3    3  502    0  0.17410568331E+02  0.99910042854E+03 -0.13135024959E+04  0.16503919537E+04  0.00000000000E+00 0. -1.
         -3    1    3    3    0  502  0.53754845530E+02  0.58101748167E+03 -0.69955685572E+03  0.91096141071E+03  0.00000000000E+00 0.  1.
         11    1    5    5    0    0  0.13603470876E+03  0.65569518086E+02 -0.38480984509E+02  0.15583834528E+03  0.00000000000E+00 0.  1.
        -11    1    5    5    0    0  0.87175258434E+01 -0.26972774286E+02 -0.11995920015E+02  0.30780316868E+02  0.00000000000E+00 0. -1.
          4    1    6    6  503    0 -0.10644533839E+03 -0.66303581734E+03 -0.40366540255E+03  0.78351315392E+03  0.00000000000E+00 0. -1.
         -4    1    6    6    0  503 -0.10947231008E+03 -0.95567883667E+03 -0.45848248078E+03  0.10656042468E+04  0.00000000000E+00 0.  1.
<mgrwt>
<rscale>  0 0.35459277E+04</rscale>
<asrwt>0</asrwt>
<pdfrwt beam="1">  1        2 0.57867488E+00 0.35459277E+04</pdfrwt>
<pdfrwt beam="2">  1       -1 0.12856964E+00 0.35459277E+04</pdfrwt>
<totfact> 0.25396686E-01</totfact>
</mgrwt>
</event>
<event>
12    6  0.1402540E-007  0.2429725E+04  0.7818608E-02  0.8428458E-01
          2   -1    0    0  501    0  0.00000000000E+00  0.00000000000E+00  0.12647846585E+04  0.12647846585E+04  0.00000000000E+00 0. -1.
         -1   -1    0    0    0  501 -0.00000000000E+00 -0.00000000000E+00 -0.11669110052E+04  0.11669110052E+04  0.00000000000E+00 0.  1.
         24    2    1    2    0    0  0.92961822223E+03  0.15346288709E+03  0.49864558076E+03  0.10690972408E+04  0.81120887075E+02 0.  0.
        254    2    1    2    0    0 -0.92961822223E+03 -0.15346288709E+03 -0.40077192748E+03  0.13625984229E+04  0.89906363931E+03 0.  0.
         23    2    4    4    0    0 -0.64571338203E+03 -0.51571650322E+03 -0.24096706746E+03  0.86571501537E+03  0.92130759343E+02 0.  0.
         23    2    4    4    0    0 -0.28390484020E+03  0.36225361613E+03 -0.15980486001E+03  0.49688340757E+03  0.97600649293E+02 0.  0.
          4    1    3    3  502    0  0.42352264610E+03  0.11078586576E+03  0.22726373302E+03  0.49324815677E+03  0.00000000000E+00 0. -1.
         -3    1    3    3    0  502  0.50609557613E+03  0.42677021335E+02  0.27138184775E+03  0.57584908406E+03  0.00000000000E+00 0.  1.
         11    1    5    5    0    0 -0.38518669658E+03 -0.25026129322E+03 -0.12336698369E+03  0.47562476678E+03  0.00000000000E+00 0.  1.
        -11    1    5    5    0    0 -0.26052668545E+03 -0.26545521000E+03 -0.11760008378E+03  0.39009024860E+03  0.00000000000E+00 0. -1.
          1    1    6    6  503    0 -0.28462981830E+03  0.32088358842E+03 -0.14181475027E+03  0.45176524233E+03  0.00000000000E+00 0. -1.
         -1    1    6    6    0  503  0.72497809472E+00  0.41370027713E+02 -0.17990109744E+02  0.45118165242E+02  0.00000000000E+00 0.  1.
<mgrwt>
<rscale>  0 0.24297252E+04</rscale>
<asrwt>0</asrwt>
<pdfrwt beam="1">  1        2 0.19458226E+00 0.24297252E+04</pdfrwt>
<pdfrwt beam="2">  1       -1 0.17952477E+00 0.24297252E+04</pdfrwt>
<totfact> 0.37175060E+00</totfact>
</mgrwt>
</event>
<event>
12    6  0.1402540E-007  0.3035305E+04  0.7818608E-02  0.8233720E-01
          2   -1    0    0  501    0  0.00000000000E+00  0.00000000000E+00  0.33713543510E+04  0.33713543510E+04  0.00000000000E+00 0. -1.
         -1   -1    0    0    0  501 -0.00000000000E+00 -0.00000000000E+00 -0.68318825643E+03  0.68318825643E+03  0.00000000000E+00 0.  1.
         24    2    1    2    0    0 -0.10974812288E+04 -0.79043430406E+03  0.16068291720E+04  0.21017893131E+04  0.79792808434E+02 0.  0.
        254    2    1    2    0    0  0.10974812288E+04  0.79043430406E+03  0.10813369226E+04  0.19527532943E+04  0.90260980027E+03 0.  0.
         23    2    4    4    0    0  0.58771685602E+03  0.85912729525E+03  0.46120284005E+03  0.11419884503E+04  0.88987350464E+02 0.  0.
         23    2    4    4    0    0  0.50976437280E+03 -0.68692991189E+02  0.62013408254E+03  0.81076484404E+03  0.90525737711E+02 0.  0.
          4    1    3    3  502    0 -0.85013746193E+03 -0.57294405417E+03  0.11968593115E+04  0.15759031712E+04  0.00000000000E+00 0. -1.
         -3    1    3    3    0  502 -0.24734376689E+03 -0.21749024989E+03  0.40996986051E+03  0.52588614199E+03  0.00000000000E+00 0.  1.
         11    1    5    5    0    0  0.13426119191E+03  0.14713450723E+03  0.65185510820E+02  0.20958001262E+03  0.00000000000E+00 0. -1.
        -11    1    5    5    0    0  0.45345566411E+03  0.71199278802E+03  0.39601732923E+03  0.93240843763E+03  0.00000000000E+00 0.  1.
          3    1    6    6  503    0  0.35472607824E+03 -0.15081497283E+02  0.46437190951E+03  0.58455052176E+03  0.00000000000E+00 0. -1.
         -3    1    6    6    0  503  0.15503829456E+03 -0.53611493906E+02  0.15576217303E+03  0.22621432228E+03  0.00000000000E+00 0.  1.
<mgrwt>
<rscale>  0 0.30353054E+04</rscale>
<asrwt>0</asrwt>
<pdfrwt beam="1">  1        2 0.51866989E+00 0.30353054E+04</pdfrwt>
<pdfrwt beam="2">  1       -1 0.10510589E+00 0.30353054E+04</pdfrwt>
<totfact> 0.82054611E-01</totfact>
</mgrwt>
</event>
<event>
12    6  0.1402540E-007  0.2755358E+04  0.7818608E-02  0.8317263E-01
         -1   -1    0    0    0  501 -0.00000000000E+00  0.00000000000E+00  0.73624106521E+03  0.73624106521E+03  0.00000000000E+00 0.  1.
          2   -1    0    0  501    0  0.00000000000E+00 -0.00000000000E+00 -0.25779593048E+04  0.25779593048E+04  0.00000000000E+00 0. -1.
         24    2    1    2    0    0 -0.95352010965E+03 -0.22967425226E+03 -0.17138825725E+04  0.19762661309E+04  0.79268444480E+02 0.  0.
        254    2    1    2    0    0  0.95352010965E+03  0.22967425226E+03 -0.12783566712E+03  0.13379342391E+04  0.90098568729E+03 0.  0.
         23    2    4    4    0    0  0.22932728758E+02  0.28935930307E+03  0.17773515768E+03  0.35250513179E+03  0.91735300432E+02 0.  0.
         23    2    4    4    0    0  0.93058738089E+03 -0.59685050809E+02 -0.30557082480E+03  0.98542910731E+03  0.90232022002E+02 0.  0.
          2    1    3    3  502    0 -0.42766757830E+03 -0.11137700655E+03 -0.85018635028E+03  0.95818642514E+03  0.00000000000E+00 0. -1.
         -1    1    3    3    0  502 -0.52585253135E+03 -0.11829724571E+03 -0.86369622219E+03  0.10180797058E+04  0.00000000000E+00 0.  1.
         11    1    5    5    0    0  0.27348968211E+02  0.28534542007E+03  0.14882277563E+03  0.32298327103E+03  0.00000000000E+00 0.  1.
        -11    1    5    5    0    0 -0.44162394533E+01  0.40138829981E+01  0.28912382041E+02  0.29521860763E+02  0.00000000000E+00 0. -1.
          2    1    6    6  503    0  0.23025584010E+02  0.12685062382E+02 -0.59670123420E+01  0.26957254366E+02  0.00000000000E+00 0. -1.
         -2    1    6    6    0  503  0.90756179688E+03 -0.72370113191E+02 -0.29960381245E+03  0.95847185294E+03  0.00000000000E+00 0.  1.
<mgrwt>
<rscale>  0 0.27553581E+04</rscale>
<asrwt>0</asrwt>
<pdfrwt beam="1">  1        2 0.39660912E+00 0.27553581E+04</pdfrwt>
<pdfrwt beam="2">  1       -1 0.11326786E+00 0.27553581E+04</pdfrwt>
<totfact> 0.22151829E+00</totfact>
</mgrwt>
</event>
<event>
12    6  0.1402540E-007  0.2064011E+04  0.7818608E-02  0.8577265E-01
          2   -1    0    0  501    0  0.00000000000E+00  0.00000000000E+00  0.28855638692E+04  0.28855638692E+04  0.00000000000E+00 0. -1.
         -1   -1    0    0    0  501 -0.00000000000E+00 -0.00000000000E+00 -0.36909086269E+03  0.36909086269E+03  0.00000000000E+00 0.  1.
         24    2    1    2    0    0  0.32559030705E+03 -0.30191142090E+03 -0.89939484109E+02  0.46033162459E+03  0.81587619672E+02 0.  0.
        254    2    1    2    0    0 -0.32559030705E+03  0.30191142090E+03  0.26064124907E+04  0.27943231073E+04  0.90426544921E+03 0.  0.
         23    2    4    4    0    0  0.16958320513E+03  0.34800273817E+03  0.17905883969E+04  0.18347879244E+04  0.10186045008E+03 0.  0.
         23    2    4    4    0    0 -0.49517351218E+03 -0.46091317278E+02  0.81582409381E+03  0.95953518295E+03  0.88417184980E+02 0.  0.
          4    1    3    3  502    0  0.16968326256E+03 -0.19830113082E+03 -0.24967222173E+02  0.26218144530E+03  0.00000000000E+00 0. -1.
         -3    1    3    3    0  502  0.15590704449E+03 -0.10361029008E+03 -0.64972261935E+02  0.19815017929E+03  0.00000000000E+00 0.  1.
         11    1    5    5    0    0  0.10103755076E+03  0.19337245425E+03  0.12313860348E+04  0.12505650960E+04  0.00000000000E+00 0.  1.
        -11    1    5    5    0    0  0.68545654365E+02  0.15463028393E+03  0.55920236210E+03  0.58422282839E+03  0.00000000000E+00 0. -1.
          1    1    6    6  503    0 -0.38846041860E+03 -0.89717367917E+01  0.67656907639E+03  0.78021003839E+03  0.00000000000E+00 0. -1.
         -1    1    6    6    0  503 -0.10671309358E+03 -0.37119580486E+02  0.13925501742E+03  0.17932514456E+03  0.00000000000E+00 0.  1.
<mgrwt>
<rscale>  0 0.20640109E+04</rscale>
<asrwt>0</asrwt>
<pdfrwt beam="1">  1        2 0.44393289E+00 0.20640109E+04</pdfrwt>
<pdfrwt beam="2">  1       -1 0.56783212E-01 0.20640109E+04</pdfrwt>
<totfact> 0.67823999E+00</totfact>
</mgrwt>
</event>
<event>
12    6  0.1402540E-007  0.1826929E+04  0.7818608E-02  0.8692109E-01
         -1   -1    0    0    0  501 -0.00000000000E+00  0.00000000000E+00  0.85626685322E+03  0.85626685322E+03  0.00000000000E+00 0.  1.
          2   -1    0    0  501    0  0.00000000000E+00 -0.00000000000E+00 -0.97448268525E+03  0.97448268525E+03  0.00000000000E+00 0. -1.
         24    2    1    2    0    0 -0.31922574302E+03 -0.49600973990E+03 -0.40136593604E+03  0.71761376372E+03  0.77098392881E+02 0.  0.
        254    2    1    2    0    0  0.31922574302E+03  0.49600973990E+03  0.28315010401E+03  0.11131357747E+04  0.90053680354E+03 0.  0.
         23    2    4    4    0    0  0.59586129805E+03  0.36902887535E+03  0.31336181036E+02  0.70785351625E+03  0.94030031739E+02 0.  0.
         23    2    4    4    0    0 -0.27663555503E+03  0.12698086455E+03  0.25181392298E+03  0.40528225849E+03  0.90510148473E+02 0.  0.
          2    1    3    3  502    0 -0.15158520307E+03 -0.20943714395E+03 -0.21896562489E+03  0.33880368348E+03  0.00000000000E+00 0. -1.
         -1    1    3    3    0  502 -0.16764053995E+03 -0.28657259595E+03 -0.18240031115E+03  0.37881008025E+03  0.00000000000E+00 0.  1.
         11    1    5    5    0    0  0.27786770974E+03  0.14122328695E+03 -0.24769097329E+02  0.31267873141E+03  0.00000000000E+00 0.  1.
        -11    1    5    5    0    0  0.31799358830E+03  0.22780558840E+03  0.56105278365E+02  0.39517478484E+03  0.00000000000E+00 0. -1.
          2    1    6    6  503    0 -0.95144650896E+02  0.26185200364E+01  0.54076472814E+02  0.10946974995E+03  0.00000000000E+00 0. -1.
         -2    1    6    6    0  503 -0.18149090413E+03  0.12436234452E+03  0.19773745016E+03  0.29581250855E+03  0.00000000000E+00 0.  1.
<mgrwt>
<rscale>  0 0.18269288E+04</rscale>
<asrwt>0</asrwt>
<pdfrwt beam="1">  1        2 0.14992041E+00 0.18269288E+04</pdfrwt>
<pdfrwt beam="2">  1       -1 0.13173336E+00 0.18269288E+04</pdfrwt>
<totfact> 0.13792419E+01</totfact>
</mgrwt>
</event>
<event>
12    6  0.1402540E-007  0.2614211E+04  0.7818608E-02  0.8363390E-01
         -1   -1    0    0    0  501 -0.00000000000E+00  0.00000000000E+00  0.81473934197E+03  0.81473934197E+03  0.00000000000E+00 0.  1.
          2   -1    0    0  501    0  0.00000000000E+00 -0.00000000000E+00 -0.20970208601E+04  0.20970208601E+04  0.00000000000E+00 0. -1.
         24    2    1    2    0    0 -0.63430129847E+03 -0.95924507586E+03 -0.61160756916E+03  0.13050474552E+04  0.81214462444E+02 0.  0.
        254    2    1    2    0    0  0.63430129847E+03  0.95924507586E+03 -0.67067394896E+03  0.16067127468E+04  0.89957381701E+03 0.  0.
         23    2    4    4    0    0  0.30383249274E+03 -0.49195879946E+02  0.44325477266E+02  0.32407471386E+03  0.91242829723E+02 0.  0.
         23    2    4    4    0    0  0.33046880573E+03  0.10084409558E+04 -0.71499942622E+03  0.12826380330E+04  0.88166610795E+02 0.  0.
          4    1    3    3  502    0 -0.22995382549E+03 -0.41940640619E+03 -0.24669036973E+03  0.53817899804E+03  0.00000000000E+00 0. -1.
         -3    1    3    3    0  502 -0.40434747298E+03 -0.53983866967E+03 -0.36491719943E+03  0.76686845718E+03  0.00000000000E+00 0.  1.
         11    1    5    5    0    0  0.94158629240E+01  0.16451622812E+02  0.66308656693E+01  0.20081900987E+02  0.00000000000E+00 0. -1.
        -11    1    5    5    0    0  0.29441662982E+03 -0.65647502758E+02  0.37694611597E+02  0.30399281287E+03  0.00000000000E+00 0.  1.
          1    1    6    6  503    0  0.48166290435E+02  0.17685826374E+03 -0.16358015045E+03  0.24567723258E+03  0.00000000000E+00 0. -1.
         -1    1    6    6    0  503  0.28230251529E+03  0.83158269207E+03 -0.55141927578E+03  0.10369608004E+04  0.00000000000E+00 0.  1.
<mgrwt>
<rscale>  0 0.26142115E+04</rscale>
<asrwt>0</asrwt>
<pdfrwt beam="1">  1        2 0.32261859E+00 0.26142115E+04</pdfrwt>
<pdfrwt beam="2">  1       -1 0.12534452E+00 0.26142115E+04</pdfrwt>
<totfact> 0.32948066E+00</totfact>
</mgrwt>
</event>
<event>
12    6  0.1402540E-007  0.3461381E+04  0.7818608E-02  0.8123004E-01
          2   -1    0    0  501    0  0.00000000000E+00  0.00000000000E+00  0.31595811927E+04  0.31595811927E+04  0.00000000000E+00 0. -1.
         -1   -1    0    0    0  501 -0.00000000000E+00 -0.00000000000E+00 -0.94800207263E+03  0.94800207263E+03  0.00000000000E+00 0.  1.
         24    2    1    2    0    0 -0.93473741458E+03  0.28325338437E+03 -0.49119464998E+03  0.10961401070E+04  0.79274435227E+02 0.  0.
        254    2    1    2    0    0  0.93473741458E+03 -0.28325338437E+03  0.27027737700E+04  0.30114431583E+04  0.89990962307E+03 0.  0.
         23    2    4    4    0    0  0.19623743134E+03  0.13310640968E+03  0.10127094067E+03  0.27365623148E+03  0.91681425854E+02 0.  0.
         23    2    4    4    0    0  0.73849998324E+03 -0.41635979405E+03  0.26015028293E+04  0.27377869268E+04  0.94459420401E+02 0.  0.
          2    1    3    3  502    0 -0.38471649648E+03  0.13701700504E+03 -0.16753830191E+03  0.44141763098E+03  0.00000000000E+00 0. -1.
         -1    1    3    3    0  502 -0.55002091810E+03  0.14623637933E+03 -0.32365634807E+03  0.65472247604E+03  0.00000000000E+00 0.  1.
         11    1    5    5    0    0  0.16678530397E+03  0.11773299189E+03  0.46160928608E+02  0.20930653676E+03  0.00000000000E+00 0. -1.
        -11    1    5    5    0    0  0.29452127365E+02  0.15373417796E+02  0.55110012064E+02  0.64349694722E+02  0.00000000000E+00 0.  1.
          1    1    6    6  503    0  0.71226749303E+03 -0.37795807941E+03  0.24460660151E+04  0.25755419316E+04  0.00000000000E+00 0. -1.
         -1    1    6    6    0  503  0.26232490205E+02 -0.38401714640E+02  0.15543681427E+03  0.16224499518E+03  0.00000000000E+00 0.  1.
<mgrwt>
<rscale>  0 0.34613809E+04</rscale>
<asrwt>0</asrwt>
<pdfrwt beam="1">  1        2 0.48608941E+00 0.34613809E+04</pdfrwt>
<pdfrwt beam="2">  1       -1 0.14584647E+00 0.34613809E+04</pdfrwt>
<totfact> 0.48463278E-01</totfact>
</mgrwt>
</event>
<event>
12    6  0.1402540E-007  0.2557414E+04  0.7818608E-02  0.8382812E-01
         -1   -1    0    0    0  501 -0.00000000000E+00  0.00000000000E+00  0.13484790090E+04  0.13484790090E+04  0.00000000000E+00 0.  1.
          2   -1    0    0  501    0  0.00000000000E+00 -0.00000000000E+00 -0.12125450654E+04  0.12125450654E+04  0.00000000000E+00 0. -1.
         24    2    1    2    0    0  0.64603488278E+03  0.90533511428E+03 -0.49600535716E+02  0.11161157244E+04  0.79128744215E+02 0.  0.
        254    2    1    2    0    0 -0.64603488278E+03 -0.90533511428E+03  0.18553447928E+03  0.14449083500E+04  0.90351776853E+03 0.  0.
         23    2    4    4    0    0 -0.51930547997E+03 -0.38259691107E+03 -0.29838280012E+03  0.71569774404E+03  0.84453463685E+02 0.  0.
         23    2    4    4    0    0 -0.12672940281E+03 -0.52273820321E+03  0.48391727940E+03  0.72921060599E+03  0.90865856898E+02 0.  0.
          4    1    3    3  502    0  0.40835879466E+03  0.63378971856E+03 -0.43175127738E+02  0.75518898574E+03  0.00000000000E+00 0. -1.
         -3    1    3    3    0  502  0.23767608813E+03  0.27154539572E+03 -0.64254079780E+01  0.36092673865E+03  0.00000000000E+00 0.  1.
         11    1    5    5    0    0 -0.11960931945E+03 -0.76707577975E+02 -0.10428212375E+03  0.17625323586E+03  0.00000000000E+00 0.  1.
        -11    1    5    5    0    0 -0.39969616052E+03 -0.30588933310E+03 -0.19410067637E+03  0.53944450818E+03  0.00000000000E+00 0. -1.
          2    1    6    6  503    0 -0.13392774113E+03 -0.44460906704E+03  0.38666480991E+03  0.60425453044E+03  0.00000000000E+00 0.  1.
         -2    1    6    6    0  503  0.71983383189E+01 -0.78129136169E+02  0.97252469492E+02  0.12495607554E+03  0.00000000000E+00 0. -1.
<mgrwt>
<rscale>  0 0.25574140E+04</rscale>
<asrwt>0</asrwt>
<pdfrwt beam="1">  1        2 0.18654539E+00 0.25574140E+04</pdfrwt>
<pdfrwt beam="2">  1       -1 0.20745831E+00 0.25574140E+04</pdfrwt>
<totfact> 0.25194363E+00</totfact>
</mgrwt>
</event>
<event>
12    6  0.1402540E-007  0.2047427E+04  0.7818608E-02  0.8584762E-01
          4   -1    0    0  501    0  0.00000000000E+00  0.00000000000E+00  0.12741429813E+04  0.12741429813E+04  0.00000000000E+00 0. -1.
         -3   -1    0    0    0  501 -0.00000000000E+00 -0.00000000000E+00 -0.82250554901E+03  0.82250554901E+03  0.00000000000E+00 0.  1.
         24    2    1    2    0    0 -0.67500603462E+03 -0.20141492864E+03  0.62165459044E+03  0.94285370924E+03  0.79483123770E+02 0.  0.
        254    2    1    2    0    0  0.67500603462E+03  0.20141492864E+03 -0.17001715810E+03  0.11537948211E+04  0.89785050812E+03 0.  0.
         23    2    4    4    0    0  0.82874471797E+03  0.33580051363E+03 -0.22096723503E+03  0.92532203276E+03  0.88399959455E+02 0.  0.
         23    2    4    4    0    0 -0.15373868335E+03 -0.13438558499E+03  0.50950076927E+02  0.22847278836E+03  0.88931639304E+02 0.  0.
          4    1    3    3  502    0 -0.30725556765E+03 -0.11931169002E+03  0.25094361943E+03  0.41426315714E+03  0.00000000000E+00 0. -1.
         -3    1    3    3    0  502 -0.36775046696E+03 -0.82103238619E+02  0.37071097101E+03  0.52859055210E+03  0.00000000000E+00 0.  1.
         11    1    5    5    0    0  0.10065976934E+02 -0.33483605431E+01  0.35295010220E+01  0.11180017327E+02  0.00000000000E+00 0. -1.
        -11    1    5    5    0    0  0.81867874103E+03  0.33914887417E+03 -0.22449673605E+03  0.91414201543E+03  0.00000000000E+00 0.  1.
          1    1    6    6  503    0 -0.20919257597E+02  0.12593156085E+02  0.86697323986E+01  0.25910754108E+02  0.00000000000E+00 0. -1.
         -1    1    6    6    0  503 -0.13281942576E+03 -0.14697874108E+03  0.42280344528E+02  0.20256203425E+03  0.00000000000E+00 0.  1.
<mgrwt>
<rscale>  0 0.20474273E+04</rscale>
<asrwt>0</asrwt>
<pdfrwt beam="1">  1        4 0.19602200E+00 0.20474273E+04</pdfrwt>
<pdfrwt beam="2">  1       -3 0.12653932E+00 0.20474273E+04</pdfrwt>
<totfact> 0.14658570E-01</totfact>
</mgrwt>
</event>
<event>
12    6  0.1402540E-007  0.2105683E+04  0.7818608E-02  0.8558744E-01
         -1   -1    0    0    0  501 -0.00000000000E+00  0.00000000000E+00  0.92569949736E+03  0.92569949736E+03  0.00000000000E+00 0.  1.
          2   -1    0    0  501    0  0.00000000000E+00 -0.00000000000E+00 -0.11974459716E+04  0.11974459716E+04  0.00000000000E+00 0. -1.
         24    2    1    2    0    0 -0.14788581936E+03  0.30907072471E+03  0.68226573844E+03  0.76768102098E+03  0.80328598154E+02 0.  0.
        254    2    1    2    0    0  0.14788581936E+03 -0.30907072471E+03 -0.95401221265E+03  0.13554644479E+04  0.89986089999E+03 0.  0.
         23    2    4    4    0    0 -0.31495033614E+03 -0.30080588627E+02 -0.65100755855E+03  0.72926131785E+03  0.88953203324E+02 0.  0.
         23    2    4    4    0    0  0.46283615550E+03 -0.27899013609E+03 -0.30300465410E+03  0.62620313009E+03  0.90916097948E+02 0.  0.
          4    1    3    3  502    0 -0.35337681784E+02  0.21569621180E+02  0.10831704758E+03  0.11595940285E+03  0.00000000000E+00 0. -1.
         -3    1    3    3    0  502 -0.11254813757E+03  0.28750110353E+03  0.57394869086E+03  0.65172161814E+03  0.00000000000E+00 0.  1.
         11    1    5    5    0    0 -0.16832845735E+03 -0.22617501892E+02 -0.25009733861E+03  0.30231556315E+03  0.00000000000E+00 0. -1.
        -11    1    5    5    0    0 -0.14662187879E+03 -0.74630867348E+01 -0.40091021994E+03  0.42694575470E+03  0.00000000000E+00 0.  1.
          4    1    6    6  503    0  0.16740579203E+03 -0.14088185815E+03 -0.89401107710E+02  0.23635768492E+03  0.00000000000E+00 0.  1.
         -4    1    6    6    0  503  0.29543036347E+03 -0.13810827793E+03 -0.21360354639E+03  0.38984544517E+03  0.00000000000E+00 0. -1.
<mgrwt>
<rscale>  0 0.21056829E+04</rscale>
<asrwt>0</asrwt>
<pdfrwt beam="1">  1        2 0.18422246E+00 0.21056829E+04</pdfrwt>
<pdfrwt beam="2">  1       -1 0.14241531E+00 0.21056829E+04</pdfrwt>
<totfact> 0.79994804E+00</totfact>
</mgrwt>
</event>
<event>
12    6  0.1402540E-007  0.1951239E+04  0.7818608E-02  0.8629763E-01
         -1   -1    0    0    0  501 -0.00000000000E+00  0.00000000000E+00  0.55781702682E+03  0.55781702682E+03  0.00000000000E+00 0.  1.
          2   -1    0    0  501    0  0.00000000000E+00 -0.00000000000E+00 -0.17063549831E+04  0.17063549831E+04  0.00000000000E+00 0. -1.
         24    2    1    2    0    0  0.16581730054E+03 -0.50386889006E+03  0.18759030763E+03  0.56836899529E+03  0.80460895803E+02 0.  0.
        254    2    1    2    0    0 -0.16581730054E+03  0.50386889006E+03 -0.13361282639E+04  0.16958030146E+04  0.89951647639E+03 0.  0.
         23    2    4    4    0    0 -0.20157009937E+03  0.32263710576E+03 -0.14206737171E+04  0.14734465178E+04  0.89474150470E+02 0.  0.
         23    2    4    4    0    0  0.35752798835E+02  0.18123178431E+03  0.84545453185E+02  0.22235649677E+03  0.90394998393E+02 0.  0.
          4    1    3    3  502    0  0.10976381026E+03 -0.30383884014E+03  0.73298313438E+02  0.33126843734E+03  0.00000000000E+00 0. -1.
         -3    1    3    3    0  502  0.56053490277E+02 -0.20003004992E+03  0.11429199419E+03  0.23710055795E+03  0.00000000000E+00 0.  1.
         11    1    5    5    0    0 -0.66801790084E+02  0.74642102768E+02 -0.25214135652E+03  0.27131012943E+03  0.00000000000E+00 0. -1.
        -11    1    5    5    0    0 -0.13476830929E+03  0.24799500299E+03 -0.11685323605E+04  0.12021363884E+04  0.00000000000E+00 0.  1.
          4    1    6    6  503    0  0.34049354088E+02  0.26420621579E+02  0.45535776086E+02  0.62697006804E+02  0.00000000000E+00 0. -1.
         -4    1    6    6    0  503  0.17034447477E+01  0.15481116273E+03  0.39009677099E+02  0.15965948997E+03  0.00000000000E+00 0.  1.
<mgrwt>
<rscale>  0 0.19512395E+04</rscale>
<asrwt>0</asrwt>
<pdfrwt beam="1">  1        2 0.26251615E+00 0.19512395E+04</pdfrwt>
<pdfrwt beam="2">  1       -1 0.85818006E-01 0.19512395E+04</pdfrwt>
<totfact> 0.13855797E+01</totfact>
</mgrwt>
</event>
<event>
12    6  0.1402540E-007  0.1485533E+04  0.7818608E-02  0.8894131E-01
         -1   -1    0    0    0  501 -0.00000000000E+00  0.00000000000E+00  0.77638037460E+03  0.77638037460E+03  0.00000000000E+00 0.  1.
          2   -1    0    0  501    0  0.00000000000E+00 -0.00000000000E+00 -0.71060811853E+03  0.71060811853E+03  0.00000000000E+00 0. -1.
         24    2    1    2    0    0 -0.34036129873E+03  0.17211101557E+03 -0.24849307545E+03  0.46210270808E+03  0.79511564650E+02 0.  0.
        254    2    1    2    0    0  0.34036129873E+03 -0.17211101557E+03  0.31426533152E+03  0.10248857851E+04  0.89786422050E+03 0.  0.
         23    2    4    4    0    0  0.43019236347E+03 -0.25885794920E+03 -0.15308912166E+03  0.53278086788E+03  0.91357903643E+02 0.  0.
         23    2    4    4    0    0 -0.89831064737E+02  0.86746933627E+02  0.46735445318E+03  0.49210491717E+03  0.90290718847E+02 0.  0.
          2    1    3    3  502    0 -0.29900644938E+03  0.17739217543E+03 -0.22682542071E+03  0.41511758834E+03  0.00000000000E+00 0. -1.
         -1    1    3    3    0  502 -0.41354849356E+02 -0.52811598579E+01 -0.21667654736E+02  0.46985119735E+02  0.00000000000E+00 0.  1.
         11    1    5    5    0    0  0.17734675578E+03 -0.87092346730E+02 -0.10372643092E+03  0.22315044503E+03  0.00000000000E+00 0. -1.
        -11    1    5    5    0    0  0.25284560769E+03 -0.17176560247E+03 -0.49362690745E+02  0.30963042286E+03  0.00000000000E+00 0.  1.
          3    1    6    6  503    0 -0.36011750309E+02  0.20168945573E+02  0.31204500131E+03  0.31476295107E+03  0.00000000000E+00 0. -1.
         -3    1    6    6    0  503 -0.53819314429E+02  0.66577988054E+02  0.15530945187E+03  0.17734196610E+03  0.00000000000E+00 0.  1.
<mgrwt>
<rscale>  0 0.14855332E+04</rscale>
<asrwt>0</asrwt>
<pdfrwt beam="1">  1        2 0.10932433E+00 0.14855332E+04</pdfrwt>
<pdfrwt beam="2">  1       -1 0.11944314E+00 0.14855332E+04</pdfrwt>
<totfact> 0.27814559E+01</totfact>
</mgrwt>
</event>
<event>
12    6  0.1402540E-007  0.1568086E+04  0.7818608E-02  0.8840398E-01
         -3   -1    0    0    0  501 -0.00000000000E+00  0.00000000000E+00  0.36513105226E+03  0.36513105226E+03  0.00000000000E+00 0.  1.
          2   -1    0    0  501    0  0.00000000000E+00 -0.00000000000E+00 -0.16835685384E+04  0.16835685384E+04  0.00000000000E+00 0. -1.
         24    2    1    2    0    0 -0.38331588646E+03  0.34977573253E+03 -0.36179323605E+03  0.63696669517E+03  0.74552620511E+02 0.  0.
        254    2    1    2    0    0  0.38331588646E+03 -0.34977573253E+03 -0.95664425013E+03  0.14117328955E+04  0.89919264628E+03 0.  0.
         23    2    4    4    0    0  0.33191645495E+03 -0.17878240389E+03  0.45141002581E+02  0.39005129584E+03  0.89278341552E+02 0.  0.
         23    2    4    4    0    0  0.51399431516E+02 -0.17099332864E+03 -0.10017852527E+04  0.10216815997E+04  0.91536760815E+02 0.  0.
          2    1    3    3  502    0 -0.33521571082E+03  0.33101535565E+03 -0.33971004544E+03  0.58081292464E+03  0.00000000000E+00 0. -1.
         -1    1    3    3    0  502 -0.48100175637E+02  0.18760376882E+02 -0.22083190607E+02  0.56153770528E+02  0.00000000000E+00 0.  1.
         11    1    5    5    0    0  0.27345868667E+03 -0.10416232456E+03  0.35499865567E+02  0.29477056099E+03  0.00000000000E+00 0.  1.
        -11    1    5    5    0    0  0.58457768276E+02 -0.74620079325E+02  0.96411370148E+01  0.95280734848E+02  0.00000000000E+00 0. -1.
          3    1    6    6  503    0  0.24098526134E+02  0.31827166845E+01 -0.12797252466E+03  0.13026064530E+03  0.00000000000E+00 0. -1.
         -3    1    6    6    0  503  0.27300905382E+02 -0.17417604533E+03 -0.87381272805E+03  0.89142095438E+03  0.00000000000E+00 0.  1.
<mgrwt>
<rscale>  0 0.15680857E+04</rscale>
<asrwt>0</asrwt>
<pdfrwt beam="1">  1        2 0.25901054E+00 0.15680857E+04</pdfrwt>
<pdfrwt beam="2">  1       -3 0.56174008E-01 0.15680857E+04</pdfrwt>
<totfact> 0.19229137E+01</totfact>
</mgrwt>
</event>
<event>
12    6  0.1402540E-007  0.3159518E+04  0.7818608E-02  0.8199591E-01
          2   -1    0    0  501    0  0.00000000000E+00  0.00000000000E+00  0.23076232718E+04  0.23076232718E+04  0.00000000000E+00 0. -1.
         -1   -1    0    0    0  501 -0.00000000000E+00 -0.00000000000E+00 -0.10814759638E+04  0.10814759638E+04  0.00000000000E+00 0.  1.
         24    2    1    2    0    0  0.12441700261E+04 -0.73294096347E+03  0.71378646090E+03  0.16124402576E+04  0.72876352243E+02 0.  0.
        254    2    1    2    0    0 -0.12441700261E+04  0.73294096347E+03  0.51236084706E+03  0.17766589781E+04  0.89935642384E+03 0.  0.
         23    2    4    4    0    0 -0.19262586109E+03 -0.93503453720E+02 -0.15489303661E+03  0.27906566171E+03  0.89655856112E+02 0.  0.
         23    2    4    4    0    0 -0.10515441650E+04  0.82644441719E+03  0.66725388367E+03  0.14975933164E+04  0.93821588033E+02 0.  0.
          4    1    3    3  502    0  0.11278593933E+04 -0.65994278916E+03  0.62169628825E+03  0.14470997101E+04  0.00000000000E+00 0. -1.
         -3    1    3    3    0  502  0.11631063273E+03 -0.72998174309E+02  0.92090172645E+02  0.16534054747E+03  0.00000000000E+00 0.  1.
         11    1    5    5    0    0 -0.19692743279E+03 -0.94127149636E+02 -0.16124604145E+03  0.27136805259E+03  0.00000000000E+00 0.  1.
        -11    1    5    5    0    0  0.43015716919E+01  0.62369591561E+00  0.63530048432E+01  0.76976091193E+01  0.00000000000E+00 0. -1.
          3    1    6    6  503    0 -0.33792023386E+03  0.29926921992E+03  0.18559711038E+03  0.48805577327E+03  0.00000000000E+00 0. -1.
         -3    1    6    6    0  503 -0.71362393112E+03  0.52717519727E+03  0.48165677329E+03  0.10095375431E+04  0.00000000000E+00 0.  1.
<mgrwt>
<rscale>  0 0.31595184E+04</rscale>
<asrwt>0</asrwt>
<pdfrwt beam="1">  1        2 0.35501896E+00 0.31595184E+04</pdfrwt>
<pdfrwt beam="2">  1       -1 0.16638092E+00 0.31595184E+04</pdfrwt>
<totfact> 0.11281785E+00</totfact>
</mgrwt>
</event>
<event>
12    6  0.1402540E-007  0.2346584E+04  0.7818608E-02  0.8459777E-01
         -1   -1    0    0    0  501 -0.00000000000E+00  0.00000000000E+00  0.42846320244E+03  0.42846320244E+03  0.00000000000E+00 0.  1.
          2   -1    0    0  501    0  0.00000000000E+00 -0.00000000000E+00 -0.32129122739E+04  0.32129122739E+04  0.00000000000E+00 0. -1.
         24    2    1    2    0    0  0.83287831098E+03  0.52512233984E+03 -0.92810974767E+03  0.13554730437E+04  0.80496682044E+02 0.  0.
        254    2    1    2    0    0 -0.83287831098E+03 -0.52512233984E+03 -0.18563393238E+04  0.22859024326E+04  0.89995249527E+03 0.  0.
         23    2    4    4    0    0 -0.39113195636E+03  0.13123563413E+03 -0.24353934435E+03  0.48716845451E+03  0.88400745899E+02 0.  0.
         23    2    4    4    0    0 -0.44174635462E+03 -0.65635797398E+03 -0.16127999794E+04  0.17987339781E+04  0.91512395374E+02 0.  0.
          4    1    3    3  502    0  0.65828213851E+03  0.37507068746E+03 -0.70705715610E+03  0.10363123161E+04  0.00000000000E+00 0. -1.
         -3    1    3    3    0  502  0.17459617247E+03  0.15005165238E+03 -0.22105259157E+03  0.31916072763E+03  0.00000000000E+00 0.  1.
         11    1    5    5    0    0 -0.23669223618E+03  0.40752624792E+02 -0.11180270825E+03  0.26492232196E+03  0.00000000000E+00 0.  1.
        -11    1    5    5    0    0 -0.15443972017E+03  0.90483009343E+02 -0.13173663609E+03  0.22224613256E+03  0.00000000000E+00 0. -1.
          1    1    6    6  503    0 -0.37564965027E+03 -0.49187502538E+03 -0.12342128883E+04  0.13807009647E+04  0.00000000000E+00 0. -1.
         -1    1    6    6    0  503 -0.66096704353E+02 -0.16448294860E+03 -0.37858709113E+03  0.41803301338E+03  0.00000000000E+00 0.  1.
<mgrwt>
<rscale>  0 0.23465845E+04</rscale>
<asrwt>0</asrwt>
<pdfrwt beam="1">  1        2 0.49429419E+00 0.23465845E+04</pdfrwt>
<pdfrwt beam="2">  1       -1 0.65917417E-01 0.23465845E+04</pdfrwt>
<totfact> 0.30516570E+00</totfact>
</mgrwt>
</event>
<event>
12    6  0.1402540E-007  0.1373705E+04  0.7818608E-02  0.8973076E-01
         -1   -1    0    0    0  501 -0.00000000000E+00  0.00000000000E+00  0.60439864173E+03  0.60439864173E+03  0.00000000000E+00 0.  1.
          2   -1    0    0  501    0  0.00000000000E+00 -0.00000000000E+00 -0.78055441903E+03  0.78055441903E+03  0.00000000000E+00 0. -1.
         24    2    1    2    0    0  0.37140881909E+03  0.20124025439E+02  0.49271447195E+02  0.38422500996E+03  0.82774968879E+02 0.  0.
        254    2    1    2    0    0 -0.37140881909E+03 -0.20124025439E+02 -0.22542722450E+03  0.10007280508E+04  0.90127116388E+03 0.  0.
         23    2    4    4    0    0 -0.52529358081E+03  0.12531475933E+03 -0.42666307782E+03  0.69450491013E+03  0.93051347470E+02 0.  0.
         23    2    4    4    0    0  0.15388476172E+03 -0.14543878477E+03  0.20123585333E+03  0.30622314068E+03  0.91890060510E+02 0.  0.
          2    1    3    3  502    0  0.10519335443E+03  0.29449064494E+02 -0.14836231088E+02  0.11024065933E+03  0.00000000000E+00 0. -1.
         -1    1    3    3    0  502  0.26621546466E+03 -0.93250390551E+01  0.64107678284E+02  0.27398435063E+03  0.00000000000E+00 0.  1.
         11    1    5    5    0    0 -0.22662868076E+03  0.21004830710E+02 -0.13752062322E+03  0.26592044612E+03  0.00000000000E+00 0. -1.
        -11    1    5    5    0    0 -0.29866490006E+03  0.10430992862E+03 -0.28914245460E+03  0.42858446401E+03  0.00000000000E+00 0.  1.
          1    1    6    6  503    0  0.73848558839E+02 -0.11453396158E+03  0.16252364543E+03  0.21209802762E+03  0.00000000000E+00 0.  1.
         -1    1    6    6    0  503  0.80036202883E+02 -0.30904823185E+02  0.38712207898E+02  0.94125113059E+02  0.00000000000E+00 0. -1.
<mgrwt>
<rscale>  0 0.13737045E+04</rscale>
<asrwt>0</asrwt>
<pdfrwt beam="1">  1        2 0.12008529E+00 0.13737045E+04</pdfrwt>
<pdfrwt beam="2">  1       -1 0.92984407E-01 0.13737045E+04</pdfrwt>
<totfact> 0.44538519E+01</totfact>
</mgrwt>
</event>
<event>
12    6  0.1402540E-007  0.1234193E+04  0.7818608E-02  0.9083443E-01
          2   -1    0    0  501    0  0.00000000000E+00  0.00000000000E+00  0.10192498548E+04  0.10192498548E+04  0.00000000000E+00 0. -1.
         -1   -1    0    0    0  501 -0.00000000000E+00 -0.00000000000E+00 -0.37361582940E+03  0.37361582940E+03  0.00000000000E+00 0.  1.
         24    2    1    2    0    0 -0.17253782010E+02 -0.13790112094E+03 -0.12168218440E+03  0.20128448869E+03  0.79965487775E+02 0.  0.
        254    2    1    2    0    0  0.17253782010E+02  0.13790112094E+03  0.76731620983E+03  0.11915811956E+04  0.90098677437E+03 0.  0.
         23    2    4    4    0    0 -0.40773484064E+03  0.15596730020E+03  0.54446541195E+03  0.70335141011E+03  0.87676235637E+02 0.  0.
         23    2    4    4    0    0  0.42498862265E+03 -0.18066179254E+02  0.22285079789E+03  0.48822978545E+03  0.88114295502E+02 0.  0.
          4    1    3    3  502    0  0.39101912599E+01 -0.13032952842E+03 -0.77417035561E+02  0.15163928570E+03  0.00000000000E+00 0. -1.
         -3    1    3    3    0  502 -0.21163973270E+02 -0.75715925259E+01 -0.44265148834E+02  0.49645202983E+02  0.00000000000E+00 0.  1.
         11    1    5    5    0    0 -0.23526931304E+03  0.44083923776E+02  0.27952020543E+03  0.36800351525E+03  0.00000000000E+00 0. -1.
        -11    1    5    5    0    0 -0.17246552760E+03  0.11188337642E+03  0.26494520652E+03  0.33534789486E+03  0.00000000000E+00 0.  1.
          1    1    6    6  503    0  0.31633567533E+03  0.23048007520E+02  0.14776951400E+03  0.34990755837E+03  0.00000000000E+00 0. -1.
         -1    1    6    6    0  503  0.10865294731E+03 -0.41114186774E+02  0.75081283883E+02  0.13832222708E+03  0.00000000000E+00 0.  1.
<mgrwt>
<rscale>  0 0.12341927E+04</rscale>
<asrwt>0</asrwt>
<pdfrwt beam="1">  1        2 0.15680767E+00 0.12341927E+04</pdfrwt>
<pdfrwt beam="2">  1       -1 0.57479359E-01 0.12341927E+04</pdfrwt>
<totfact> 0.84279107E+01</totfact>
</mgrwt>
</event>
<event>
12    6  0.1402540E-007  0.1573369E+04  0.7818608E-02  0.8837077E-01
         -1   -1    0    0    0  501 -0.00000000000E+00  0.00000000000E+00  0.65979253120E+03  0.65979253120E+03  0.00000000000E+00 0.  1.
          2   -1    0    0  501    0  0.00000000000E+00 -0.00000000000E+00 -0.93798061559E+03  0.93798061559E+03  0.00000000000E+00 0. -1.
         24    2    1    2    0    0  0.47492659273E+03  0.21839778070E+03 -0.35786844895E+02  0.52999230655E+03  0.79738871594E+02 0.  0.
        254    2    1    2    0    0 -0.47492659273E+03 -0.21839778070E+03 -0.24240123949E+03  0.10677808402E+04  0.89896868844E+03 0.  0.
         23    2    4    4    0    0 -0.21578626906E+03  0.25803188205E+03 -0.36456931195E+03  0.50442000556E+03  0.91567421768E+02 0.  0.
         23    2    4    4    0    0 -0.25914032367E+03 -0.47642966274E+03  0.12216807246E+03  0.56336083468E+03  0.91167215801E+02 0.  0.
          4    1    3    3  502    0  0.10328215241E+03  0.19020642602E+02 -0.25730171545E+02  0.10812506452E+03  0.00000000000E+00 0. -1.
         -3    1    3    3    0  502  0.37164444032E+03  0.19937713809E+03 -0.10056673350E+02  0.42186724202E+03  0.00000000000E+00 0.  1.
         11    1    5    5    0    0 -0.90426125082E+02  0.14404843776E+03 -0.12536925080E+03  0.21129194392E+03  0.00000000000E+00 0.  1.
        -11    1    5    5    0    0 -0.12536014397E+03  0.11398344429E+03 -0.23920006115E+03  0.29312806164E+03  0.00000000000E+00 0. -1.
          1    1    6    6  503    0 -0.23613819879E+03 -0.42177064075E+03  0.13664363040E+03  0.50231783171E+03  0.00000000000E+00 0. -1.
         -1    1    6    6    0  503 -0.23002124883E+02 -0.54659021995E+02 -0.14475557946E+02  0.61043002976E+02  0.00000000000E+00 0.  1.
<mgrwt>
<rscale>  0 0.15733691E+04</rscale>
<asrwt>0</asrwt>
<pdfrwt beam="1">  1        2 0.14430471E+00 0.15733691E+04</pdfrwt>
<pdfrwt beam="2">  1       -1 0.10150654E+00 0.15733691E+04</pdfrwt>
<totfact> 0.27928653E+01</totfact>
</mgrwt>
</event>
<event>
12    6  0.1402540E-007  0.1916858E+04  0.7818608E-02  0.8646510E-01
          2   -1    0    0  501    0  0.00000000000E+00  0.00000000000E+00  0.23935041200E+04  0.23935041200E+04  0.00000000000E+00 0. -1.
         -1   -1    0    0    0  501 -0.00000000000E+00 -0.00000000000E+00 -0.38378286870E+03  0.38378286870E+03  0.00000000000E+00 0.  1.
         24    2    1    2    0    0 -0.48031488156E+03 -0.41526887522E+03  0.22174592184E+03  0.67708549622E+03  0.78248905195E+02 0.  0.
        254    2    1    2    0    0  0.48031488156E+03  0.41526887522E+03  0.17879753294E+04  0.21002014925E+04  0.90046649358E+03 0.  0.
         23    2    4    4    0    0  0.70187350161E+03  0.41522025759E+03  0.11074307250E+04  0.13783944050E+04  0.92379924818E+02 0.  0.
         23    2    4    4    0    0 -0.22155862005E+03  0.48617635220E-01  0.68054460441E+03  0.72180708743E+03  0.93681846591E+02 0.  0.
          2    1    3    3  502    0 -0.23955841833E+03 -0.25798597812E+03  0.12822935619E+03  0.37468355781E+03  0.00000000000E+00 0. -1.
         -1    1    3    3    0  502 -0.24075646323E+03 -0.15728289710E+03  0.93516565642E+02  0.30240193841E+03  0.00000000000E+00 0.  1.
         11    1    5    5    0    0  0.92509540280E+02  0.20832213765E+02  0.12420124475E+03  0.15626242469E+03  0.00000000000E+00 0.  1.
        -11    1    5    5    0    0  0.60936396133E+03  0.39438804382E+03  0.98322948028E+03  0.12221319803E+04  0.00000000000E+00 0. -1.
          4    1    6    6  503    0 -0.22768120754E+03  0.64122533769E+01  0.61791763654E+03  0.65856059311E+03  0.00000000000E+00 0. -1.
         -4    1    6    6    0  503  0.61225874879E+01 -0.63636357417E+01  0.62626967878E+02  0.63246494314E+02  0.00000000000E+00 0.  1.
<mgrwt>
<rscale>  0 0.19168577E+04</rscale>
<asrwt>0</asrwt>
<pdfrwt beam="1">  1        2 0.36823139E+00 0.19168577E+04</pdfrwt>
<pdfrwt beam="2">  1       -1 0.59043520E-01 0.19168577E+04</pdfrwt>
<totfact> 0.12420343E+01</totfact>
</mgrwt>
</event>
<event>
12    6  0.1402540E-007  0.1594160E+04  0.7818608E-02  0.8824144E-01
         -1   -1    0    0    0  501 -0.00000000000E+00  0.00000000000E+00  0.10220861816E+04  0.10220861816E+04  0.00000000000E+00 0.  1.
          2   -1    0    0  501    0  0.00000000000E+00 -0.00000000000E+00 -0.62160787432E+03  0.62160787432E+03  0.00000000000E+00 0. -1.
         24    2    1    2    0    0 -0.25280672525E+03 -0.14532244583E+01 -0.34955529361E+03  0.43838868399E+03  0.77989632407E+02 0.  0.
        254    2    1    2    0    0  0.25280672525E+03  0.14532244583E+01  0.75003360089E+03  0.12053053719E+04  0.90900895757E+03 0.  0.
         23    2    4    4    0    0  0.47861001610E+03 -0.50158832086E+02  0.86902772191E+02  0.49687785098E+03  0.88045732638E+02 0.  0.
         23    2    4    4    0    0 -0.22580329085E+03  0.51612056545E+02  0.66313082870E+03  0.70842752095E+03  0.92065878198E+02 0.  0.
          4    1    3    3  502    0 -0.15520434318E+03 -0.30252093094E+02 -0.25145446959E+03  0.29704027935E+03  0.00000000000E+00 0. -1.
         -3    1    3    3    0  502 -0.97602382067E+02  0.28798868636E+02 -0.98100824025E+02  0.14134840464E+03  0.00000000000E+00 0.  1.
         11    1    5    5    0    0  0.20745961255E+03 -0.48347449718E+02  0.30092135601E+01  0.21303995424E+03  0.00000000000E+00 0. -1.
        -11    1    5    5    0    0  0.27115040354E+03 -0.18113823681E+01  0.83893558630E+02  0.28383789674E+03  0.00000000000E+00 0.  1.
          4    1    6    6  503    0 -0.51154794332E+02  0.40201523642E+02  0.10524058437E+03  0.12372774986E+03  0.00000000000E+00 0. -1.
         -4    1    6    6    0  503 -0.17464849651E+03  0.11410532903E+02  0.55789024433E+03  0.58469977110E+03  0.00000000000E+00 0.  1.
<mgrwt>
<rscale>  0 0.15941604E+04</rscale>
<asrwt>0</asrwt>
<pdfrwt beam="1">  1        2 0.95631981E-01 0.15941604E+04</pdfrwt>
<pdfrwt beam="2">  1       -1 0.15724403E+00 0.15941604E+04</pdfrwt>
<totfact> 0.15969625E+01</totfact>
</mgrwt>
</event>
<event>
12    6  0.1402540E-007  0.1181370E+04  0.7818608E-02  0.9129321E-01
         -1   -1    0    0    0  501 -0.00000000000E+00  0.00000000000E+00  0.81886674774E+03  0.81886674774E+03  0.00000000000E+00 0.  1.
          2   -1    0    0  501    0  0.00000000000E+00 -0.00000000000E+00 -0.42608732671E+03  0.42608732671E+03  0.00000000000E+00 0. -1.
         24    2    1    2    0    0 -0.98374302329E+02 -0.18863754784E+03 -0.26258275160E+02  0.22811823244E+03  0.78017966802E+02 0.  0.
        254    2    1    2    0    0  0.98374302329E+02  0.18863754784E+03  0.41903769619E+03  0.10168358420E+04  0.90172108268E+03 0.  0.
         23    2    4    4    0    0 -0.22185988106E+03  0.30721444171E+03 -0.87255783378E+02  0.39976849363E+03  0.92729481538E+02 0.  0.
         23    2    4    4    0    0  0.32023418339E+03 -0.11857689387E+03  0.50629347956E+03  0.61706734838E+03  0.88479449722E+02 0.  0.
          4    1    3    3  502    0  0.77413183094E+01 -0.37970604960E+02  0.10617112900E+02  0.40179820016E+02  0.00000000000E+00 0. -1.
         -3    1    3    3    0  502 -0.10611562064E+03 -0.15066694288E+03 -0.36875388060E+02  0.18793841243E+03  0.00000000000E+00 0.  1.
         11    1    5    5    0    0 -0.41344957317E+02  0.12065797839E+03 -0.57289534747E+01  0.12767370189E+03  0.00000000000E+00 0. -1.
        -11    1    5    5    0    0 -0.18051492374E+03  0.18655646331E+03 -0.81526829903E+02  0.27209479174E+03  0.00000000000E+00 0.  1.
          1    1    6    6  503    0  0.25657209886E+03 -0.12935352428E+03  0.39596444015E+03  0.48923349643E+03  0.00000000000E+00 0. -1.
         -1    1    6    6    0  503  0.63662084521E+02  0.10776630415E+02  0.11032903941E+03  0.12783385196E+03  0.00000000000E+00 0.  1.
<mgrwt>
<rscale>  0 0.11813700E+04</rscale>
<asrwt>0</asrwt>
<pdfrwt beam="1">  1        2 0.65551897E-01 0.11813700E+04</pdfrwt>
<pdfrwt beam="2">  1       -1 0.12597950E+00 0.11813700E+04</pdfrwt>
<totfact> 0.45941160E+01</totfact>
</mgrwt>
</event>
<event>
12    6  0.1402540E-007  0.1364733E+04  0.7818608E-02  0.8979750E-01
         -1   -1    0    0    0  501 -0.00000000000E+00  0.00000000000E+00  0.69997625640E+03  0.69997625640E+03  0.00000000000E+00 0.  1.
          2   -1    0    0  501    0  0.00000000000E+00 -0.00000000000E+00 -0.66519947056E+03  0.66519947056E+03  0.00000000000E+00 0. -1.
         24    2    1    2    0    0  0.34728599002E+03 -0.11285814040E+03 -0.79563510434E+02  0.38208986351E+03  0.79484544956E+02 0.  0.
        254    2    1    2    0    0 -0.34728599002E+03  0.11285814040E+03  0.11434029628E+03  0.98308586346E+03  0.90556037505E+03 0.  0.
         23    2    4    4    0    0 -0.26167788490E+02  0.27062972191E+03 -0.30915958326E+03  0.42123166609E+03  0.89057672660E+02 0.  0.
         23    2    4    4    0    0 -0.32111820153E+03 -0.15777158152E+03  0.42349987953E+03  0.56185419737E+03  0.91209757427E+02 0.  0.
          4    1    3    3  502    0  0.31834488566E+03 -0.79550681048E+02 -0.80846646420E+02  0.33794667821E+03  0.00000000000E+00 0. -1.
         -3    1    3    3    0  502  0.28941104361E+02 -0.33307459349E+02  0.12831359859E+01  0.44143185294E+02  0.00000000000E+00 0.  1.
         11    1    5    5    0    0 -0.38231989972E+02  0.42421098896E+02 -0.71789714419E+02  0.91733297036E+02  0.00000000000E+00 0. -1.
        -11    1    5    5    0    0  0.12064201481E+02  0.22820862302E+03 -0.23736986884E+03  0.32949836905E+03  0.00000000000E+00 0.  1.
          2    1    6    6  503    0  0.56513260398E+01 -0.77524788205E+01  0.93202469246E+01  0.13375552946E+02  0.00000000000E+00 0. -1.
         -2    1    6    6    0  503 -0.32676952757E+03 -0.15001910269E+03  0.41417963261E+03  0.54847864442E+03  0.00000000000E+00 0.  1.
<mgrwt>
<rscale>  0 0.13647327E+04</rscale>
<asrwt>0</asrwt>
<pdfrwt beam="1">  1        2 0.10233838E+00 0.13647327E+04</pdfrwt>
<pdfrwt beam="2">  1       -1 0.10768866E+00 0.13647327E+04</pdfrwt>
<totfact> 0.39094770E+01</totfact>
</mgrwt>
</event>
<event>
12    6  0.1402540E-007  0.3304058E+04  0.7818608E-02  0.8161864E-01
          2   -1    0    0  501    0  0.00000000000E+00  0.00000000000E+00  0.12488616166E+04  0.12488616166E+04  0.00000000000E+00 0. -1.
         -1   -1    0    0    0  501 -0.00000000000E+00 -0.00000000000E+00 -0.21853495344E+04  0.21853495344E+04  0.00000000000E+00 0.  1.
         24    2    1    2    0    0 -0.11827617235E+04 -0.96514339937E+03 -0.37681541510E+03  0.15761906496E+04  0.10936192641E+03 0.  0.
        254    2    1    2    0    0  0.11827617235E+04  0.96514339937E+03 -0.55967250271E+03  0.18580205014E+04  0.89921065252E+03 0.  0.
         23    2    4    4    0    0  0.61974835396E+03  0.88266304723E+03 -0.66808588911E+03  0.12719271753E+04  0.90983003002E+02 0.  0.
         23    2    4    4    0    0  0.56301336951E+03  0.82480352138E+02  0.10841338640E+03  0.58609332614E+03  0.89246074774E+02 0.  0.
          4    1    3    3  502    0 -0.24948824766E+03 -0.21034394677E+03 -0.35177263822E+02  0.32821700376E+03  0.00000000000E+00 0. -1.
         -3    1    3    3    0  502 -0.93327347580E+03 -0.75479945260E+03 -0.34163815128E+03  0.12479736458E+04  0.00000000000E+00 0.  1.
         11    1    5    5    0    0  0.60879562245E+03  0.85646501734E+03 -0.66458395705E+03  0.12433166418E+04  0.00000000000E+00 0. -1.
        -11    1    5    5    0    0  0.10952731509E+02  0.26198029887E+02 -0.35019320544E+01  0.28610533473E+02  0.00000000000E+00 0.  1.
          3    1    6    6  503    0  0.49814801451E+03  0.54404425981E+02  0.70980609989E+02  0.50611217425E+03  0.00000000000E+00 0. -1.
         -3    1    6    6    0  503  0.64865354997E+02  0.28075926157E+02  0.37432776407E+02  0.79981151892E+02  0.00000000000E+00 0.  1.
<mgrwt>
<rscale>  0 0.33040576E+04</rscale>
<asrwt>0</asrwt>
<pdfrwt beam="1">  1        2 0.19213256E+00 0.33040576E+04</pdfrwt>
<pdfrwt beam="2">  1       -1 0.33620762E+00 0.33040576E+04</pdfrwt>
<totfact> 0.32277914E-01</totfact>
</mgrwt>
</event>
<event>
12    6  0.1402540E-007  0.1541175E+04  0.7818608E-02  0.8857524E-01
          2   -1    0    0  501    0  0.00000000000E+00  0.00000000000E+00  0.12307683764E+04  0.12307683764E+04  0.00000000000E+00 0. -1.
         -1   -1    0    0    0  501 -0.00000000000E+00 -0.00000000000E+00 -0.48246692111E+03  0.48246692111E+03  0.00000000000E+00 0.  1.
         24    2    1    2    0    0  0.10476348674E+03 -0.46652536801E+03  0.71880984864E+02  0.48998758094E+03  0.79370311448E+02 0.  0.
        254    2    1    2    0    0 -0.10476348674E+03  0.46652536801E+03  0.67642047047E+03  0.12232477166E+04  0.90009389299E+03 0.  0.
         23    2    4    4    0    0  0.29286086471E+03  0.48871906917E+03  0.54933715119E+03  0.79675492670E+03  0.91832961863E+02 0.  0.
         23    2    4    4    0    0 -0.39762435145E+03 -0.22193701164E+02  0.12708331928E+03  0.42649278993E+03  0.84547291967E+02 0.  0.
          4    1    3    3  502    0  0.11767267841E+03 -0.40588936813E+03  0.65809163771E+02  0.42769601873E+03  0.00000000000E+00 0. -1.
         -3    1    3    3    0  502 -0.12909191662E+02 -0.60635999879E+02  0.60718210933E+01  0.62291562206E+02  0.00000000000E+00 0.  1.
         11    1    5    5    0    0  0.22344907104E+03  0.29325460844E+03  0.32883084168E+03  0.49402173551E+03  0.00000000000E+00 0.  1.
        -11    1    5    5    0    0  0.69411793674E+02  0.19546446074E+03  0.22050630951E+03  0.30273319119E+03  0.00000000000E+00 0. -1.
          3    1    6    6  503    0 -0.23896887176E+03 -0.32156620679E+02  0.11478407171E+03  0.26704972017E+03  0.00000000000E+00 0. -1.
         -3    1    6    6    0  503 -0.15865547969E+03  0.99629195147E+01  0.12299247564E+02  0.15944306976E+03  0.00000000000E+00 0.  1.
<mgrwt>
<rscale>  0 0.15411749E+04</rscale>
<asrwt>0</asrwt>
<pdfrwt beam="1">  1        2 0.18934898E+00 0.15411749E+04</pdfrwt>
<pdfrwt beam="2">  1       -1 0.74225681E-01 0.15411749E+04</pdfrwt>
<totfact> 0.36438465E+01</totfact>
</mgrwt>
</event>
<event>
12    6  0.1402540E-007  0.3017098E+04  0.7818608E-02  0.8238865E-01
         -1   -1    0    0    0  501 -0.00000000000E+00  0.00000000000E+00  0.61283373250E+03  0.61283373250E+03  0.00000000000E+00 0.  1.
          2   -1    0    0  501    0  0.00000000000E+00 -0.00000000000E+00 -0.37134390765E+04  0.37134390765E+04  0.00000000000E+00 0. -1.
         24    2    1    2    0    0  0.98767961175E+02  0.84342396880E+03 -0.29610052335E+04  0.30814157607E+04  0.80324317075E+02 0.  0.
        254    2    1    2    0    0 -0.98767961175E+02 -0.84342396880E+03 -0.13960011052E+03  0.12448570484E+04  0.89947861491E+03 0.  0.
         23    2    4    4    0    0 -0.88008386397E+02  0.82489467845E+02  0.20235096262E+03  0.25361120364E+03  0.93929453100E+02 0.  0.
         23    2    4    4    0    0 -0.10759574777E+02 -0.92591343664E+03 -0.34195107314E+03  0.99124584471E+03  0.90588783124E+02 0.  0.
          4    1    3    3  502    0  0.16909437976E+02  0.21839928658E+03 -0.89281240139E+03  0.91929220683E+03  0.00000000000E+00 0. -1.
         -3    1    3    3    0  502  0.81858523198E+02  0.62502468222E+03 -0.20681928321E+04  0.21621235538E+04  0.00000000000E+00 0.  1.
         11    1    5    5    0    0 -0.75379697726E+01  0.40334977578E+02  0.13338845367E+03  0.13955719608E+03  0.00000000000E+00 0. -1.
        -11    1    5    5    0    0 -0.80470416625E+02  0.42154490267E+02  0.68962508946E+02  0.11405400756E+03  0.00000000000E+00 0.  1.
          4    1    6    6  503    0 -0.47227096127E+02 -0.50894981778E+03 -0.20717040521E+03  0.55152506055E+03  0.00000000000E+00 0. -1.
         -4    1    6    6    0  503  0.36467521349E+02 -0.41696361887E+03 -0.13478066793E+03  0.43972078416E+03  0.00000000000E+00 0.  1.
<mgrwt>
<rscale>  0 0.30170984E+04</rscale>
<asrwt>0</asrwt>
<pdfrwt beam="1">  1        2 0.57129832E+00 0.30170984E+04</pdfrwt>
<pdfrwt beam="2">  1       -1 0.94282112E-01 0.30170984E+04</pdfrwt>
<totfact> 0.60286145E-01</totfact>
</mgrwt>
</event>
<event>
12    6  0.1402540E-007  0.3008248E+04  0.7818608E-02  0.8241380E-01
         -1   -1    0    0    0  501 -0.00000000000E+00  0.00000000000E+00  0.71431083189E+03  0.71431083189E+03  0.00000000000E+00 0.  1.
          2   -1    0    0  501    0  0.00000000000E+00 -0.00000000000E+00 -0.31672330873E+04  0.31672330873E+04  0.00000000000E+00 0. -1.
         24    2    1    2    0    0 -0.51925889435E+03  0.12368768503E+04 -0.77123025648E+03  0.15497134014E+04  0.85565037490E+02 0.  0.
        254    2    1    2    0    0  0.51925889435E+03 -0.12368768503E+04 -0.16816919990E+04  0.23318305179E+04  0.89991746424E+03 0.  0.
         23    2    4    4    0    0  0.38140389650E+03 -0.13432105442E+04 -0.13378723302E+04  0.19359618618E+04  0.91446486136E+02 0.  0.
         23    2    4    4    0    0  0.13785499785E+03  0.10633369390E+03 -0.34381966874E+03  0.39586865611E+03  0.90494051655E+02 0.  0.
          2    1    3    3  502    0 -0.31772156535E+03  0.67318697995E+03 -0.45919766560E+03  0.87463718144E+03  0.00000000000E+00 0. -1.
         -1    1    3    3    0  502 -0.20153732900E+03  0.56368987038E+03 -0.31203259088E+03  0.67507621993E+03  0.00000000000E+00 0.  1.
         11    1    5    5    0    0  0.37495124975E+03 -0.12604849538E+04 -0.12768357371E+04  0.18329539705E+04  0.00000000000E+00 0.  1.
        -11    1    5    5    0    0  0.64526467567E+01 -0.82725590437E+02 -0.61036593136E+02  0.10300789128E+03  0.00000000000E+00 0. -1.
          3    1    6    6  503    0  0.10895895735E+03  0.31155909323E+02 -0.17018774289E+03  0.20446665475E+03  0.00000000000E+00 0. -1.
         -3    1    6    6    0  503  0.28896040495E+02  0.75177784577E+02 -0.17363192585E+03  0.19140200136E+03  0.00000000000E+00 0.  1.
<mgrwt>
<rscale>  0 0.30082479E+04</rscale>
<asrwt>0</asrwt>
<pdfrwt beam="1">  1        2 0.48726663E+00 0.30082479E+04</pdfrwt>
<pdfrwt beam="2">  1       -1 0.10989397E+00 0.30082479E+04</pdfrwt>
<totfact> 0.10118015E+00</totfact>
</mgrwt>
</event>
<event>
12    6  0.1402540E-007  0.2188010E+04  0.7818608E-02  0.8523435E-01
          2   -1    0    0  501    0  0.00000000000E+00  0.00000000000E+00  0.82114007587E+03  0.82114007587E+03  0.00000000000E+00 0. -1.
         -1   -1    0    0    0  501 -0.00000000000E+00 -0.00000000000E+00 -0.14575428744E+04  0.14575428744E+04  0.00000000000E+00 0.  1.
         24    2    1    2    0    0 -0.58438566757E+03 -0.69175647470E+03 -0.26245167195E+03  0.94622360035E+03  0.80153558892E+02 0.  0.
        254    2    1    2    0    0  0.58438566757E+03  0.69175647470E+03 -0.37395112655E+03  0.13324593499E+04  0.90309182553E+03 0.  0.
         23    2    4    4    0    0  0.52735658392E+03  0.19174429738E+02 -0.37087797447E+03  0.65125227562E+03  0.90035710610E+02 0.  0.
         23    2    4    4    0    0  0.57029083643E+02  0.67258204496E+03 -0.30731520864E+01  0.68120707428E+03  0.91731729541E+02 0.  0.
          2    1    3    3  502    0 -0.36357171284E+03 -0.38411056763E+03 -0.17982954575E+03  0.55862687374E+03  0.00000000000E+00 0. -1.
         -1    1    3    3    0  502 -0.22081395473E+03 -0.30764590707E+03 -0.82622126199E+02  0.38759672661E+03  0.00000000000E+00 0.  1.
         11    1    5    5    0    0  0.35307870453E+03  0.31303373607E+02 -0.20056709957E+03  0.40727341458E+03  0.00000000000E+00 0.  1.
        -11    1    5    5    0    0  0.17427787940E+03 -0.12128943869E+02 -0.17031087489E+03  0.24397886104E+03  0.00000000000E+00 0. -1.
          2    1    6    6  503    0  0.44247739279E+02  0.30307548775E+03 -0.43153181083E+02  0.30931345063E+03  0.00000000000E+00 0. -1.
         -2    1    6    6    0  503  0.12781344363E+02  0.36950655721E+03  0.40080028996E+02  0.37189362365E+03  0.00000000000E+00 0.  1.
<mgrwt>
<rscale>  0 0.21880099E+04</rscale>
<asrwt>0</asrwt>
<pdfrwt beam="1">  1        2 0.12632924E+00 0.21880099E+04</pdfrwt>
<pdfrwt beam="2">  1       -1 0.22423737E+00 0.21880099E+04</pdfrwt>
<totfact> 0.35795380E+00</totfact>
</mgrwt>
</event>
<event>
12    6  0.1402540E-007  0.1970760E+04  0.7818608E-02  0.8620415E-01
         -1   -1    0    0    0  501 -0.00000000000E+00  0.00000000000E+00  0.42274683934E+03  0.42274683934E+03  0.00000000000E+00 0.  1.
          2   -1    0    0  501    0  0.00000000000E+00 -0.00000000000E+00 -0.22968210682E+04  0.22968210682E+04  0.00000000000E+00 0. -1.
         24    2    1    2    0    0 -0.48653577088E+03  0.28628323920E+03 -0.14819739701E+04  0.15877024535E+04  0.76662138928E+02 0.  0.
        254    2    1    2    0    0  0.48653577088E+03 -0.28628323920E+03 -0.39210025880E+03  0.11318654540E+04  0.89927840166E+03 0.  0.
         23    2    4    4    0    0 -0.69696624257E+02 -0.13210647217E+03 -0.50697683178E+03  0.53636810954E+03  0.91408432590E+02 0.  0.
         23    2    4    4    0    0  0.55623239514E+03 -0.15417676703E+03  0.11487657298E+03  0.59549734450E+03  0.90859822748E+02 0.  0.
          4    1    3    3  502    0 -0.44938378765E+03  0.24146905421E+03 -0.13604830067E+04  0.14529855830E+04  0.00000000000E+00 0. -1.
         -3    1    3    3    0  502 -0.37151983226E+02  0.44814184991E+02 -0.12149096336E+03  0.13471687055E+03  0.00000000000E+00 0.  1.
         11    1    5    5    0    0 -0.74550647056E+02 -0.11314790589E+03 -0.30871430869E+03  0.33714206497E+03  0.00000000000E+00 0. -1.
        -11    1    5    5    0    0  0.48540227989E+01 -0.18958566281E+02 -0.19826252309E+03  0.19922604457E+03  0.00000000000E+00 0.  1.
          4    1    6    6  503    0  0.17089144153E+03 -0.11325448323E+02  0.56841493225E+02  0.18045250323E+03  0.00000000000E+00 0. -1.
         -4    1    6    6    0  503  0.38534095361E+03 -0.14285131871E+03  0.58035079753E+02  0.41504484127E+03  0.00000000000E+00 0.  1.
<mgrwt>
<rscale>  0 0.19707601E+04</rscale>
<asrwt>0</asrwt>
<pdfrwt beam="1">  1        2 0.35335709E+00 0.19707601E+04</pdfrwt>
<pdfrwt beam="2">  1       -1 0.65037974E-01 0.19707601E+04</pdfrwt>
<totfact> 0.11570673E+01</totfact>
</mgrwt>
</event>
<event>
12    6  0.1402540E-007  0.2091675E+04  0.7818608E-02  0.8564920E-01
         -1   -1    0    0    0  501 -0.00000000000E+00  0.00000000000E+00  0.18359561495E+04  0.18359561495E+04  0.00000000000E+00 0.  1.
          2   -1    0    0  501    0  0.00000000000E+00 -0.00000000000E+00 -0.59575268604E+03  0.59575268604E+03  0.00000000000E+00 0. -1.
         24    2    1    2    0    0  0.68559538939E+03 -0.50108632515E+03  0.47812900270E+03  0.97860268797E+03  0.89035579802E+02 0.  0.
        254    2    1    2    0    0 -0.68559538939E+03  0.50108632515E+03  0.76207446075E+03  0.14531061476E+04  0.89979522623E+03 0.  0.
         23    2    4    4    0    0 -0.67948388941E+03 -0.40933241701E+02  0.41682369794E+03  0.80349050157E+03  0.92092913452E+02 0.  0.
         23    2    4    4    0    0 -0.61114999822E+01  0.54201956685E+03  0.34525076280E+03  0.64961564599E+03  0.94762001961E+02 0.  0.
          4    1    3    3  502    0  0.24965338678E+03 -0.23118467161E+03  0.16928423356E+03  0.38003988956E+03  0.00000000000E+00 0. -1.
         -3    1    3    3    0  502  0.43594200261E+03 -0.26990165354E+03  0.30884476914E+03  0.59856279841E+03  0.00000000000E+00 0.  1.
         11    1    5    5    0    0 -0.38944071298E+03  0.78705541171E+01  0.19840695831E+03  0.43713994973E+03  0.00000000000E+00 0. -1.
        -11    1    5    5    0    0 -0.29004317643E+03 -0.48803795818E+02  0.21841673964E+03  0.36635055184E+03  0.00000000000E+00 0.  1.
          1    1    6    6  503    0 -0.59383596618E+01  0.19644967769E+02  0.39044446444E+02  0.44109609750E+02  0.00000000000E+00 0. -1.
         -1    1    6    6    0  503 -0.17314032042E+00  0.52237459908E+03  0.30620631636E+03  0.60550603624E+03  0.00000000000E+00 0.  1.
<mgrwt>
<rscale>  0 0.20916747E+04</rscale>
<asrwt>0</asrwt>
<pdfrwt beam="1">  1        2 0.91654260E-01 0.20916747E+04</pdfrwt>
<pdfrwt beam="2">  1       -1 0.28245479E+00 0.20916747E+04</pdfrwt>
<totfact> 0.22607333E+00</totfact>
</mgrwt>
</event>
<event>
12    6  0.1402540E-007  0.2735092E+04  0.7818608E-02  0.8323708E-01
         -1   -1    0    0    0  501 -0.00000000000E+00  0.00000000000E+00  0.13091750784E+04  0.13091750784E+04  0.00000000000E+00 0.  1.
          2   -1    0    0  501    0  0.00000000000E+00 -0.00000000000E+00 -0.14285192316E+04  0.14285192316E+04  0.00000000000E+00 0. -1.
         24    2    1    2    0    0 -0.25785633440E+03 -0.11878357794E+04  0.22198967232E+02  0.12189305729E+04  0.88629675693E+02 0.  0.
        254    2    1    2    0    0  0.25785633440E+03  0.11878357794E+04 -0.14154312042E+03  0.15187637371E+04  0.89953605059E+03 0.  0.
         23    2    4    4    0    0  0.34949025469E+03  0.47876431286E+03  0.30310491083E+03  0.67191816113E+03  0.90789442649E+02 0.  0.
         23    2    4    4    0    0 -0.91633920297E+02  0.70907146652E+03 -0.44464803125E+03  0.84684557599E+03  0.90864943185E+02 0.  0.
          2    1    3    3  502    0 -0.20548783352E+03 -0.96254891464E+03  0.52625272908E+02  0.98564450090E+03  0.00000000000E+00 0. -1.
         -1    1    3    3    0  502 -0.52368500878E+02 -0.22528686474E+03 -0.30426305676E+02  0.23328607199E+03  0.00000000000E+00 0.  1.
         11    1    5    5    0    0  0.98558695954E+02  0.74344037377E+02  0.70667102966E+02  0.14224869730E+03  0.00000000000E+00 0.  1.
        -11    1    5    5    0    0  0.25093155874E+03  0.40442027548E+03  0.23243780787E+03  0.52966946383E+03  0.00000000000E+00 0. -1.
          1    1    6    6  503    0 -0.54228284768E+02  0.29580394272E+03 -0.23663336601E+03  0.38266960855E+03  0.00000000000E+00 0. -1.
         -1    1    6    6    0  503 -0.37405635529E+02  0.41326752379E+03 -0.20801466524E+03  0.46417596744E+03  0.00000000000E+00 0.  1.
<mgrwt>
<rscale>  0 0.27350918E+04</rscale>
<asrwt>0</asrwt>
<pdfrwt beam="1">  1        2 0.21977219E+00 0.27350918E+04</pdfrwt>
<pdfrwt beam="2">  1       -1 0.20141155E+00 0.27350918E+04</pdfrwt>
<totfact> 0.20437332E+00</totfact>
</mgrwt>
</event>
<event>
12    6  0.1402540E-007  0.1665033E+04  0.7818608E-02  0.8781562E-01
         -1   -1    0    0    0  501 -0.00000000000E+00  0.00000000000E+00  0.24854431546E+03  0.24854431546E+03  0.00000000000E+00 0.  1.
          2   -1    0    0  501    0  0.00000000000E+00 -0.00000000000E+00 -0.27885719354E+04  0.27885719354E+04  0.00000000000E+00 0. -1.
         24    2    1    2    0    0 -0.56044007499E+02  0.32996702353E+03 -0.31338009202E+02  0.34564183534E+03  0.80417909239E+02 0.  0.
        254    2    1    2    0    0  0.56044007499E+02 -0.32996702353E+03 -0.25086896107E+04  0.26914744155E+04  0.91569197819E+03 0.  0.
         23    2    4    4    0    0 -0.68774454383E+02 -0.29704524487E+03 -0.19809051825E+03  0.37548236203E+03  0.93708845378E+02 0.  0.
         23    2    4    4    0    0  0.12481846188E+03 -0.32921778664E+02 -0.23105990925E+04  0.23159920534E+04  0.91035892101E+02 0.  0.
          2    1    3    3  502    0 -0.85958776296E+01  0.24198892718E+02 -0.25454739088E+02  0.36158253042E+02  0.00000000000E+00 0. -1.
         -1    1    3    3    0  502 -0.47448129870E+02  0.30576813081E+03 -0.58832701140E+01  0.30948358230E+03  0.00000000000E+00 0.  1.
         11    1    5    5    0    0 -0.11033271065E+02 -0.28014779637E+01  0.58963823637E+01  0.12819854685E+02  0.00000000000E+00 0. -1.
        -11    1    5    5    0    0 -0.57741183319E+02 -0.29424376690E+03 -0.20398690061E+03  0.36266250734E+03  0.00000000000E+00 0.  1.
          1    1    6    6  503    0  0.56525986246E+02 -0.33480162693E+02 -0.17523329068E+04  0.17535640064E+04  0.00000000000E+00 0. -1.
         -1    1    6    6    0  503  0.68292475637E+02  0.55838402920E+00 -0.55826618565E+03  0.56242804701E+03  0.00000000000E+00 0.  1.
<mgrwt>
<rscale>  0 0.16650330E+04</rscale>
<asrwt>0</asrwt>
<pdfrwt beam="1">  1        2 0.42901105E+00 0.16650330E+04</pdfrwt>
<pdfrwt beam="2">  1       -1 0.38237589E-01 0.16650330E+04</pdfrwt>
<totfact> 0.16941511E+01</totfact>
</mgrwt>
</event>
<event>
12    6  0.1402540E-007  0.2009642E+04  0.7818608E-02  0.8602126E-01
         -3   -1    0    0    0  501 -0.00000000000E+00  0.00000000000E+00  0.50248042064E+03  0.50248042064E+03  0.00000000000E+00 0.  1.
          2   -1    0    0  501    0  0.00000000000E+00 -0.00000000000E+00 -0.20093622398E+04  0.20093622398E+04  0.00000000000E+00 0. -1.
         24    2    1    2    0    0  0.39376887078E+03  0.69601342052E+03 -0.56667555576E+03  0.98316753616E+03  0.77515247062E+02 0.  0.
        254    2    1    2    0    0 -0.39376887078E+03 -0.69601342052E+03 -0.94020626338E+03  0.15286751242E+04  0.90187095122E+03 0.  0.
         23    2    4    4    0    0  0.55572252983E+02 -0.73392000943E+03 -0.52175237614E+03  0.90701876202E+03  0.93437878309E+02 0.  0.
         23    2    4    4    0    0 -0.44934112376E+03  0.37906588902E+02 -0.41845388724E+03  0.62165636223E+03  0.89490904406E+02 0.  0.
          4    1    3    3  502    0  0.26979110164E+03  0.40052033221E+03 -0.33431517052E+03  0.58734181553E+03  0.00000000000E+00 0. -1.
         -3    1    3    3    0  502  0.12397776914E+03  0.29549308831E+03 -0.23236038524E+03  0.39582572063E+03  0.00000000000E+00 0.  1.
         11    1    5    5    0    0  0.45636432685E+01 -0.27281881405E+01  0.24865026108E+01  0.58696290892E+01  0.00000000000E+00 0. -1.
        -11    1    5    5    0    0  0.51008609715E+02 -0.73119182128E+03 -0.52423887875E+03  0.90114913293E+03  0.00000000000E+00 0.  1.
          3    1    6    6  503    0 -0.15667908238E+02  0.34701761680E+01 -0.46819729436E+02  0.49493560547E+02  0.00000000000E+00 0. -1.
         -3    1    6    6    0  503 -0.43367321552E+03  0.34436412734E+02 -0.37163415780E+03  0.57216280168E+03  0.00000000000E+00 0.  1.
<mgrwt>
<rscale>  0 0.20096419E+04</rscale>
<asrwt>0</asrwt>
<pdfrwt beam="1">  1        2 0.30913266E+00 0.20096419E+04</pdfrwt>
<pdfrwt beam="2">  1       -3 0.77304679E-01 0.20096419E+04</pdfrwt>
<totfact> 0.61509250E+00</totfact>
</mgrwt>
</event>
<event>
12    6  0.1402540E-007  0.3359782E+04  0.7818608E-02  0.8147848E-01
          2   -1    0    0  501    0  0.00000000000E+00  0.00000000000E+00  0.20949597737E+04  0.20949597737E+04  0.00000000000E+00 0. -1.
         -1   -1    0    0    0  501 -0.00000000000E+00 -0.00000000000E+00 -0.13470589321E+04  0.13470589321E+04  0.00000000000E+00 0.  1.
         24    2    1    2    0    0 -0.47801322288E+03 -0.12913264318E+04 -0.40061369355E+03  0.14361787392E+04  0.78086136116E+02 0.  0.
        254    2    1    2    0    0  0.47801322288E+03  0.12913264318E+04  0.11485145351E+04  0.20058399667E+04  0.89904824108E+03 0.  0.
         23    2    4    4    0    0  0.22062907364E+02  0.11364301190E+04  0.92225048215E+03  0.14665599720E+04  0.91060486457E+02 0.  0.
         23    2    4    4    0    0  0.45595031552E+03  0.15489631275E+03  0.22626405299E+03  0.53927999471E+03  0.87999619872E+02 0.  0.
          4    1    3    3  502    0 -0.28408275960E+03 -0.65529637785E+03 -0.21021353583E+03  0.74451735223E+03  0.00000000000E+00 0. -1.
         -3    1    3    3    0  502 -0.19393046328E+03 -0.63603005394E+03 -0.19040015772E+03  0.69166138692E+03  0.00000000000E+00 0.  1.
         11    1    5    5    0    0  0.75052597567E+01  0.21473362901E+03  0.13040062700E+03  0.25133878307E+03  0.00000000000E+00 0. -1.
        -11    1    5    5    0    0  0.14557647607E+02  0.92169649003E+03  0.79184985515E+03  0.12152211889E+04  0.00000000000E+00 0.  1.
          1    1    6    6  503    0  0.20848451773E+03  0.33041519506E+02  0.12570681415E+03  0.24568219160E+03  0.00000000000E+00 0. -1.
         -1    1    6    6    0  503  0.24746579779E+03  0.12185479324E+03  0.10055723884E+03  0.29359780311E+03  0.00000000000E+00 0.  1.
<mgrwt>
<rscale>  0 0.33597823E+04</rscale>
<asrwt>0</asrwt>
<pdfrwt beam="1">  1        2 0.32230150E+00 0.33597823E+04</pdfrwt>
<pdfrwt beam="2">  1       -1 0.20723984E+00 0.33597823E+04</pdfrwt>
<totfact> 0.75043134E-01</totfact>
</mgrwt>
</event>
<event>
12    6  0.1402540E-007  0.2382368E+04  0.7818608E-02  0.8446134E-01
         -1   -1    0    0    0  501 -0.00000000000E+00  0.00000000000E+00  0.10122334566E+04  0.10122334566E+04  0.00000000000E+00 0.  1.
          2   -1    0    0  501    0  0.00000000000E+00 -0.00000000000E+00 -0.14017706451E+04  0.14017706451E+04  0.00000000000E+00 0. -1.
         24    2    1    2    0    0  0.10540400429E+03 -0.67164572530E+03  0.60131708881E+03  0.91110118154E+03  0.79404894609E+02 0.  0.
        254    2    1    2    0    0 -0.10540400429E+03  0.67164572530E+03 -0.99085427729E+03  0.15029029201E+04  0.90261121417E+03 0.  0.
         23    2    4    4    0    0  0.56575589722E+01  0.35807677974E+03  0.78775981798E+02  0.37895625931E+03  0.95661920328E+02 0.  0.
         23    2    4    4    0    0 -0.11106156326E+03  0.31356894556E+03 -0.10696302591E+04  0.11239466608E+04  0.92125190087E+02 0.  0.
          2    1    3    3  502    0  0.66479389141E+02 -0.39684897076E+03  0.30346164522E+03  0.50398173072E+03  0.00000000000E+00 0. -1.
         -1    1    3    3    0  502  0.38924615146E+02 -0.27479675453E+03  0.29785544359E+03  0.40711945083E+03  0.00000000000E+00 0.  1.
         11    1    5    5    0    0  0.62239765493E+01  0.34168420676E+03  0.96203574811E+02  0.35502389052E+03  0.00000000000E+00 0. -1.
        -11    1    5    5    0    0 -0.56641757707E+00  0.16392572980E+02 -0.17427593013E+02  0.23932368792E+02  0.00000000000E+00 0.  1.
          2    1    6    6  503    0 -0.94089624990E+02  0.30596791619E+03 -0.94048319764E+03  0.99346759802E+03  0.00000000000E+00 0. -1.
         -2    1    6    6    0  503 -0.16971938269E+02  0.76010293665E+01 -0.12914706145E+03  0.13047906275E+03  0.00000000000E+00 0.  1.
<mgrwt>
<rscale>  0 0.23823679E+04</rscale>
<asrwt>0</asrwt>
<pdfrwt beam="1">  1        2 0.21565702E+00 0.23823679E+04</pdfrwt>
<pdfrwt beam="2">  1       -1 0.15572823E+00 0.23823679E+04</pdfrwt>
<totfact> 0.46666093E+00</totfact>
</mgrwt>
</event>
<event>
12    6  0.1402540E-007  0.1472631E+04  0.7818608E-02  0.8902860E-01
          2   -1    0    0  501    0  0.00000000000E+00  0.00000000000E+00  0.86102667223E+03  0.86102667223E+03  0.00000000000E+00 0. -1.
         -1   -1    0    0    0  501 -0.00000000000E+00 -0.00000000000E+00 -0.62966773392E+03  0.62966773392E+03  0.00000000000E+00 0.  1.
         24    2    1    2    0    0 -0.34576455104E+03 -0.29915746765E+03  0.70203041958E+02  0.46929087745E+03  0.79102119759E+02 0.  0.
        254    2    1    2    0    0  0.34576455104E+03  0.29915746765E+03  0.16115589635E+03  0.10214035287E+04  0.89902482184E+03 0.  0.
         23    2    4    4    0    0 -0.22943837658E+03  0.31536591678E+02  0.27613424387E+03  0.37049718588E+03  0.85915765979E+02 0.  0.
         23    2    4    4    0    0  0.57520292763E+03  0.26762087597E+03 -0.11497834753E+03  0.65090634281E+03  0.89329197400E+02 0.  0.
          2    1    3    3  502    0 -0.28481072260E+03 -0.24117579379E+03  0.87681710503E+02  0.38336796107E+03  0.00000000000E+00 0. -1.
         -1    1    3    3    0  502 -0.60953828441E+02 -0.57981673857E+02 -0.17478668545E+02  0.85922916379E+02  0.00000000000E+00 0.  1.
         11    1    5    5    0    0 -0.15029062761E+03 -0.10617199925E+02  0.12977172503E+03  0.19884843047E+03  0.00000000000E+00 0.  1.
        -11    1    5    5    0    0 -0.79147748971E+02  0.42153791603E+02  0.14636251884E+03  0.17164875541E+03  0.00000000000E+00 0. -1.
          2    1    6    6  503    0  0.11262312860E+03  0.93502278917E+02 -0.28823653086E+02  0.14918930335E+03  0.00000000000E+00 0.  1.
         -2    1    6    6    0  503  0.46257979903E+03  0.17411859705E+03 -0.86154694440E+02  0.50171703946E+03  0.00000000000E+00 0. -1.
<mgrwt>
<rscale>  0 0.14726313E+04</rscale>
<asrwt>0</asrwt>
<pdfrwt beam="1">  1        2 0.13246564E+00 0.14726313E+04</pdfrwt>
<pdfrwt beam="2">  1       -1 0.96871959E-01 0.14726313E+04</pdfrwt>
<totfact> 0.35321241E+01</totfact>
</mgrwt>
</event>
<event>
12    6  0.1402540E-007  0.1174208E+04  0.7818608E-02  0.9135736E-01
          2   -1    0    0  501    0  0.00000000000E+00  0.00000000000E+00  0.18482602746E+04  0.18482602746E+04  0.00000000000E+00 0. -1.
         -1   -1    0    0    0  501 -0.00000000000E+00 -0.00000000000E+00 -0.18649504234E+03  0.18649504234E+03  0.00000000000E+00 0.  1.
         24    2    1    2    0    0 -0.21952562209E+03  0.21694790291E+02  0.47061436972E+03  0.52743060938E+03  0.89682774544E+02 0.  0.
        254    2    1    2    0    0  0.21952562209E+03 -0.21694790291E+02  0.11911508625E+04  0.15073247075E+04  0.89695330645E+03 0.  0.
         23    2    4    4    0    0  0.31742151175E+03  0.30407465246E+03  0.27526411044E+03  0.52603582359E+03  0.87895089816E+02 0.  0.
         23    2    4    4    0    0 -0.97895889662E+02 -0.32576944275E+03  0.91588675206E+03  0.98128888392E+03  0.91487682511E+02 0.  0.
          2    1    3    3  502    0 -0.19965029150E+03  0.15197486970E+02  0.46422622305E+03  0.50556620602E+03  0.00000000000E+00 0. -1.
         -1    1    3    3    0  502 -0.19875330591E+02  0.64973033206E+01  0.63881466715E+01  0.21864403363E+02  0.00000000000E+00 0.  1.
         11    1    5    5    0    0  0.30462565112E+03  0.25458182451E+03  0.24808113960E+03  0.46813774096E+03  0.00000000000E+00 0. -1.
        -11    1    5    5    0    0  0.12795860632E+02  0.49492827958E+02  0.27182970836E+02  0.57898082628E+02  0.00000000000E+00 0.  1.
          3    1    6    6  503    0 -0.10249191022E+03 -0.22142381069E+03  0.70346507417E+03  0.74457787113E+03  0.00000000000E+00 0. -1.
         -3    1    6    6    0  503  0.45960205606E+01 -0.10434563206E+03  0.21242167790E+03  0.23671101279E+03  0.00000000000E+00 0.  1.
<mgrwt>
<rscale>  0 0.11742085E+04</rscale>
<asrwt>0</asrwt>
<pdfrwt beam="1">  1        2 0.28434772E+00 0.11742085E+04</pdfrwt>
<pdfrwt beam="2">  1       -1 0.28691546E-01 0.11742085E+04</pdfrwt>
<totfact> 0.10084132E+02</totfact>
</mgrwt>
</event>
<event>
12    6  0.1402540E-007  0.2776397E+04  0.7818608E-02  0.8310634E-01
         -1   -1    0    0    0  501 -0.00000000000E+00  0.00000000000E+00  0.83868101504E+03  0.83868101504E+03  0.00000000000E+00 0.  1.
          2   -1    0    0  501    0  0.00000000000E+00 -0.00000000000E+00 -0.22977695400E+04  0.22977695400E+04  0.00000000000E+00 0. -1.
         24    2    1    2    0    0 -0.11355237109E+04 -0.33618258073E+03 -0.10731453823E+04  0.16001380342E+04  0.79799069596E+02 0.  0.
        254    2    1    2    0    0  0.11355237109E+04  0.33618258073E+03 -0.38594314273E+03  0.15363125209E+04  0.89937268518E+03 0.  0.
         23    2    4    4    0    0  0.12741015564E+04  0.32009306979E+03 -0.38158684345E+03  0.13708266067E+04  0.88106284035E+02 0.  0.
         23    2    4    4    0    0 -0.13857784553E+03  0.16089510946E+02 -0.43562992798E+01  0.16548591415E+03  0.88903986436E+02 0.  0.
          4    1    3    3  502    0 -0.60595016931E+03 -0.21672736288E+03 -0.55873864775E+03  0.85225303402E+03  0.00000000000E+00 0. -1.
         -3    1    3    3    0  502 -0.52957354154E+03 -0.11945521786E+03 -0.51440673451E+03  0.74788500017E+03  0.00000000000E+00 0.  1.
         11    1    5    5    0    0  0.34120620959E+03  0.80448143771E+02 -0.14246220002E+03  0.37840330302E+03  0.00000000000E+00 0. -1.
        -11    1    5    5    0    0  0.93289534679E+03  0.23964492602E+03 -0.23912464343E+03  0.99242330370E+03  0.00000000000E+00 0.  1.
          2    1    6    6  503    0 -0.16602430066E+01  0.10932146837E+01 -0.25985648787E+02  0.26061570714E+02  0.00000000000E+00 0. -1.
         -2    1    6    6    0  503 -0.13691760252E+03  0.14996296263E+02  0.21629349508E+02  0.13942434343E+03  0.00000000000E+00 0.  1.
<mgrwt>
<rscale>  0 0.27763974E+04</rscale>
<asrwt>0</asrwt>
<pdfrwt beam="1">  1        2 0.35350300E+00 0.27763974E+04</pdfrwt>
<pdfrwt beam="2">  1       -1 0.12902785E+00 0.27763974E+04</pdfrwt>
<totfact> 0.23294554E+00</totfact>
</mgrwt>
</event>
<event>
12    6  0.1402540E-007  0.2302726E+04  0.7818608E-02  0.8476847E-01
          2   -1    0    0  501    0  0.00000000000E+00  0.00000000000E+00  0.61111911076E+03  0.61111911076E+03  0.00000000000E+00 0. -1.
         -1   -1    0    0    0  501 -0.00000000000E+00 -0.00000000000E+00 -0.21691959794E+04  0.21691959794E+04  0.00000000000E+00 0.  1.
         24    2    1    2    0    0 -0.44916832725E+03 -0.84158399956E+03 -0.43745624208E+03  0.10523476138E+04  0.77792815217E+02 0.  0.
        254    2    1    2    0    0  0.44916832725E+03  0.84158399956E+03 -0.11206206266E+04  0.17279674763E+04  0.90557451156E+03 0.  0.
         23    2    4    4    0    0  0.59336012336E+03  0.84124670952E+03 -0.63402937839E+03  0.12124078153E+04  0.90372538830E+02 0.  0.
         23    2    4    4    0    0 -0.14419179611E+03  0.33729004398E+00 -0.48659124816E+03  0.51555966096E+03  0.90770773889E+02 0.  0.
          4    1    3    3  502    0 -0.32977279441E+03 -0.67209899211E+03 -0.32099151849E+03  0.81455675436E+03  0.00000000000E+00 0. -1.
         -3    1    3    3    0  502 -0.11939553284E+03 -0.16948500745E+03 -0.11646472358E+03  0.23779085948E+03  0.00000000000E+00 0.  1.
         11    1    5    5    0    0  0.34341435794E+02  0.92871555379E+02 -0.52579376870E+02  0.11211177852E+03  0.00000000000E+00 0.  1.
        -11    1    5    5    0    0  0.55901868757E+03  0.74837515414E+03 -0.58145000152E+03  0.11002960368E+04  0.00000000000E+00 0. -1.
          3    1    6    6  503    0 -0.11785110482E+03 -0.32606578568E+02 -0.29421243269E+03  0.31861109118E+03  0.00000000000E+00 0. -1.
         -3    1    6    6    0  503 -0.26340691293E+02  0.32943868612E+02 -0.19237881547E+03  0.19694856978E+03  0.00000000000E+00 0.  1.
<mgrwt>
<rscale>  0 0.23027263E+04</rscale>
<asrwt>0</asrwt>
<pdfrwt beam="1">  1        2 0.94018325E-01 0.23027263E+04</pdfrwt>
<pdfrwt beam="2">  1       -1 0.33372246E+00 0.23027263E+04</pdfrwt>
<totfact> 0.99905017E-01</totfact>
</mgrwt>
</event>
<event>
12    6  0.1402540E-007  0.4573467E+04  0.7818608E-02  0.7897900E-01
         -1   -1    0    0    0  501 -0.00000000000E+00  0.00000000000E+00  0.12801488450E+04  0.12801488450E+04  0.00000000000E+00 0.  1.
          2   -1    0    0  501    0  0.00000000000E+00 -0.00000000000E+00 -0.40847990669E+04  0.40847990669E+04  0.00000000000E+00 0. -1.
         24    2    1    2    0    0  0.97733566069E+03 -0.18676320498E+04 -0.20771734055E+04  0.29605757606E+04  0.84409779694E+02 0.  0.
        254    2    1    2    0    0 -0.97733566069E+03  0.18676320498E+04 -0.72747681642E+03  0.24043721512E+04  0.89919322491E+03 0.  0.
         23    2    4    4    0    0 -0.10703176668E+04  0.12035532959E+04 -0.55427287824E+03  0.17057813525E+04  0.91384654023E+02 0.  0.
         23    2    4    4    0    0  0.92982006073E+02  0.66407875391E+03 -0.17320393818E+03  0.69859079870E+03  0.91560116777E+02 0.  0.
          4    1    3    3  502    0  0.73223244632E+03 -0.13251136684E+04 -0.14680997281E+04  0.21088877166E+04  0.00000000000E+00 0. -1.
         -3    1    3    3    0  502  0.24510321437E+03 -0.54251838141E+03 -0.60907367734E+03  0.85168804400E+03  0.00000000000E+00 0.  1.
         11    1    5    5    0    0 -0.57219819070E+03  0.70811432305E+03 -0.32798193247E+03  0.96768218542E+03  0.00000000000E+00 0. -1.
        -11    1    5    5    0    0 -0.49811947606E+03  0.49543897288E+03 -0.22629094577E+03  0.73809916706E+03  0.00000000000E+00 0.  1.
          1    1    6    6  503    0  0.31510175895E+02  0.26157548944E+03 -0.22499508055E+02  0.26442552018E+03  0.00000000000E+00 0. -1.
         -1    1    6    6    0  503  0.61471830179E+02  0.40250326447E+03 -0.15070443013E+03  0.43416527852E+03  0.00000000000E+00 0.  1.
<mgrwt>
<rscale>  0 0.45734673E+04</rscale>
<asrwt>0</asrwt>
<pdfrwt beam="1">  1        2 0.62843062E+00 0.45734673E+04</pdfrwt>
<pdfrwt beam="2">  1       -1 0.19694598E+00 0.45734673E+04</pdfrwt>
<totfact> 0.39149247E-02</totfact>
</mgrwt>
</event>
<event>
12    6  0.1402540E-007  0.1651728E+04  0.7818608E-02  0.8789385E-01
         -1   -1    0    0    0  501 -0.00000000000E+00  0.00000000000E+00  0.30932001043E+03  0.30932001043E+03  0.00000000000E+00 0.  1.
          2   -1    0    0  501    0  0.00000000000E+00 -0.00000000000E+00 -0.22050034941E+04  0.22050034941E+04  0.00000000000E+00 0. -1.
         24    2    1    2    0    0 -0.14408819262E+03  0.56030615315E+03 -0.64753433562E+03  0.87195789697E+03  0.79406963005E+02 0.  0.
        254    2    1    2    0    0  0.14408819262E+03 -0.56030615315E+03 -0.12481491480E+04  0.16423656075E+04  0.89709759813E+03 0.  0.
         23    2    4    4    0    0  0.17866178396E+02 -0.70756309008E+03 -0.12374068648E+04  0.14285046932E+04  0.92115051299E+02 0.  0.
         23    2    4    4    0    0  0.12622201422E+03  0.14725693693E+03 -0.10742283210E+02  0.21386091431E+03  0.89467824803E+02 0.  0.
          4    1    3    3  502    0 -0.66969498779E+02  0.26919671616E+03 -0.36986709338E+03  0.46233478403E+03  0.00000000000E+00 0. -1.
         -3    1    3    3    0  502 -0.77118693841E+02  0.29110943699E+03 -0.27766724225E+03  0.40962311295E+03  0.00000000000E+00 0.  1.
         11    1    5    5    0    0  0.67459049768E+01 -0.68587930133E+03 -0.12157869419E+04  0.13959275810E+04  0.00000000000E+00 0. -1.
        -11    1    5    5    0    0  0.11120273419E+02 -0.21683788748E+02 -0.21619922929E+02  0.32577112255E+02  0.00000000000E+00 0.  1.
          2    1    6    6  503    0  0.11293447833E+03  0.66052551802E+02 -0.13523879380E+02  0.13152958339E+03  0.00000000000E+00 0.  1.
         -2    1    6    6    0  503  0.13287535897E+02  0.81204385126E+02  0.27815961695E+01  0.82331330920E+02  0.00000000000E+00 0. -1.
<mgrwt>
<rscale>  0 0.16517284E+04</rscale>
<asrwt>0</asrwt>
<pdfrwt beam="1">  1        2 0.33923131E+00 0.16517284E+04</pdfrwt>
<pdfrwt beam="2">  1       -1 0.47587694E-01 0.16517284E+04</pdfrwt>
<totfact> 0.24620551E+01</totfact>
</mgrwt>
</event>
<event>
12    6  0.1402540E-007  0.2603806E+04  0.7818608E-02  0.8366909E-01
         -1   -1    0    0    0  501 -0.00000000000E+00  0.00000000000E+00  0.70256093285E+03  0.70256093285E+03  0.00000000000E+00 0.  1.
          2   -1    0    0  501    0  0.00000000000E+00 -0.00000000000E+00 -0.24125335962E+04  0.24125335962E+04  0.00000000000E+00 0. -1.
         24    2    1    2    0    0 -0.10761043129E+04  0.29877865723E+03 -0.10550330004E+04  0.15384549016E+04  0.80496423939E+02 0.  0.
        254    2    1    2    0    0  0.10761043129E+04 -0.29877865723E+03 -0.65493966293E+03  0.15766396274E+04  0.89976517730E+03 0.  0.
         23    2    4    4    0    0 -0.62965524953E+02 -0.15227967855E+03 -0.32959252632E+03  0.37964169859E+03  0.91339082923E+02 0.  0.
         23    2    4    4    0    0  0.11390698378E+04 -0.14649897868E+03 -0.32534713661E+03  0.11969979288E+04  0.89505508054E+02 0.  0.
          4    1    3    3  502    0 -0.89696867794E+03  0.26249576178E+03 -0.91785818757E+03  0.13099314817E+04  0.00000000000E+00 0. -1.
         -3    1    3    3    0  502 -0.17913563495E+03  0.36282895444E+02 -0.13717481280E+03  0.22852341998E+03  0.00000000000E+00 0.  1.
         11    1    5    5    0    0  0.37095194581E+01 -0.10348055888E+03 -0.21183898418E+03  0.23579173399E+03  0.00000000000E+00 0. -1.
        -11    1    5    5    0    0 -0.66675044411E+02 -0.48799119672E+02 -0.11775354214E+03  0.14384996459E+03  0.00000000000E+00 0.  1.
          2    1    6    6  503    0  0.71569172005E+03 -0.65412108719E+02 -0.23890285971E+03  0.75734269554E+03  0.00000000000E+00 0. -1.
         -2    1    6    6    0  503  0.42337811780E+03 -0.81086869961E+02 -0.86444276901E+02  0.43965523324E+03  0.00000000000E+00 0.  1.
<mgrwt>
<rscale>  0 0.26038063E+04</rscale>
<asrwt>0</asrwt>
<pdfrwt beam="1">  1        2 0.37115902E+00 0.26038063E+04</pdfrwt>
<pdfrwt beam="2">  1       -1 0.10808630E+00 0.26038063E+04</pdfrwt>
<totfact> 0.31273372E+00</totfact>
</mgrwt>
</event>
<event>
12    6  0.1402540E-007  0.2080556E+04  0.7818608E-02  0.8569857E-01
          2   -1    0    0  501    0  0.00000000000E+00  0.00000000000E+00  0.32570751483E+04  0.32570751483E+04  0.00000000000E+00 0. -1.
         -1   -1    0    0    0  501 -0.00000000000E+00 -0.00000000000E+00 -0.33225476570E+03  0.33225476570E+03  0.00000000000E+00 0.  1.
         24    2    1    2    0    0  0.16828032466E+03 -0.68626997504E+03  0.19879046152E+04  0.21110582640E+04  0.74279798371E+02 0.  0.
        254    2    1    2    0    0 -0.16828032466E+03  0.68626997504E+03  0.93691576736E+03  0.14782716500E+04  0.89899453264E+03 0.  0.
         23    2    4    4    0    0  0.16630616314E+03  0.49730126567E+03  0.94298755032E+03  0.10831935919E+04  0.95480619192E+02 0.  0.
         23    2    4    4    0    0 -0.33458648780E+03  0.18896870936E+03 -0.60717829604E+01  0.39507805813E+03  0.91610668198E+02 0.  0.
          2    1    3    3  502    0  0.37703844800E+02 -0.29913808127E+03  0.88055242248E+03  0.93074042585E+03  0.00000000000E+00 0. -1.
         -3    1    3    3    0  502  0.13057647986E+03 -0.38713189377E+03  0.11073521928E+04  0.11803178382E+04  0.00000000000E+00 0.  1.
         11    1    5    5    0    0  0.21886468481E+02  0.20686731243E+03  0.34335525090E+03  0.40145476803E+03  0.00000000000E+00 0.  1.
        -11    1    5    5    0    0  0.14441969466E+03  0.29043395324E+03  0.59963229943E+03  0.68173882383E+03  0.00000000000E+00 0. -1.
          2    1    6    6  503    0 -0.16718544180E+03  0.14282097558E+03  0.13703747193E+02  0.22031022605E+03  0.00000000000E+00 0. -1.
         -2    1    6    6    0  503 -0.16740104600E+03  0.46147733784E+02 -0.19775530154E+02  0.17476783208E+03  0.00000000000E+00 0.  1.
<mgrwt>
<rscale>  0 0.20805564E+04</rscale>
<asrwt>0</asrwt>
<pdfrwt beam="1">  1        2 0.50108846E+00 0.20805564E+04</pdfrwt>
<pdfrwt beam="2">  1       -1 0.51116120E-01 0.20805564E+04</pdfrwt>
<totfact> 0.48233920E+00</totfact>
</mgrwt>
</event>
<event>
12    6  0.1402540E-007  0.2622633E+04  0.7818608E-02  0.8360554E-01
          2   -1    0    0  501    0  0.00000000000E+00  0.00000000000E+00  0.19149014867E+04  0.19149014867E+04  0.00000000000E+00 0. -1.
         -1   -1    0    0    0  501 -0.00000000000E+00 -0.00000000000E+00 -0.89798422782E+03  0.89798422782E+03  0.00000000000E+00 0.  1.
         24    2    1    2    0    0  0.11468007355E+04 -0.96678233197E+02  0.34417662939E+03  0.12038823801E+04  0.79853773837E+02 0.  0.
        254    2    1    2    0    0 -0.11468007355E+04  0.96678233197E+02  0.67274062948E+03  0.16090033344E+04  0.90100675229E+03 0.  0.
         23    2    4    4    0    0 -0.33211911048E+03 -0.37939547612E+03  0.20476553501E+03  0.55169910041E+03  0.90548010531E+02 0.  0.
         23    2    4    4    0    0 -0.81468162505E+03  0.47607370932E+03  0.46797509447E+03  0.10573042340E+04  0.92407939135E+02 0.  0.
          2    1    3    3  502    0  0.31757496135E+03  0.60551116422E+01  0.10967045365E+03  0.33603292823E+03  0.00000000000E+00 0. -1.
         -1    1    3    3    0  502  0.82922577418E+03 -0.10273334484E+03  0.23450617574E+03  0.86784945191E+03  0.00000000000E+00 0.  1.
         11    1    5    5    0    0 -0.30832172252E+03 -0.36760739885E+03  0.21144460631E+03  0.52431508257E+03  0.00000000000E+00 0. -1.
        -11    1    5    5    0    0 -0.23797387961E+02 -0.11788077269E+02 -0.66790713020E+01  0.27384017838E+02  0.00000000000E+00 0.  1.
          4    1    6    6  503    0 -0.70160483727E+03  0.40003769186E+03  0.43402987903E+03  0.91687591225E+03  0.00000000000E+00 0. -1.
         -4    1    6    6    0  503 -0.11307678778E+03  0.76036017463E+02  0.33945215441E+02  0.14042832171E+03  0.00000000000E+00 0.  1.
<mgrwt>
<rscale>  0 0.26226333E+04</rscale>
<asrwt>0</asrwt>
<pdfrwt beam="1">  1        2 0.29460023E+00 0.26226333E+04</pdfrwt>
<pdfrwt beam="2">  1       -1 0.13815142E+00 0.26226333E+04</pdfrwt>
<totfact> 0.32482622E+00</totfact>
</mgrwt>
</event>
<event>
12    6  0.1402540E-007  0.1716655E+04  0.7818608E-02  0.8751922E-01
         -1   -1    0    0    0  501 -0.00000000000E+00  0.00000000000E+00  0.10656262233E+04  0.10656262233E+04  0.00000000000E+00 0.  1.
          2   -1    0    0  501    0  0.00000000000E+00 -0.00000000000E+00 -0.69135523248E+03  0.69135523248E+03  0.00000000000E+00 0. -1.
         24    2    1    2    0    0  0.51134324318E+03 -0.33808898375E+03  0.55931170525E+02  0.62072616989E+03  0.79978802606E+02 0.  0.
        254    2    1    2    0    0 -0.51134324318E+03  0.33808898375E+03  0.31833982033E+03  0.11362552859E+04  0.90219718482E+03 0.  0.
         23    2    4    4    0    0 -0.47075960149E+02 -0.19796621622E+03  0.35505627386E+03  0.42066828048E+03  0.97417020136E+02 0.  0.
         23    2    4    4    0    0 -0.46426728303E+03  0.53605519997E+03 -0.36716453524E+02  0.71558700544E+03  0.88415931181E+02 0.  0.
          2    1    3    3  502    0  0.38356504912E+03 -0.21851570833E+03  0.18873874084E+02  0.44184554408E+03  0.00000000000E+00 0. -1.
         -1    1    3    3    0  502  0.12777819406E+03 -0.11957327542E+03  0.37057296442E+02  0.17888062581E+03  0.00000000000E+00 0.  1.
         11    1    5    5    0    0  0.12516558723E+02 -0.43758301403E+01  0.16927144644E+01  0.13367027117E+02  0.00000000000E+00 0. -1.
        -11    1    5    5    0    0 -0.59592518872E+02 -0.19359038608E+03  0.35336355939E+03  0.40730125337E+03  0.00000000000E+00 0.  1.
          2    1    6    6  503    0 -0.33255113035E+01  0.11481033566E+02 -0.11845394319E+02  0.16828146771E+02  0.00000000000E+00 0. -1.
         -2    1    6    6    0  503 -0.46094177173E+03  0.52457416641E+03 -0.24871059205E+02  0.69875885867E+03  0.00000000000E+00 0.  1.
<mgrwt>
<rscale>  0 0.17166552E+04</rscale>
<asrwt>0</asrwt>
<pdfrwt beam="1">  1        2 0.10636234E+00 0.17166552E+04</pdfrwt>
<pdfrwt beam="2">  1       -1 0.16394250E+00 0.17166552E+04</pdfrwt>
<totfact> 0.12327428E+01</totfact>
</mgrwt>
</event>
<event>
12    6  0.1402540E-007  0.5068792E+04  0.7818608E-02  0.7817982E-01
          2   -1    0    0  501    0  0.00000000000E+00  0.00000000000E+00  0.37536822671E+04  0.37536822671E+04  0.00000000000E+00 0. -1.
         -1   -1    0    0    0  501 -0.00000000000E+00 -0.00000000000E+00 -0.17111632693E+04  0.17111632693E+04  0.00000000000E+00 0.  1.
         24    2    1    2    0    0  0.21102889761E+04 -0.11868560554E+04  0.14196488405E+04  0.28077155619E+04  0.76921958649E+02 0.  0.
        254    2    1    2    0    0 -0.21102889761E+04  0.11868560554E+04  0.62287015733E+03  0.26571299745E+04  0.90023641883E+03 0.  0.
         23    2    4    4    0    0 -0.20820554420E+04  0.90637672887E+03  0.63805691078E+03  0.23604852506E+04  0.91106304015E+02 0.  0.
         23    2    4    4    0    0 -0.28233534045E+02  0.28047932654E+03 -0.15186753449E+02  0.29664472391E+03  0.91113498910E+02 0.  0.
          2    1    3    3  502    0  0.78145772868E+03 -0.40831058061E+03  0.54604696807E+03  0.10370925722E+04  0.00000000000E+00 0. -1.
         -1    1    3    3    0  502  0.13288312474E+04 -0.77854547480E+03  0.87360187242E+03  0.17706229897E+04  0.00000000000E+00 0.  1.
         11    1    5    5    0    0 -0.11345298958E+04  0.45134320389E+03  0.36704159122E+03  0.12749856085E+04  0.00000000000E+00 0.  1.
        -11    1    5    5    0    0 -0.94752554620E+03  0.45503352498E+03  0.27101531955E+03  0.10854996421E+04  0.00000000000E+00 0. -1.
          3    1    6    6  503    0 -0.37633029622E+02  0.94967550256E+02  0.28041605951E+02  0.10593116720E+03  0.00000000000E+00 0. -1.
         -3    1    6    6    0  503  0.93994955767E+01  0.18551177628E+03 -0.43228359400E+02  0.19071355671E+03  0.00000000000E+00 0.  1.
<mgrwt>
<rscale>  0 0.50687921E+04</rscale>
<asrwt>0</asrwt>
<pdfrwt beam="1">  1        2 0.57748958E+00 0.50687921E+04</pdfrwt>
<pdfrwt beam="2">  1       -1 0.26325589E+00 0.50687921E+04</pdfrwt>
<totfact> 0.24930399E-02</totfact>
</mgrwt>
</event>
<event>
12    6  0.1402540E-007  0.3846674E+04  0.7818608E-02  0.8036212E-01
         -1   -1    0    0    0  501 -0.00000000000E+00  0.00000000000E+00  0.42332626054E+04  0.42332626054E+04  0.00000000000E+00 0.  1.
          2   -1    0    0  501    0  0.00000000000E+00 -0.00000000000E+00 -0.87384712233E+03  0.87384712233E+03  0.00000000000E+00 0. -1.
         24    2    1    2    0    0  0.18985636748E+03  0.11890560646E+04 -0.21723423795E+03  0.12261301436E+04  0.79401825672E+02 0.  0.
        254    2    1    2    0    0 -0.18985636748E+03 -0.11890560646E+04  0.35766497210E+04  0.38809795841E+04  0.90536155244E+03 0.  0.
         23    2    4    4    0    0 -0.31035020755E+03 -0.76619789881E+03  0.31634566153E+04  0.32708940364E+04  0.88958244827E+02 0.  0.
         23    2    4    4    0    0  0.12049384008E+03 -0.42285816576E+03  0.41319310573E+03  0.61008554770E+03  0.90266489008E+02 0.  0.
          2    1    3    3  502    0  0.89979531159E+01  0.54239328830E+02 -0.27355844560E+02  0.61410179806E+02  0.00000000000E+00 0. -1.
         -1    1    3    3    0  502  0.18085841436E+03  0.11348167357E+04 -0.18987839339E+03  0.11647199638E+04  0.00000000000E+00 0.  1.
         11    1    5    5    0    0 -0.14155732999E+03 -0.24800301516E+03  0.10169617503E+04  0.10562931292E+04  0.00000000000E+00 0.  1.
        -11    1    5    5    0    0 -0.16879287756E+03 -0.51819488365E+03  0.21464948650E+04  0.22146009072E+04  0.00000000000E+00 0. -1.
          4    1    6    6  503    0  0.12695003781E+03 -0.42363922606E+03  0.40869896200E+03  0.60218049411E+03  0.00000000000E+00 0. -1.
         -4    1    6    6    0  503 -0.64561977291E+01  0.78106029254E+00  0.44941437346E+01  0.79050535865E+01  0.00000000000E+00 0.  1.
<mgrwt>
<rscale>  0 0.38466735E+04</rscale>
<asrwt>0</asrwt>
<pdfrwt beam="1">  1        2 0.13443802E+00 0.38466735E+04</pdfrwt>
<pdfrwt beam="2">  1       -1 0.65127116E+00 0.38466735E+04</pdfrwt>
<totfact> 0.80509714E-03</totfact>
</mgrwt>
</event>
<event>
12    6  0.1402540E-007  0.1552567E+04  0.7818608E-02  0.8850230E-01
         -1   -1    0    0    0  501 -0.00000000000E+00  0.00000000000E+00  0.22719049655E+04  0.22719049655E+04  0.00000000000E+00 0.  1.
          2   -1    0    0  501    0  0.00000000000E+00 -0.00000000000E+00 -0.26524708389E+03  0.26524708389E+03  0.00000000000E+00 0. -1.
         24    2    1    2    0    0 -0.26637705630E+03 -0.43459296416E+03  0.60103437979E+03  0.79208343228E+03  0.79536516031E+02 0.  0.
        254    2    1    2    0    0  0.26637705630E+03  0.43459296416E+03  0.14056235019E+04  0.17450686172E+04  0.89981068509E+03 0.  0.
         23    2    4    4    0    0  0.59102889061E+03  0.28028242370E+03  0.83086905854E+03  0.10614321237E+04  0.91768045922E+02 0.  0.
         23    2    4    4    0    0 -0.32465183432E+03  0.15431054045E+03  0.57475444331E+03  0.68363649343E+03  0.88349468732E+02 0.  0.
          2    1    3    3  502    0 -0.95753244756E+02 -0.22020885212E+03  0.24805558323E+03  0.34524222628E+03  0.00000000000E+00 0. -1.
         -1    1    3    3    0  502 -0.17062381154E+03 -0.21438411204E+03  0.35297879656E+03  0.44684120600E+03  0.00000000000E+00 0.  1.
         11    1    5    5    0    0  0.48906694380E+03  0.24603237588E+03  0.74078920718E+03  0.92113357065E+03  0.00000000000E+00 0.  1.
        -11    1    5    5    0    0  0.10196194681E+03  0.34250047823E+02  0.90079851364E+02  0.14029855308E+03  0.00000000000E+00 0. -1.
          2    1    6    6  503    0 -0.95131650007E+01  0.29786797757E+02  0.45844958550E+02  0.55493367652E+02  0.00000000000E+00 0. -1.
         -2    1    6    6    0  503 -0.31513866932E+03  0.12452374270E+03  0.52890948476E+03  0.62814312577E+03  0.00000000000E+00 0.  1.
<mgrwt>
<rscale>  0 0.15525671E+04</rscale>
<asrwt>0</asrwt>
<pdfrwt beam="1">  1        2 0.40807245E-01 0.15525671E+04</pdfrwt>
<pdfrwt beam="2">  1       -1 0.34952383E+00 0.15525671E+04</pdfrwt>
<totfact> 0.21827815E+00</totfact>
</mgrwt>
</event>
<event>
12    6  0.1402540E-007  0.3637755E+04  0.7818608E-02  0.8081898E-01
         -1   -1    0    0    0  501 -0.00000000000E+00  0.00000000000E+00  0.16735220283E+04  0.16735220283E+04  0.00000000000E+00 0.  1.
          2   -1    0    0  501    0  0.00000000000E+00 -0.00000000000E+00 -0.19768578209E+04  0.19768578209E+04  0.00000000000E+00 0. -1.
         24    2    1    2    0    0  0.14082966783E+04 -0.56003373615E+03  0.64518975311E+03  0.16491124358E+04  0.79778998444E+02 0.  0.
        254    2    1    2    0    0 -0.14082966783E+04  0.56003373615E+03 -0.94852554566E+03  0.20012674135E+04  0.89912915077E+03 0.  0.
         23    2    4    4    0    0 -0.91452160543E+03  0.12281940127E+03 -0.11453511256E+03  0.93432409425E+03  0.91699776265E+02 0.  0.
         23    2    4    4    0    0 -0.49377507285E+03  0.43721433488E+03 -0.83399043309E+03  0.10669433192E+04  0.88644270734E+02 0.  0.
          2    1    3    3  502    0  0.87069736953E+03 -0.30534624357E+03  0.38303503214E+03  0.99903256885E+03  0.00000000000E+00 0. -1.
         -1    1    3    3    0  502  0.53759930875E+03 -0.25468749258E+03  0.26215472097E+03  0.65007986692E+03  0.00000000000E+00 0.  1.
         11    1    5    5    0    0 -0.69981342401E+03  0.64804506113E+02 -0.60239399055E+02  0.70538446087E+03  0.00000000000E+00 0. -1.
        -11    1    5    5    0    0 -0.21470818142E+03  0.58014895162E+02 -0.54295713509E+02  0.22893963339E+03  0.00000000000E+00 0.  1.
          4    1    6    6  503    0 -0.35200688732E+03  0.25744208630E+03 -0.52904616423E+03  0.68562024503E+03  0.00000000000E+00 0. -1.
         -4    1    6    6    0  503 -0.14176818554E+03  0.17977224858E+03 -0.30494426887E+03  0.38132307418E+03  0.00000000000E+00 0.  1.
<mgrwt>
<rscale>  0 0.36377549E+04</rscale>
<asrwt>0</asrwt>
<pdfrwt beam="1">  1        2 0.30413197E+00 0.36377549E+04</pdfrwt>
<pdfrwt beam="2">  1       -1 0.25746493E+00 0.36377549E+04</pdfrwt>
<totfact> 0.39646818E-01</totfact>
</mgrwt>
</event>
<event>
12    6  0.1402540E-007  0.2356054E+04  0.7818608E-02  0.8456142E-01
          2   -1    0    0  501    0  0.00000000000E+00  0.00000000000E+00  0.35984273442E+04  0.35984273442E+04  0.00000000000E+00 0. -1.
         -1   -1    0    0    0  501 -0.00000000000E+00 -0.00000000000E+00 -0.38565396460E+03  0.38565396460E+03  0.00000000000E+00 0.  1.
         24    2    1    2    0    0 -0.95282321070E+03 -0.18896998729E+03  0.94098530155E+03  0.13547906695E+04  0.80141708880E+02 0.  0.
        254    2    1    2    0    0  0.95282321070E+03  0.18896998729E+03  0.22717880781E+04  0.26292906393E+04  0.89920324029E+03 0.  0.
         23    2    4    4    0    0  0.12608319668E+03  0.42196197516E+03  0.93604193154E+03  0.10385782861E+04  0.92311851006E+02 0.  0.
         23    2    4    4    0    0  0.82674001402E+03 -0.23299198788E+03  0.13357461466E+04  0.15907123532E+04  0.91453296385E+02 0.  0.
          2    1    3    3  502    0 -0.42529359525E+03 -0.92205849254E+02  0.47617282244E+03  0.64507140506E+03  0.00000000000E+00 0. -1.
         -1    1    3    3    0  502 -0.52752961546E+03 -0.96764138033E+02  0.46481247911E+03  0.70971926445E+03  0.00000000000E+00 0.  1.
         11    1    5    5    0    0  0.77279656629E+02  0.36052377494E+03  0.72391874905E+03  0.81240869816E+03  0.00000000000E+00 0. -1.
        -11    1    5    5    0    0  0.48803540055E+02  0.61438200227E+02  0.21212318249E+03  0.22616958796E+03  0.00000000000E+00 0.  1.
          2    1    6    6  503    0  0.76486493896E+03 -0.21248659849E+03  0.12730180443E+04  0.15002479363E+04  0.00000000000E+00 0. -1.
         -2    1    6    6    0  503  0.61875075055E+02 -0.20505389385E+02  0.62728102290E+02  0.90464416893E+02  0.00000000000E+00 0.  1.
<mgrwt>
<rscale>  0 0.23560541E+04</rscale>
<asrwt>0</asrwt>
<pdfrwt beam="1">  1        2 0.55360418E+00 0.23560541E+04</pdfrwt>
<pdfrwt beam="2">  1       -1 0.59331382E-01 0.23560541E+04</pdfrwt>
<totfact> 0.20519775E+00</totfact>
</mgrwt>
</event>
<event>
12    6  0.1402540E-007  0.1285180E+04  0.7818608E-02  0.9041401E-01
         -1   -1    0    0    0  501 -0.00000000000E+00  0.00000000000E+00  0.55582359029E+03  0.55582359029E+03  0.00000000000E+00 0.  1.
          2   -1    0    0  501    0  0.00000000000E+00 -0.00000000000E+00 -0.74290128230E+03  0.74290128230E+03  0.00000000000E+00 0. -1.
         24    2    1    2    0    0  0.80001147876E+02 -0.91455834786E+02  0.24848015456E+03  0.28942431541E+03  0.85203836531E+02 0.  0.
        254    2    1    2    0    0 -0.80001147876E+02  0.91455834786E+02 -0.43555784658E+03  0.10093005572E+04  0.90233731145E+03 0.  0.
         23    2    4    4    0    0 -0.23844640865E+03  0.26373725576E+03 -0.60230377568E+03  0.70557751342E+03  0.93036333628E+02 0.  0.
         23    2    4    4    0    0  0.15844526078E+03 -0.17228142097E+03  0.16674592910E+03  0.30372304376E+03  0.98273565929E+02 0.  0.
          4    1    3    3  502    0  0.39835861871E+02  0.55732485040E+01  0.97912254146E+02  0.10585256965E+03  0.00000000000E+00 0. -1.
         -3    1    3    3    0  502  0.40165286005E+02 -0.97029083290E+02  0.15056790042E+03  0.18357174576E+03  0.00000000000E+00 0.  1.
         11    1    5    5    0    0 -0.91129652711E+02  0.16011025532E+03 -0.35078056142E+03  0.39621573635E+03  0.00000000000E+00 0.  1.
        -11    1    5    5    0    0 -0.14731675594E+03  0.10362700044E+03 -0.25152321426E+03  0.30936177707E+03  0.00000000000E+00 0. -1.
          1    1    6    6  503    0  0.77515459491E+02 -0.37066786147E+02  0.19619373335E+02  0.88133494798E+02  0.00000000000E+00 0. -1.
         -1    1    6    6    0  503  0.80929801288E+02 -0.13521463483E+03  0.14712655577E+03  0.21558954896E+03  0.00000000000E+00 0.  1.
<mgrwt>
<rscale>  0 0.12851802E+04</rscale>
<asrwt>0</asrwt>
<pdfrwt beam="1">  1        2 0.11429251E+00 0.12851802E+04</pdfrwt>
<pdfrwt beam="2">  1       -1 0.85511321E-01 0.12851802E+04</pdfrwt>
<totfact> 0.57513301E+01</totfact>
</mgrwt>
</event>
<event>
12    6  0.1402540E-007  0.2572175E+04  0.7818608E-02  0.8377715E-01
          2   -1    0    0  501    0  0.00000000000E+00  0.00000000000E+00  0.31688766252E+04  0.31688766252E+04  0.00000000000E+00 0. -1.
         -1   -1    0    0    0  501 -0.00000000000E+00 -0.00000000000E+00 -0.52195815395E+03  0.52195815395E+03  0.00000000000E+00 0.  1.
         24    2    1    2    0    0  0.10316219308E+04  0.56200324549E+01  0.51086301612E+03  0.11540582258E+04  0.81203291260E+02 0.  0.
        254    2    1    2    0    0 -0.10316219308E+04 -0.56200324549E+01  0.21360554552E+04  0.25367765534E+04  0.89901445011E+03 0.  0.
         23    2    4    4    0    0 -0.52067780986E+02 -0.25563727347E+02  0.11100088438E+04  0.11152189961E+04  0.90715036490E+02 0.  0.
         23    2    4    4    0    0 -0.97955414977E+03  0.19943694893E+02  0.10260466114E+04  0.14215575573E+04  0.90167382403E+02 0.  0.
          4    1    3    3  502    0  0.36344168248E+03  0.38507758735E+02  0.16592858148E+03  0.40137887114E+03  0.00000000000E+00 0. -1.
         -3    1    3    3    0  502  0.66818024828E+03 -0.32887726280E+02  0.34493443464E+03  0.75267935466E+03  0.00000000000E+00 0.  1.
         11    1    5    5    0    0 -0.23940949742E+02  0.50313931327E+01  0.66078108339E+02  0.70461339705E+02  0.00000000000E+00 0. -1.
        -11    1    5    5    0    0 -0.28126831244E+02 -0.30595120480E+02  0.10439307355E+04  0.10447576564E+04  0.00000000000E+00 0.  1.
          3    1    6    6  503    0 -0.64834628072E+02  0.22285305925E+02  0.59248524064E+02  0.90612093349E+02  0.00000000000E+00 0. -1.
         -3    1    6    6    0  503 -0.91471952170E+03 -0.23416110327E+01  0.96679808730E+03  0.13309454640E+04  0.00000000000E+00 0.  1.
<mgrwt>
<rscale>  0 0.25721750E+04</rscale>
<asrwt>0</asrwt>
<pdfrwt beam="1">  1        2 0.48751947E+00 0.25721750E+04</pdfrwt>
<pdfrwt beam="2">  1       -1 0.80301256E-01 0.25721750E+04</pdfrwt>
<totfact> 0.21199379E+00</totfact>
</mgrwt>
</event>
<event>
12    6  0.1402540E-007  0.1294295E+04  0.7818608E-02  0.9034102E-01
          2   -1    0    0  501    0  0.00000000000E+00  0.00000000000E+00  0.70740619561E+03  0.70740619561E+03  0.00000000000E+00 0. -1.
         -1   -1    0    0    0  501 -0.00000000000E+00 -0.00000000000E+00 -0.59202157890E+03  0.59202157890E+03  0.00000000000E+00 0.  1.
         24    2    1    2    0    0 -0.18682251642E+03  0.25883560806E+03 -0.34704703614E+02  0.33118033887E+03  0.81101638453E+02 0.  0.
        254    2    1    2    0    0  0.18682251642E+03 -0.25883560806E+03  0.15008932032E+03  0.96824743564E+03  0.90170824989E+03 0.  0.
         23    2    4    4    0    0  0.47318969964E+03  0.93596966571E+02  0.11349983428E+03  0.50376022462E+03  0.90682233795E+02 0.  0.
         23    2    4    4    0    0 -0.28636718323E+03 -0.35243257463E+03  0.36589486039E+02  0.46448721102E+03  0.90524557050E+02 0.  0.
          2    1    3    3  502    0 -0.94512582402E+02  0.19387002096E+03 -0.33694526865E+02  0.21829689507E+03  0.00000000000E+00 0. -1.
         -1    1    3    3    0  502 -0.92309934016E+02  0.64965587097E+02 -0.10101767489E+01  0.11288344379E+03  0.00000000000E+00 0.  1.
         11    1    5    5    0    0  0.51784741513E+02 -0.17885432907E+02  0.16194084932E+02  0.57129646863E+02  0.00000000000E+00 0.  1.
        -11    1    5    5    0    0  0.42140495813E+03  0.11148239948E+03  0.97305749352E+02  0.44663057776E+03  0.00000000000E+00 0. -1.
          4    1    6    6  503    0  0.44040942595E+01  0.96220152229E+00  0.33949388771E+01  0.56433578652E+01  0.00000000000E+00 0.  1.
         -4    1    6    6    0  503 -0.29077127749E+03 -0.35339477615E+03  0.33194547162E+02  0.45884385316E+03  0.00000000000E+00 0. -1.
<mgrwt>
<rscale>  0 0.12942948E+04</rscale>
<asrwt>0</asrwt>
<pdfrwt beam="1">  1        2 0.10883172E+00 0.12942948E+04</pdfrwt>
<pdfrwt beam="2">  1       -1 0.91080244E-01 0.12942948E+04</pdfrwt>
<totfact> 0.53294883E+01</totfact>
</mgrwt>
</event>
<event>
12    6  0.1402540E-007  0.2377254E+04  0.7818608E-02  0.8448069E-01
          2   -1    0    0  501    0  0.00000000000E+00  0.00000000000E+00  0.19112104441E+04  0.19112104441E+04  0.00000000000E+00 0. -1.
         -1   -1    0    0    0  501 -0.00000000000E+00 -0.00000000000E+00 -0.73923501241E+03  0.73923501241E+03  0.00000000000E+00 0.  1.
         24    2    1    2    0    0  0.10079748623E+04  0.37985416274E+02  0.64425866598E+03  0.11995104809E+04  0.79372224923E+02 0.  0.
        254    2    1    2    0    0 -0.10079748623E+04 -0.37985416274E+02  0.52771676568E+03  0.14509349756E+04  0.89959496653E+03 0.  0.
         23    2    4    4    0    0 -0.16471191626E+03  0.36229266834E+03  0.22259035258E+03  0.46477918557E+03  0.89929046370E+02 0.  0.
         23    2    4    4    0    0 -0.84326294606E+03 -0.40027808461E+03  0.30512641309E+03  0.98615579006E+03  0.89923151033E+02 0.  0.
          2    1    3    3  502    0  0.39794815109E+03  0.33861413182E+02  0.29544553184E+03  0.49678706559E+03  0.00000000000E+00 0. -1.
         -1    1    3    3    0  502  0.61002671123E+03  0.41240030918E+01  0.34881313415E+03  0.70272341527E+03  0.00000000000E+00 0.  1.
         11    1    5    5    0    0 -0.63365581650E+02  0.53498493384E+02  0.41526855221E+02  0.92745703064E+02  0.00000000000E+00 0. -1.
        -11    1    5    5    0    0 -0.10134633461E+03  0.30879417496E+03  0.18106349736E+03  0.37203348250E+03  0.00000000000E+00 0.  1.
          4    1    6    6  503    0 -0.14793544365E+03 -0.90164978397E+02  0.25662705163E+02  0.17513764089E+03  0.00000000000E+00 0. -1.
         -4    1    6    6    0  503 -0.69532750240E+03 -0.31011310622E+03  0.27946370793E+03  0.81101814918E+03  0.00000000000E+00 0.  1.
<mgrwt>
<rscale>  0 0.23772536E+04</rscale>
<asrwt>0</asrwt>
<pdfrwt beam="1">  1        2 0.29403237E+00 0.23772536E+04</pdfrwt>
<pdfrwt beam="2">  1       -1 0.11372846E+00 0.23772536E+04</pdfrwt>
<totfact> 0.54105698E+00</totfact>
</mgrwt>
</event>
<event>
12    6  0.1402540E-007  0.1391748E+04  0.7818608E-02  0.8959814E-01
         -1   -1    0    0    0  501 -0.00000000000E+00  0.00000000000E+00  0.18969564518E+03  0.18969564518E+03  0.00000000000E+00 0.  1.
          2   -1    0    0  501    0  0.00000000000E+00 -0.00000000000E+00 -0.25527237371E+04  0.25527237371E+04  0.00000000000E+00 0. -1.
         24    2    1    2    0    0 -0.30952142293E+03 -0.34209861052E+02 -0.19836679510E+03  0.37761906105E+03  0.79201919326E+02 0.  0.
        254    2    1    2    0    0  0.30952142293E+03  0.34209861052E+02 -0.21646612968E+04  0.23648003212E+04  0.89974896693E+03 0.  0.
         23    2    4    4    0    0  0.19417753621E+03  0.44475469013E+03 -0.14082337273E+04  0.14916131741E+04  0.79221084719E+02 0.  0.
         23    2    4    4    0    0  0.11534388672E+03 -0.41054482908E+03 -0.75642756945E+03  0.87318714714E+03  0.91770677331E+02 0.  0.
          2    1    3    3  502    0 -0.17709204925E+02  0.17784526726E+01 -0.39720903025E+02  0.43526187177E+02  0.00000000000E+00 0. -1.
         -1    1    3    3    0  502 -0.29181221800E+03 -0.35988313725E+02 -0.15864589208E+03  0.33409287387E+03  0.00000000000E+00 0.  1.
         11    1    5    5    0    0  0.89200092738E+02  0.12673158079E+03 -0.50745376642E+03  0.53059106209E+03  0.00000000000E+00 0.  1.
        -11    1    5    5    0    0  0.10497744347E+03  0.31802310934E+03 -0.90077996093E+03  0.96102211198E+03  0.00000000000E+00 0. -1.
          3    1    6    6  503    0  0.38095342230E+02 -0.33176056441E+02 -0.10165881294E+03  0.11351836886E+03  0.00000000000E+00 0. -1.
         -3    1    6    6    0  503  0.77248544485E+02 -0.37736877264E+03 -0.65476875651E+03  0.75966877828E+03  0.00000000000E+00 0.  1.
<mgrwt>
<rscale>  0 0.13917479E+04</rscale>
<asrwt>0</asrwt>
<pdfrwt beam="1">  1        2 0.39272669E+00 0.13917479E+04</pdfrwt>
<pdfrwt beam="2">  1       -1 0.29183948E-01 0.13917479E+04</pdfrwt>
<totfact> 0.38694052E+01</totfact>
</mgrwt>
</event>
<event>
12    6  0.1402540E-007  0.2521229E+04  0.7818608E-02  0.8395461E-01
         -1   -1    0    0    0  501 -0.00000000000E+00  0.00000000000E+00  0.11443034763E+04  0.11443034763E+04  0.00000000000E+00 0.  1.
          2   -1    0    0  501    0  0.00000000000E+00 -0.00000000000E+00 -0.13887478718E+04  0.13887478718E+04  0.00000000000E+00 0. -1.
         24    2    1    2    0    0  0.71919976680E+03  0.80583301648E+03  0.93247192026E+02  0.10873590781E+04  0.83902151291E+02 0.  0.
        254    2    1    2    0    0 -0.71919976680E+03 -0.80583301648E+03 -0.33769158750E+03  0.14456922700E+04  0.89965291984E+03 0.  0.
         23    2    4    4    0    0 -0.43037146800E+03 -0.75848086725E+03 -0.58328878842E+03  0.10530221881E+04  0.90094902592E+02 0.  0.
         23    2    4    4    0    0 -0.28882829880E+03 -0.47352149231E+02  0.24559720092E+03  0.39267008188E+03  0.90596886692E+02 0.  0.
          4    1    3    3  502    0  0.18016132066E+03  0.25584383045E+03  0.39362059337E+02  0.31537840566E+03  0.00000000000E+00 0. -1.
         -3    1    3    3    0  502  0.53903844614E+03  0.54998918602E+03  0.53885132689E+02  0.77198067248E+03  0.00000000000E+00 0.  1.
         11    1    5    5    0    0 -0.24829893950E+03 -0.46155955518E+03 -0.29877245523E+03  0.60328647120E+03  0.00000000000E+00 0.  1.
        -11    1    5    5    0    0 -0.18207252850E+03 -0.29692131207E+03 -0.28451633319E+03  0.44973571689E+03  0.00000000000E+00 0. -1.
          3    1    6    6  503    0 -0.22464781449E+03 -0.72951924661E+02  0.20340994985E+03  0.31171177643E+03  0.00000000000E+00 0. -1.
         -3    1    6    6    0  503 -0.64180484308E+02  0.25599775430E+02  0.42187251070E+02  0.80958305447E+02  0.00000000000E+00 0.  1.
<mgrwt>
<rscale>  0 0.25212291E+04</rscale>
<asrwt>0</asrwt>
<pdfrwt beam="1">  1        2 0.21365352E+00 0.25212291E+04</pdfrwt>
<pdfrwt beam="2">  1       -1 0.17604669E+00 0.25212291E+04</pdfrwt>
<totfact> 0.33111791E+00</totfact>
</mgrwt>
</event>
<event>
12    6  0.1402540E-007  0.2111008E+04  0.7818608E-02  0.8556410E-01
         -1   -1    0    0    0  501 -0.00000000000E+00  0.00000000000E+00  0.94065722112E+03  0.94065722112E+03  0.00000000000E+00 0.  1.
          2   -1    0    0  501    0  0.00000000000E+00 -0.00000000000E+00 -0.11843731048E+04  0.11843731048E+04  0.00000000000E+00 0. -1.
         24    2    1    2    0    0  0.46099591793E+03 -0.70992155778E+03  0.58582917095E+02  0.85228971150E+03  0.80373749523E+02 0.  0.
        254    2    1    2    0    0 -0.46099591793E+03  0.70992155778E+03 -0.30229880076E+03  0.12727406144E+04  0.90109835872E+03 0.  0.
         23    2    4    4    0    0 -0.88751201036E+02  0.90585679820E+02 -0.49549115906E+03  0.51912690743E+03  0.88874722154E+02 0.  0.
         23    2    4    4    0    0 -0.37224471689E+03  0.61933587796E+03  0.19319235829E+03  0.75361370699E+03  0.92017786751E+02 0.  0.
          2    1    3    3  502    0  0.16325320876E+03 -0.26938323605E+03 -0.15837596294E+02  0.31538828052E+03  0.00000000000E+00 0. -1.
         -1    1    3    3    0  502  0.29774270917E+03 -0.44053832173E+03  0.74420513388E+02  0.53690143098E+03  0.00000000000E+00 0.  1.
         11    1    5    5    0    0 -0.68788777588E+02  0.16556870469E+02 -0.31811933568E+03  0.32589252464E+03  0.00000000000E+00 0.  1.
        -11    1    5    5    0    0 -0.19962423448E+02  0.74028809350E+02 -0.17737182337E+03  0.19323438279E+03  0.00000000000E+00 0. -1.
          3    1    6    6  503    0 -0.17361829526E+03  0.34948309227E+03  0.13864806787E+03  0.41413165896E+03  0.00000000000E+00 0. -1.
         -3    1    6    6    0  503 -0.19862642163E+03  0.26985278569E+03  0.54544290425E+02  0.33948204803E+03  0.00000000000E+00 0.  1.
<mgrwt>
<rscale>  0 0.21110084E+04</rscale>
<asrwt>0</asrwt>
<pdfrwt beam="1">  1        2 0.18221125E+00 0.21110084E+04</pdfrwt>
<pdfrwt beam="2">  1       -1 0.14471650E+00 0.21110084E+04</pdfrwt>
<totfact> 0.78035806E+00</totfact>
</mgrwt>
</event>
<event>
12    6  0.1402540E-007  0.1464218E+04  0.7818608E-02  0.8908603E-01
         -1   -1    0    0    0  501 -0.00000000000E+00  0.00000000000E+00  0.25320416076E+03  0.25320416076E+03  0.00000000000E+00 0.  1.
          2   -1    0    0  501    0  0.00000000000E+00 -0.00000000000E+00 -0.21168028274E+04  0.21168028274E+04  0.00000000000E+00 0. -1.
         24    2    1    2    0    0 -0.26511926715E+03  0.22625304378E+03 -0.11972011659E+03  0.37680524719E+03  0.78553309006E+02 0.  0.
        254    2    1    2    0    0  0.26511926715E+03 -0.22625304378E+03 -0.17438785500E+04  0.19932017410E+04  0.90014560892E+03 0.  0.
         23    2    4    4    0    0  0.30261742867E+03  0.28591501351E+03 -0.97442579355E+03  0.10634865513E+04  0.90406386129E+02 0.  0.
         23    2    4    4    0    0 -0.37498161521E+02 -0.51216805729E+03 -0.76945275648E+03  0.92971518962E+03  0.92685264898E+02 0.  0.
          4    1    3    3  502    0 -0.64611177676E+01 -0.29031949149E+01 -0.13561030242E+02  0.15299546553E+02  0.00000000000E+00 0. -1.
         -3    1    3    3    0  502 -0.25865814938E+03  0.22915623870E+03 -0.10615908635E+03  0.36150570063E+03  0.00000000000E+00 0.  1.
         11    1    5    5    0    0  0.84109929146E+02  0.38079235718E+02 -0.16233579129E+03  0.18675496648E+03  0.00000000000E+00 0.  1.
        -11    1    5    5    0    0  0.21850749953E+03  0.24783577779E+03 -0.81209000227E+03  0.87673158486E+03  0.00000000000E+00 0. -1.
          4    1    6    6  503    0 -0.16428320049E+02 -0.50967329563E+02 -0.41695986938E+02  0.67868355727E+02  0.00000000000E+00 0.  1.
         -4    1    6    6    0  503 -0.21069841471E+02 -0.46120072772E+03 -0.72775676954E+03  0.86184683389E+03  0.00000000000E+00 0. -1.
<mgrwt>
<rscale>  0 0.14642176E+04</rscale>
<asrwt>0</asrwt>
<pdfrwt beam="1">  1        2 0.32566198E+00 0.14642176E+04</pdfrwt>
<pdfrwt beam="2">  1       -1 0.38954485E-01 0.14642176E+04</pdfrwt>
<totfact> 0.40599978E+01</totfact>
</mgrwt>
</event>
<event>
12    6  0.1402540E-007  0.4072203E+04  0.7818608E-02  0.7990137E-01
          2   -1    0    0  501    0  0.00000000000E+00  0.00000000000E+00  0.16987123779E+04  0.16987123779E+04  0.00000000000E+00 0. -1.
         -1   -1    0    0    0  501 -0.00000000000E+00 -0.00000000000E+00 -0.24405011624E+04  0.24405011624E+04  0.00000000000E+00 0.  1.
         24    2    1    2    0    0  0.53583705200E+03  0.89855324118E+03  0.13019994706E+04  0.16720929907E+04  0.78568915301E+02 0.  0.
        254    2    1    2    0    0 -0.53583705200E+03 -0.89855324118E+03 -0.20437882551E+04  0.24671205496E+04  0.90282562068E+03 0.  0.
         23    2    4    4    0    0  0.10984812431E+03 -0.35676423794E+02 -0.82336661849E+03  0.83651461651E+03  0.92112418093E+02 0.  0.
         23    2    4    4    0    0 -0.64568517632E+03 -0.86287681739E+03 -0.12204216366E+04  0.16306059331E+04  0.89336382327E+02 0.  0.
          4    1    3    3  502    0  0.18038826658E+03  0.25996576749E+03  0.34845686252E+03  0.47068493924E+03  0.00000000000E+00 0. -1.
         -3    1    3    3    0  502  0.35544878542E+03  0.63858747369E+03  0.95354260807E+03  0.12014080514E+04  0.00000000000E+00 0.  1.
         11    1    5    5    0    0  0.86366218780E+02 -0.61446033892E+02 -0.71119058525E+03  0.71904574777E+03  0.00000000000E+00 0.  1.
        -11    1    5    5    0    0  0.23481905535E+02  0.25769610097E+02 -0.11217603324E+03  0.11746886875E+03  0.00000000000E+00 0. -1.
          3    1    6    6  503    0 -0.49811117924E+03 -0.71082440408E+03 -0.10144711278E+04  0.13351171295E+04  0.00000000000E+00 0. -1.
         -3    1    6    6    0  503 -0.14757399707E+03 -0.15205241331E+03 -0.20595050877E+03  0.29548880362E+03  0.00000000000E+00 0.  1.
<mgrwt>
<rscale>  0 0.40722031E+04</rscale>
<asrwt>0</asrwt>
<pdfrwt beam="1">  1        2 0.26134037E+00 0.40722031E+04</pdfrwt>
<pdfrwt beam="2">  1       -1 0.37546172E+00 0.40722031E+04</pdfrwt>
<totfact> 0.92051844E-02</totfact>
</mgrwt>
</event>
<event>
12    6  0.1402540E-007  0.1694470E+04  0.7818608E-02  0.8764525E-01
          2   -1    0    0  501    0  0.00000000000E+00  0.00000000000E+00  0.23045548495E+04  0.23045548495E+04  0.00000000000E+00 0. -1.
         -1   -1    0    0    0  501 -0.00000000000E+00 -0.00000000000E+00 -0.31147329067E+03  0.31147329067E+03  0.00000000000E+00 0.  1.
         24    2    1    2    0    0  0.76200189371E+01 -0.43597296664E+02 -0.21007123899E+03  0.23468108606E+03  0.94797139918E+02 0.  0.
        254    2    1    2    0    0 -0.76200189371E+01  0.43597296664E+02  0.22031527978E+04  0.23813470541E+04  0.90275841321E+03 0.  0.
         23    2    4    4    0    0 -0.42869694135E+03  0.13699578248E+03  0.10230053871E+04  0.11213018115E+04  0.90712834636E+02 0.  0.
         23    2    4    4    0    0  0.42107692242E+03 -0.93398485814E+02  0.11801474107E+04  0.12600452426E+04  0.94535976254E+02 0.  0.
          4    1    3    3  502    0  0.45855734902E+02 -0.35503016283E+02 -0.79623664589E+02  0.98504520461E+02  0.00000000000E+00 0. -1.
         -3    1    3    3    0  502 -0.38235715965E+02 -0.80942803810E+01 -0.13044757440E+03  0.13617656560E+03  0.00000000000E+00 0.  1.
         11    1    5    5    0    0 -0.42987722726E+03  0.12605276838E+03  0.99425945655E+03  0.10905207920E+04  0.00000000000E+00 0. -1.
        -11    1    5    5    0    0  0.11802859048E+01  0.10943014095E+02  0.28745930572E+02  0.30781019423E+02  0.00000000000E+00 0.  1.
          4    1    6    6  503    0  0.42296088021E+03 -0.96967439436E+02  0.11781903396E+04  0.12555600610E+04  0.00000000000E+00 0. -1.
         -4    1    6    6    0  503 -0.18839577974E+01  0.35689536220E+01  0.19570710889E+01  0.44851816224E+01  0.00000000000E+00 0.  1.
<mgrwt>
<rscale>  0 0.16944702E+04</rscale>
<asrwt>0</asrwt>
<pdfrwt beam="1">  1        2 0.35454689E+00 0.16944702E+04</pdfrwt>
<pdfrwt beam="2">  1       -1 0.47918969E-01 0.16944702E+04</pdfrwt>
<totfact> 0.21277469E+01</totfact>
</mgrwt>
</event>
<event>
12    6  0.1402540E-007  0.2277380E+04  0.7818608E-02  0.8486894E-01
          2   -1    0    0  501    0  0.00000000000E+00  0.00000000000E+00  0.11246514121E+04  0.11246514121E+04  0.00000000000E+00 0. -1.
         -1   -1    0    0    0  501 -0.00000000000E+00 -0.00000000000E+00 -0.11529036262E+04  0.11529036262E+04  0.00000000000E+00 0.  1.
         24    2    1    2    0    0 -0.90899348795E+03 -0.27224536944E+03  0.12181108178E+03  0.96045150292E+03  0.85102570475E+02 0.  0.
        254    2    1    2    0    0  0.90899348795E+03  0.27224536944E+03 -0.15006329580E+03  0.13171035354E+04  0.90103053657E+03 0.  0.
         23    2    4    4    0    0  0.87129799016E+03  0.34164441520E+03 -0.41338030167E+03  0.10272704775E+04  0.92305287381E+02 0.  0.
         23    2    4    4    0    0  0.37695497787E+02 -0.69399045760E+02  0.26331700587E+03  0.28983305785E+03  0.91815999363E+02 0.  0.
          2    1    3    3  502    0 -0.25334812846E+03 -0.51023479386E+02  0.35627169606E+01  0.25845959568E+03  0.00000000000E+00 0. -1.
         -1    1    3    3    0  502 -0.65564535949E+03 -0.22122189006E+03  0.11824836482E+03  0.70199190725E+03  0.00000000000E+00 0.  1.
         11    1    5    5    0    0  0.52310779122E+03  0.25204253460E+03 -0.26633942532E+03  0.63883009475E+03  0.00000000000E+00 0.  1.
        -11    1    5    5    0    0  0.34819019894E+03  0.89601880601E+02 -0.14704087635E+03  0.38844038277E+03  0.00000000000E+00 0. -1.
          2    1    6    6  503    0 -0.18010242187E+02 -0.33771308182E+02  0.34073264959E+02  0.51243121147E+02  0.00000000000E+00 0. -1.
         -2    1    6    6    0  503  0.55705739974E+02 -0.35627737577E+02  0.22924374091E+03  0.23858993671E+03  0.00000000000E+00 0.  1.
<mgrwt>
<rscale>  0 0.22773798E+04</rscale>
<asrwt>0</asrwt>
<pdfrwt beam="1">  1        2 0.17302329E+00 0.22773798E+04</pdfrwt>
<pdfrwt beam="2">  1       -1 0.17736979E+00 0.22773798E+04</pdfrwt>
<totfact> 0.47364205E+00</totfact>
</mgrwt>
</event>
<event>
12    6  0.1402540E-007  0.1983244E+04  0.7818608E-02  0.8614495E-01
          2   -1    0    0  501    0  0.00000000000E+00  0.00000000000E+00  0.12452685903E+04  0.12452685903E+04  0.00000000000E+00 0. -1.
         -1   -1    0    0    0  501 -0.00000000000E+00 -0.00000000000E+00 -0.78964028357E+03  0.78964028357E+03  0.00000000000E+00 0.  1.
         24    2    1    2    0    0 -0.28990787095E+03  0.72087087566E+03  0.15947764209E+03  0.79711986139E+03  0.79155303515E+02 0.  0.
        254    2    1    2    0    0  0.28990787095E+03 -0.72087087566E+03  0.29615066468E+03  0.12377890125E+04  0.91690513703E+03 0.  0.
         23    2    4    4    0    0  0.55309179401E+03 -0.23590528284E+03  0.71867047368E+01  0.60803029990E+03  0.89929760393E+02 0.  0.
         23    2    4    4    0    0 -0.26318392306E+03 -0.48496559283E+03  0.28896395994E+03  0.62975871263E+03  0.92943328979E+02 0.  0.
          4    1    3    3  502    0 -0.57855025199E+02  0.23043127143E+03  0.65779322934E+02  0.24652118391E+03  0.00000000000E+00 0. -1.
         -3    1    3    3    0  502 -0.23205284575E+03  0.49043960424E+03  0.93698319152E+02  0.55059867748E+03  0.00000000000E+00 0.  1.
         11    1    5    5    0    0  0.49898504005E+03 -0.21356316242E+03  0.33607755990E+02  0.54380582545E+03  0.00000000000E+00 0.  1.
        -11    1    5    5    0    0  0.54106753958E+02 -0.22342120418E+02 -0.26421051253E+02  0.64224474447E+02  0.00000000000E+00 0. -1.
          4    1    6    6  503    0 -0.69036873517E+02 -0.12954259087E+03  0.12512115045E+03  0.19287994982E+03  0.00000000000E+00 0. -1.
         -4    1    6    6    0  503 -0.19414704954E+03 -0.35542300196E+03  0.16384280949E+03  0.43687876280E+03  0.00000000000E+00 0.  1.
<mgrwt>
<rscale>  0 0.19832441E+04</rscale>
<asrwt>0</asrwt>
<pdfrwt beam="1">  1        2 0.19157978E+00 0.19832441E+04</pdfrwt>
<pdfrwt beam="2">  1       -1 0.12148312E+00 0.19832441E+04</pdfrwt>
<totfact> 0.11341834E+01</totfact>
</mgrwt>
</event>
<event>
12    6  0.1402540E-007  0.1380233E+04  0.7818608E-02  0.8968253E-01
         -1   -1    0    0    0  501 -0.00000000000E+00  0.00000000000E+00  0.88649495414E+03  0.88649495414E+03  0.00000000000E+00 0.  1.
          2   -1    0    0  501    0  0.00000000000E+00 -0.00000000000E+00 -0.53724023698E+03  0.53724023698E+03  0.00000000000E+00 0. -1.
         24    2    1    2    0    0  0.55399268279E+02 -0.26592385547E+03 -0.18973243419E+03  0.34039564832E+03  0.78014261378E+02 0.  0.
        254    2    1    2    0    0 -0.55399268279E+02  0.26592385547E+03  0.53898715135E+03  0.10833395428E+04  0.89962927912E+03 0.  0.
         23    2    4    4    0    0 -0.15420377155E+03 -0.30296948881E+03  0.24812883503E+03  0.43057502618E+03  0.90871448145E+02 0.  0.
         23    2    4    4    0    0  0.98804503270E+02  0.56889334427E+03  0.29085831632E+03  0.65276451662E+03  0.90005482974E+02 0.  0.
          4    1    3    3  502    0 -0.48268412809E+01 -0.15018426792E+03 -0.12101991404E+03  0.19293634267E+03  0.00000000000E+00 0. -1.
         -3    1    3    3    0  502  0.60226109560E+02 -0.11573958754E+03 -0.68712520156E+02  0.14745930565E+03  0.00000000000E+00 0.  1.
         11    1    5    5    0    0 -0.94555455952E+02 -0.16466824488E+03  0.83470755989E+02  0.20742162912E+03  0.00000000000E+00 0.  1.
        -11    1    5    5    0    0 -0.59648315597E+02 -0.13830124393E+03  0.16465807904E+03  0.22315339706E+03  0.00000000000E+00 0. -1.
          2    1    6    6  503    0 -0.27930825931E+01  0.16324411110E+03  0.52908277777E+02  0.17162670822E+03  0.00000000000E+00 0. -1.
         -2    1    6    6    0  503  0.10159758586E+03  0.40564923318E+03  0.23795003854E+03  0.48113780840E+03  0.00000000000E+00 0.  1.
<mgrwt>
<rscale>  0 0.13802330E+04</rscale>
<asrwt>0</asrwt>
<pdfrwt beam="1">  1        2 0.82652344E-01 0.13802330E+04</pdfrwt>
<pdfrwt beam="2">  1       -1 0.13638384E+00 0.13802330E+04</pdfrwt>
<totfact> 0.28306292E+01</totfact>
</mgrwt>
</event>
<event>
12    6  0.1402540E-007  0.1876565E+04  0.7818608E-02  0.8666610E-01
          2   -1    0    0  501    0  0.00000000000E+00  0.00000000000E+00  0.11862026513E+04  0.11862026513E+04  0.00000000000E+00 0. -1.
         -1   -1    0    0    0  501 -0.00000000000E+00 -0.00000000000E+00 -0.74217855979E+03  0.74217855979E+03  0.00000000000E+00 0.  1.
         24    2    1    2    0    0  0.56601518224E+03  0.44246100395E+03  0.20040262336E+03  0.75007020504E+03  0.79367339033E+02 0.  0.
        254    2    1    2    0    0 -0.56601518224E+03 -0.44246100395E+03  0.24362146816E+03  0.11783110061E+04  0.90162102944E+03 0.  0.
         23    2    4    4    0    0 -0.51160262041E+03 -0.59592072044E+03 -0.89948695835E+02  0.79579969801E+03  0.91365448701E+02 0.  0.
         23    2    4    4    0    0 -0.54412561822E+02  0.15345971649E+03  0.33357016400E+03  0.38251130805E+03  0.92386335602E+02 0.  0.
          4    1    3    3  502    0  0.96776266714E+02  0.88331021958E+02  0.70446502811E+01  0.13121601403E+03  0.00000000000E+00 0. -1.
         -3    1    3    3    0  502  0.46923891552E+03  0.35412998199E+03  0.19335797308E+03  0.61885419101E+03  0.00000000000E+00 0.  1.
         11    1    5    5    0    0 -0.96414745127E+02 -0.10846287172E+03 -0.52751127929E+02  0.15441074807E+03  0.00000000000E+00 0.  1.
        -11    1    5    5    0    0 -0.41518787529E+03 -0.48745784872E+03 -0.37197567906E+02  0.64138894995E+03  0.00000000000E+00 0. -1.
          4    1    6    6  503    0 -0.62640838660E+02  0.11977670359E+03  0.18014376594E+03  0.22521569616E+03  0.00000000000E+00 0. -1.
         -4    1    6    6    0  503  0.82282768381E+01  0.33683012904E+02  0.15342639806E+03  0.15729561189E+03  0.00000000000E+00 0.  1.
<mgrwt>
<rscale>  0 0.18765651E+04</rscale>
<asrwt>0</asrwt>
<pdfrwt beam="1">  1        2 0.18249272E+00 0.18765651E+04</pdfrwt>
<pdfrwt beam="2">  1       -1 0.11418132E+00 0.18765651E+04</pdfrwt>
<totfact> 0.14424511E+01</totfact>
</mgrwt>
</event>
<event>
12    6  0.1402540E-007  0.1414654E+04  0.7818608E-02  0.8943279E-01
         -1   -1    0    0    0  501 -0.00000000000E+00  0.00000000000E+00  0.10075033385E+04  0.10075033385E+04  0.00000000000E+00 0.  1.
          2   -1    0    0  501    0  0.00000000000E+00 -0.00000000000E+00 -0.49658566147E+03  0.49658566147E+03  0.00000000000E+00 0. -1.
         24    2    1    2    0    0 -0.18501842065E+03  0.35838190073E+03  0.39209676581E+02  0.41333190262E+03  0.81464472217E+02 0.  0.
        254    2    1    2    0    0  0.18501842065E+03 -0.35838190073E+03  0.47170800049E+03  0.10907570974E+04  0.89698004718E+03 0.  0.
         23    2    4    4    0    0  0.25731802469E+03 -0.26875490914E+03  0.71264722780E+03  0.80821294583E+03  0.83068209854E+02 0.  0.
         23    2    4    4    0    0 -0.72299604036E+02 -0.89626991589E+02 -0.24093922732E+03  0.28254415156E+03  0.92299815584E+02 0.  0.
          2    1    3    3  502    0 -0.14212373063E+03  0.22563743416E+03 -0.58530136577E+01  0.26673144597E+03  0.00000000000E+00 0. -1.
         -1    1    3    3    0  502 -0.42894690022E+02  0.13274446657E+03  0.45062690238E+02  0.14660045664E+03  0.00000000000E+00 0.  1.
         11    1    5    5    0    0  0.25534924292E+03 -0.27273811842E+03  0.68550020591E+03  0.78070471332E+03  0.00000000000E+00 0.  1.
        -11    1    5    5    0    0  0.19687817699E+01  0.39832092824E+01  0.27147021893E+02  0.27508232504E+02  0.00000000000E+00 0. -1.
          4    1    6    6  503    0 -0.76516200792E+01 -0.16333402181E+02  0.43055152260E+01  0.18543591292E+02  0.00000000000E+00 0. -1.
         -4    1    6    6    0  503 -0.64647983957E+02 -0.73293589408E+02 -0.24524474254E+03  0.26400056027E+03  0.00000000000E+00 0.  1.
<mgrwt>
<rscale>  0 0.14146543E+04</rscale>
<asrwt>0</asrwt>
<pdfrwt beam="1">  1        2 0.76397795E-01 0.14146543E+04</pdfrwt>
<pdfrwt beam="2">  1       -1 0.15500051E+00 0.14146543E+04</pdfrwt>
<totfact> 0.22022909E+01</totfact>
</mgrwt>
</event>
<event>
12    6  0.1402540E-007  0.3035200E+04  0.7818608E-02  0.8233750E-01
         -1   -1    0    0    0  501 -0.00000000000E+00  0.00000000000E+00  0.10211441663E+04  0.10211441663E+04  0.00000000000E+00 0.  1.
          2   -1    0    0  501    0  0.00000000000E+00 -0.00000000000E+00 -0.22554201538E+04  0.22554201538E+04  0.00000000000E+00 0. -1.
         24    2    1    2    0    0  0.27851265226E+03  0.99532002392E+03  0.42902192065E+03  0.11218784509E+04  0.79499701839E+02 0.  0.
        254    2    1    2    0    0 -0.27851265226E+03 -0.99532002392E+03 -0.16632979082E+04  0.21546858693E+04  0.89882145979E+03 0.  0.
         23    2    4    4    0    0 -0.59321354214E+03 -0.70938681483E+03 -0.10326312577E+04  0.13891953065E+04  0.91675108472E+02 0.  0.
         23    2    4    4    0    0  0.31470088988E+03 -0.28593320910E+03 -0.63066665048E+03  0.76549056285E+03  0.86260811604E+02 0.  0.
          4    1    3    3  502    0  0.25986765377E+03  0.87162811496E+03  0.35391203633E+03  0.97597156604E+03  0.00000000000E+00 0. -1.
         -3    1    3    3    0  502  0.18644998497E+02  0.12369190896E+03  0.75109884327E+02  0.14590688481E+03  0.00000000000E+00 0.  1.
         11    1    5    5    0    0 -0.15419802596E+03 -0.20438106749E+03 -0.34608842558E+03  0.43049488996E+03  0.00000000000E+00 0. -1.
        -11    1    5    5    0    0 -0.43901551618E+03 -0.50500574734E+03 -0.68654283212E+03  0.95870041651E+03  0.00000000000E+00 0.  1.
          3    1    6    6  503    0  0.18029704049E+03 -0.18359039718E+03 -0.30856986411E+03  0.40178080813E+03  0.00000000000E+00 0. -1.
         -3    1    6    6    0  503  0.13440384939E+03 -0.10234281192E+03 -0.32209678638E+03  0.36370975471E+03  0.00000000000E+00 0.  1.
<mgrwt>
<rscale>  0 0.30351996E+04</rscale>
<asrwt>0</asrwt>
<pdfrwt beam="1">  1        2 0.34698771E+00 0.30351996E+04</pdfrwt>
<pdfrwt beam="2">  1       -1 0.15709910E+00 0.30351996E+04</pdfrwt>
<totfact> 0.14338086E+00</totfact>
</mgrwt>
</event>
<event>
12    6  0.1402540E-007  0.1450126E+04  0.7818608E-02  0.8918313E-01
          2   -1    0    0  501    0  0.00000000000E+00  0.00000000000E+00  0.13735966692E+04  0.13735966692E+04  0.00000000000E+00 0. -1.
         -1   -1    0    0    0  501 -0.00000000000E+00 -0.00000000000E+00 -0.38272965271E+03  0.38272965271E+03  0.00000000000E+00 0.  1.
         24    2    1    2    0    0 -0.18460984361E+03 -0.40992370738E+03  0.36211423401E+03  0.58278419952E+03  0.79952889320E+02 0.  0.
        254    2    1    2    0    0  0.18460984361E+03  0.40992370738E+03  0.62875278252E+03  0.11735421224E+04  0.88303613251E+03 0.  0.
         23    2    4    4    0    0 -0.24559690127E+03  0.22801171479E+03 -0.43961954830E+02  0.34946213594E+03  0.88791615524E+02 0.  0.
         23    2    4    4    0    0  0.43020674488E+03  0.18191199260E+03  0.67271473735E+03  0.82407998648E+03  0.91612716753E+02 0.  0.
          4    1    3    3  502    0 -0.10485632406E+03 -0.13951361621E+03  0.13055917306E+03  0.21795548967E+03  0.00000000000E+00 0. -1.
         -3    1    3    3    0  502 -0.79753519547E+02 -0.27041009117E+03  0.23155506095E+03  0.36482870986E+03  0.00000000000E+00 0.  1.
         11    1    5    5    0    0 -0.11907892100E+03  0.11195706972E+03  0.23250670528E+02  0.16509018313E+03  0.00000000000E+00 0. -1.
        -11    1    5    5    0    0 -0.12651798027E+03  0.11605464507E+03 -0.67212625358E+02  0.18437195281E+03  0.00000000000E+00 0.  1.
          1    1    6    6  503    0  0.36683029471E+03  0.12598895406E+03  0.51010791805E+03  0.64081804728E+03  0.00000000000E+00 0. -1.
         -1    1    6    6    0  503  0.63376450174E+02  0.55923038533E+02  0.16260681930E+03  0.18326193920E+03  0.00000000000E+00 0.  1.
<mgrwt>
<rscale>  0 0.14501258E+04</rscale>
<asrwt>0</asrwt>
<pdfrwt beam="1">  1        2 0.21132256E+00 0.14501258E+04</pdfrwt>
<pdfrwt beam="2">  1       -1 0.58881486E-01 0.14501258E+04</pdfrwt>
<totfact> 0.48416187E+01</totfact>
</mgrwt>
</event>
<event>
12    6  0.1402540E-007  0.4727847E+04  0.7818608E-02  0.7871918E-01
          2   -1    0    0  501    0  0.00000000000E+00  0.00000000000E+00  0.14767361121E+04  0.14767361121E+04  0.00000000000E+00 0. -1.
         -1   -1    0    0    0  501 -0.00000000000E+00 -0.00000000000E+00 -0.37841116501E+04  0.37841116501E+04  0.00000000000E+00 0.  1.
         24    2    1    2    0    0 -0.19773469897E+04 -0.47563829065E+03 -0.22521729114E+04  0.30355798197E+04  0.79555750931E+02 0.  0.
        254    2    1    2    0    0  0.19773469897E+04  0.47563829065E+03 -0.55202626663E+02  0.22252679425E+04  0.90146391190E+03 0.  0.
         23    2    4    4    0    0  0.54010068045E+03  0.46730243231E+03 -0.27007012917E+03  0.76913937213E+03  0.92505085437E+02 0.  0.
         23    2    4    4    0    0  0.14372463093E+04  0.83358583327E+01  0.21486750251E+03  0.14561285703E+04  0.91629305455E+02 0.  0.
          2    1    3    3  502    0 -0.74672202317E+03 -0.18774051190E+03 -0.79669187731E+03  0.11079522675E+04  0.00000000000E+00 0. -1.
         -1    1    3    3    0  502 -0.12306249666E+04 -0.28789777875E+03 -0.14554810341E+04  0.19276275522E+04  0.00000000000E+00 0.  1.
         11    1    5    5    0    0  0.18957480913E+03  0.12903300326E+03 -0.12336995336E+03  0.26040021041E+03  0.00000000000E+00 0.  1.
        -11    1    5    5    0    0  0.35052587132E+03  0.33826942905E+03 -0.14670017581E+03  0.50873916173E+03  0.00000000000E+00 0. -1.
          2    1    6    6  503    0  0.72921739269E+03  0.16441546146E+02  0.64381142119E+02  0.73223852788E+03  0.00000000000E+00 0. -1.
         -2    1    6    6    0  503  0.70802891661E+03 -0.81056878129E+01  0.15048636039E+03  0.72389004247E+03  0.00000000000E+00 0.  1.
<mgrwt>
<rscale>  0 0.47278470E+04</rscale>
<asrwt>0</asrwt>
<pdfrwt beam="1">  1        2 0.22719017E+00 0.47278470E+04</pdfrwt>
<pdfrwt beam="2">  1       -1 0.58217102E+00 0.47278470E+04</pdfrwt>
<totfact> 0.58569225E-03</totfact>
</mgrwt>
</event>
<event>
12    6  0.1402540E-007  0.1924183E+04  0.7818608E-02  0.8642912E-01
          2   -1    0    0  501    0  0.00000000000E+00  0.00000000000E+00  0.21245361680E+04  0.21245361680E+04  0.00000000000E+00 0. -1.
         -1   -1    0    0    0  501 -0.00000000000E+00 -0.00000000000E+00 -0.43568086243E+03  0.43568086243E+03  0.00000000000E+00 0.  1.
         24    2    1    2    0    0 -0.52924931064E+03 -0.30011255993E+03  0.79658561434E+02  0.61879243800E+03  0.79913787786E+02 0.  0.
        254    2    1    2    0    0  0.52924931064E+03  0.30011255993E+03  0.16091967441E+04  0.19414245924E+04  0.89969044971E+03 0.  0.
         23    2    4    4    0    0  0.53037685066E+03 -0.20132875682E+03  0.79338125902E+03  0.97967482187E+03  0.92065533202E+02 0.  0.
         23    2    4    4    0    0 -0.11275400248E+01  0.50144131674E+03  0.81581548508E+03  0.96174977052E+03  0.89235922813E+02 0.  0.
          4    1    3    3  502    0 -0.40369160492E+03 -0.20401195218E+03  0.86585479237E+02  0.46052669166E+03  0.00000000000E+00 0. -1.
         -3    1    3    3    0  502 -0.12555770571E+03 -0.96100607745E+02 -0.69269178030E+01  0.15826574634E+03  0.00000000000E+00 0.  1.
         11    1    5    5    0    0  0.40726977743E+02 -0.41069680519E+02  0.10456619778E+03  0.11949684134E+03  0.00000000000E+00 0.  1.
        -11    1    5    5    0    0  0.48964987292E+03 -0.16025907630E+03  0.68881506124E+03  0.86017798052E+03  0.00000000000E+00 0. -1.
          3    1    6    6  503    0 -0.39503767478E+02  0.17263360106E+03  0.31615923127E+03  0.36238041804E+03  0.00000000000E+00 0. -1.
         -3    1    6    6    0  503  0.38376227453E+02  0.32880771569E+03  0.49965625381E+03  0.59936935248E+03  0.00000000000E+00 0.  1.
<mgrwt>
<rscale>  0 0.19241827E+04</rscale>
<asrwt>0</asrwt>
<pdfrwt beam="1">  1        2 0.32685171E+00 0.19241827E+04</pdfrwt>
<pdfrwt beam="2">  1       -1 0.67027826E-01 0.19241827E+04</pdfrwt>
<totfact> 0.13662410E+01</totfact>
</mgrwt>
</event>
<event>
12    6  0.1402540E-007  0.3324172E+04  0.7818608E-02  0.8156772E-01
         -1   -1    0    0    0  501 -0.00000000000E+00  0.00000000000E+00  0.18730178073E+04  0.18730178073E+04  0.00000000000E+00 0.  1.
          2   -1    0    0  501    0  0.00000000000E+00 -0.00000000000E+00 -0.14749084370E+04  0.14749084370E+04  0.00000000000E+00 0. -1.
         24    2    1    2    0    0  0.31025292012E+03  0.89985388534E+03  0.14023595566E+04  0.16967726715E+04  0.80195281299E+02 0.  0.
        254    2    1    2    0    0 -0.31025292012E+03 -0.89985388534E+03 -0.10042501863E+04  0.16511535728E+04  0.90099711145E+03 0.  0.
         23    2    4    4    0    0 -0.18734011102E+03 -0.30165386747E+03 -0.96488909112E+03  0.10322134087E+04  0.91445010350E+02 0.  0.
         23    2    4    4    0    0 -0.12291280910E+03 -0.59820001787E+03 -0.39361095171E+02  0.61894016411E+03  0.92665046883E+02 0.  0.
          4    1    3    3  502    0  0.18399713947E+03  0.42676467357E+03  0.71811052679E+03  0.85537463291E+03  0.00000000000E+00 0. -1.
         -3    1    3    3    0  502  0.12625578065E+03  0.47308921176E+03  0.68424902983E+03  0.84139803854E+03  0.00000000000E+00 0.  1.
         11    1    5    5    0    0 -0.19747960884E+03 -0.28893710345E+03 -0.93145380725E+03  0.99503218073E+03  0.00000000000E+00 0.  1.
        -11    1    5    5    0    0  0.10139497822E+02 -0.12716764019E+02 -0.33435283877E+02  0.37181227940E+02  0.00000000000E+00 0. -1.
          4    1    6    6  503    0 -0.81816492413E+02 -0.29357417853E+03 -0.60952769737E+02  0.31079732443E+03  0.00000000000E+00 0.  1.
         -4    1    6    6    0  503 -0.41096316685E+02 -0.30462583934E+03  0.21591674566E+02  0.30814283968E+03  0.00000000000E+00 0. -1.
<mgrwt>
<rscale>  0 0.33241719E+04</rscale>
<asrwt>0</asrwt>
<pdfrwt beam="1">  1        2 0.22690899E+00 0.33241719E+04</pdfrwt>
<pdfrwt beam="2">  1       -1 0.28815659E+00 0.33241719E+04</pdfrwt>
<totfact> 0.49052593E-01</totfact>
</mgrwt>
</event>
<event>
12    6  0.1402540E-007  0.1039702E+04  0.7818608E-02  0.9266041E-01
         -1   -1    0    0    0  501 -0.00000000000E+00  0.00000000000E+00  0.51343629477E+03  0.51343629477E+03  0.00000000000E+00 0.  1.
          2   -1    0    0  501    0  0.00000000000E+00 -0.00000000000E+00 -0.52634598776E+03  0.52634598776E+03  0.00000000000E+00 0. -1.
         24    2    1    2    0    0  0.10333895424E+03  0.11283393656E+02  0.28302690272E+02  0.13360556548E+03  0.79013609045E+02 0.  0.
        254    2    1    2    0    0 -0.10333895424E+03 -0.11283393656E+02 -0.41212383261E+02  0.90617671704E+03  0.89925053658E+03 0.  0.
         23    2    4    4    0    0  0.10675439632E+03 -0.21912139985E+03  0.33066578971E+03  0.42229775985E+03  0.97902218987E+02 0.  0.
         23    2    4    4    0    0 -0.21009335057E+03  0.20783800619E+03 -0.37187817297E+03  0.48387895720E+03  0.92247584904E+02 0.  0.
          2    1    3    3  502    0  0.84184707144E+02 -0.15311643640E+02  0.45157650900E+02  0.96750838667E+02  0.00000000000E+00 0. -1.
         -1    1    3    3    0  502  0.19154247098E+02  0.26595037297E+02 -0.16854960628E+02  0.36854726813E+02  0.00000000000E+00 0.  1.
         11    1    5    5    0    0  0.11746512940E+03 -0.14534743885E+03  0.25425103563E+03  0.31554322006E+03  0.00000000000E+00 0.  1.
        -11    1    5    5    0    0 -0.10710733080E+02 -0.73773961000E+02  0.76414754078E+02  0.10675453979E+03  0.00000000000E+00 0. -1.
          3    1    6    6  503    0 -0.97912761594E+02  0.15818385516E+03 -0.20608459805E+03  0.27763267544E+03  0.00000000000E+00 0. -1.
         -3    1    6    6    0  503 -0.11218058897E+03  0.49654151027E+02 -0.16579357491E+03  0.20624628176E+03  0.00000000000E+00 0.  1.
<mgrwt>
<rscale>  0 0.10397021E+04</rscale>
<asrwt>0</asrwt>
<pdfrwt beam="1">  1        2 0.80976306E-01 0.10397021E+04</pdfrwt>
<pdfrwt beam="2">  1       -1 0.78990199E-01 0.10397021E+04</pdfrwt>
<totfact> 0.10592002E+02</totfact>
</mgrwt>
</event>
<event>
12    6  0.1402540E-007  0.2707045E+04  0.7818608E-02  0.8332723E-01
          2   -1    0    0  501    0  0.00000000000E+00  0.00000000000E+00  0.29127969213E+04  0.29127969213E+04  0.00000000000E+00 0. -1.
         -1   -1    0    0    0  501 -0.00000000000E+00 -0.00000000000E+00 -0.62895657036E+03  0.62895657036E+03  0.00000000000E+00 0.  1.
         24    2    1    2    0    0 -0.13001941533E+02  0.89821578945E+03 -0.28816326268E+02  0.90248399168E+03  0.81769919101E+02 0.  0.
        254    2    1    2    0    0  0.13001941533E+02 -0.89821578945E+03  0.23126566772E+04  0.26392695000E+04  0.90022326784E+03 0.  0.
         23    2    4    4    0    0  0.20476418561E+03 -0.32658719304E+03  0.17979927919E+04  0.18406795749E+04  0.82071013772E+02 0.  0.
         23    2    4    4    0    0 -0.19176224407E+03 -0.57162859641E+03  0.51466388526E+03  0.79858992505E+03  0.96617509337E+02 0.  0.
          2    1    3    3  502    0 -0.18330691095E+02  0.10870655938E+03 -0.24566642660E+02  0.11294534174E+03  0.00000000000E+00 0. -1.
         -1    1    3    3    0  502  0.53287495629E+01  0.78950923007E+03 -0.42496836080E+01  0.78953864994E+03  0.00000000000E+00 0.  1.
         11    1    5    5    0    0  0.17439360708E+03 -0.31232141905E+03  0.16958655306E+04  0.17331813803E+04  0.00000000000E+00 0. -1.
        -11    1    5    5    0    0  0.30370578527E+02 -0.14265773991E+02  0.10212726132E+03  0.10749819465E+03  0.00000000000E+00 0.  1.
          2    1    6    6  503    0 -0.34824334791E+02 -0.13908105411E+03  0.17735952271E+03  0.22806287336E+03  0.00000000000E+00 0.  1.
         -2    1    6    6    0  503 -0.15693790928E+03 -0.43254754230E+03  0.33730436255E+03  0.57052705169E+03  0.00000000000E+00 0. -1.
<mgrwt>
<rscale>  0 0.27070447E+04</rscale>
<asrwt>0</asrwt>
<pdfrwt beam="1">  1        2 0.44812260E+00 0.27070447E+04</pdfrwt>
<pdfrwt beam="2">  1       -1 0.96762551E-01 0.27070447E+04</pdfrwt>
<totfact> 0.20193736E+00</totfact>
</mgrwt>
</event>
<event>
12    6  0.1402540E-007  0.1730056E+04  0.7818608E-02  0.8744405E-01
          2   -1    0    0  501    0  0.00000000000E+00  0.00000000000E+00  0.92959549522E+03  0.92959549522E+03  0.00000000000E+00 0. -1.
         -1   -1    0    0    0  501 -0.00000000000E+00 -0.00000000000E+00 -0.80494543059E+03  0.80494543059E+03  0.00000000000E+00 0.  1.
         24    2    1    2    0    0 -0.45567715775E+03 -0.29585955377E+03  0.36192745876E+03  0.65736007479E+03  0.77176647199E+02 0.  0.
        254    2    1    2    0    0  0.45567715775E+03  0.29585955377E+03 -0.23727739414E+03  0.10771808510E+04  0.89935725737E+03 0.  0.
         23    2    4    4    0    0  0.20930414741E+02  0.28142266840E+02  0.30891215526E+03  0.32403536665E+03  0.91335260032E+02 0.  0.
         23    2    4    4    0    0  0.43474674301E+03  0.26771728693E+03 -0.54618954940E+03  0.75314548437E+03  0.90707334222E+02 0.  0.
          2    1    3    3  502    0 -0.39569511234E+03 -0.22687417954E+03  0.28461977514E+03  0.53763829074E+03  0.00000000000E+00 0. -1.
         -1    1    3    3    0  502 -0.59982045410E+02 -0.68985374223E+02  0.77307683627E+02  0.11972178405E+03  0.00000000000E+00 0.  1.
         11    1    5    5    0    0  0.22207356610E+01 -0.52682691603E+01  0.26776783399E+03  0.26782886186E+03  0.00000000000E+00 0. -1.
        -11    1    5    5    0    0  0.18709679080E+02  0.33410536000E+02  0.41144321271E+02  0.56206504783E+02  0.00000000000E+00 0.  1.
          3    1    6    6  503    0  0.43686449992E+03  0.26400114696E+03 -0.54763279503E+03  0.74863133456E+03  0.00000000000E+00 0. -1.
         -3    1    6    6    0  503 -0.21177569164E+01  0.37161399653E+01  0.14432456293E+01  0.45141498142E+01  0.00000000000E+00 0.  1.
<mgrwt>
<rscale>  0 0.17300562E+04</rscale>
<asrwt>0</asrwt>
<pdfrwt beam="1">  1        2 0.14301469E+00 0.17300562E+04</pdfrwt>
<pdfrwt beam="2">  1       -1 0.12383776E+00 0.17300562E+04</pdfrwt>
<totfact> 0.17382136E+01</totfact>
</mgrwt>
</event>
<event>
12    6  0.1402540E-007  0.3395447E+04  0.7818608E-02  0.8139025E-01
         -3   -1    0    0    0  501 -0.00000000000E+00  0.00000000000E+00  0.15228644302E+04  0.15228644302E+04  0.00000000000E+00 0.  1.
          2   -1    0    0  501    0  0.00000000000E+00 -0.00000000000E+00 -0.18926605695E+04  0.18926605695E+04  0.00000000000E+00 0. -1.
         24    2    1    2    0    0 -0.11500972665E+04 -0.91640585372E+03  0.40451076460E+03  0.15275028717E+04  0.84336547534E+02 0.  0.
        254    2    1    2    0    0  0.11500972665E+04  0.91640585372E+03 -0.77430690396E+03  0.18880221280E+04  0.89585320398E+03 0.  0.
         23    2    4    4    0    0  0.63083444415E+03  0.10007528693E+04 -0.53452743468E+03  0.13013899298E+04  0.91857332848E+02 0.  0.
         23    2    4    4    0    0  0.51926282239E+03 -0.84347015572E+02 -0.23977946928E+03  0.58663219822E+03  0.99472832224E+02 0.  0.
          2    1    3    3  502    0 -0.35157944806E+02 -0.28514999745E+02 -0.22088841930E+01  0.45321798981E+02  0.00000000000E+00 0. -1.
         -1    1    3    3    0  502 -0.11149393217E+04 -0.88789085397E+03  0.40671964879E+03  0.14821810728E+04  0.00000000000E+00 0.  1.
         11    1    5    5    0    0  0.33022928816E+03  0.44171668736E+03 -0.26322241686E+03  0.61110641904E+03  0.00000000000E+00 0. -1.
        -11    1    5    5    0    0  0.30060515599E+03  0.55903618192E+03 -0.27130501782E+03  0.69028351074E+03  0.00000000000E+00 0.  1.
          1    1    6    6  503    0  0.14221046504E+03 -0.61148062737E+02 -0.42862798231E+02  0.16062416200E+03  0.00000000000E+00 0. -1.
         -1    1    6    6    0  503  0.37705235734E+03 -0.23198952835E+02 -0.19691667105E+03  0.42600803622E+03  0.00000000000E+00 0.  1.
<mgrwt>
<rscale>  0 0.33954472E+04</rscale>
<asrwt>0</asrwt>
<pdfrwt beam="1">  1        2 0.29117855E+00 0.33954472E+04</pdfrwt>
<pdfrwt beam="2">  1       -3 0.23428683E+00 0.33954472E+04</pdfrwt>
<totfact> 0.36224393E-01</totfact>
</mgrwt>
</event>
<event>
12    6  0.1402540E-007  0.2292379E+04  0.7818608E-02  0.8480932E-01
         -1   -1    0    0    0  501 -0.00000000000E+00  0.00000000000E+00  0.59977100993E+03  0.59977100993E+03  0.00000000000E+00 0.  1.
          2   -1    0    0  501    0  0.00000000000E+00 -0.00000000000E+00 -0.21904201822E+04  0.21904201822E+04  0.00000000000E+00 0. -1.
         24    2    1    2    0    0  0.65092400551E+03 -0.47697522202E+03 -0.13224826852E+04  0.15513843497E+04  0.81397323531E+02 0.  0.
        254    2    1    2    0    0 -0.65092400551E+03  0.47697522202E+03 -0.26816648707E+03  0.12388068425E+04  0.90084499492E+03 0.  0.
         23    2    4    4    0    0 -0.68660581936E+03  0.21719324460E+03 -0.49600127927E+03  0.87873091477E+03  0.86892432665E+02 0.  0.
         23    2    4    4    0    0  0.35681813856E+02  0.25978197742E+03  0.22783479219E+03  0.36007592773E+03  0.94795113625E+02 0.  0.
          2    1    3    3  502    0  0.36163005125E+03 -0.31457569562E+03 -0.78368957787E+03  0.91864221365E+03  0.00000000000E+00 0. -1.
         -1    1    3    3    0  502  0.28929395425E+03 -0.16239952640E+03 -0.53879310736E+03  0.63274213601E+03  0.00000000000E+00 0.  1.
         11    1    5    5    0    0 -0.11468859823E+03  0.10181920005E+02 -0.56003803566E+02  0.12803738545E+03  0.00000000000E+00 0.  1.
        -11    1    5    5    0    0 -0.57191722113E+03  0.20701132459E+03 -0.43999747570E+03  0.75069352932E+03  0.00000000000E+00 0. -1.
          1    1    6    6  503    0  0.35035844572E+02  0.17058795274E+03  0.20304718542E+03  0.26749938230E+03  0.00000000000E+00 0. -1.
         -1    1    6    6    0  503  0.64596928465E+00  0.89194024675E+02  0.24787606774E+02  0.92576545429E+02  0.00000000000E+00 0.  1.
<mgrwt>
<rscale>  0 0.22923791E+04</rscale>
<asrwt>0</asrwt>
<pdfrwt beam="1">  1        2 0.33698772E+00 0.22923791E+04</pdfrwt>
<pdfrwt beam="2">  1       -1 0.92272463E-01 0.22923791E+04</pdfrwt>
<totfact> 0.61678518E+00</totfact>
</mgrwt>
</event>
<event>
12    6  0.1402540E-007  0.1938989E+04  0.7818608E-02  0.8635689E-01
         -1   -1    0    0    0  501 -0.00000000000E+00  0.00000000000E+00  0.47284146154E+03  0.47284146154E+03  0.00000000000E+00 0.  1.
          2   -1    0    0  501    0  0.00000000000E+00 -0.00000000000E+00 -0.19878105251E+04  0.19878105251E+04  0.00000000000E+00 0. -1.
         24    2    1    2    0    0 -0.10650701602E+03 -0.52722342610E+03 -0.12672394010E+04  0.13790260998E+04  0.80678367631E+02 0.  0.
        254    2    1    2    0    0  0.10650701602E+03  0.52722342610E+03 -0.24772966263E+03  0.10816258869E+04  0.90511672617E+03 0.  0.
         23    2    4    4    0    0 -0.10195088575E+03  0.71407788529E+03 -0.29314318347E+03  0.78395743134E+03  0.91406338770E+02 0.  0.
         23    2    4    4    0    0  0.20845790177E+03 -0.18685445919E+03  0.45413520836E+02  0.29766845558E+03  0.90414798790E+02 0.  0.
          2    1    3    3  502    0 -0.98797179264E+02 -0.28672787690E+03 -0.70679683301E+03  0.76911346444E+03  0.00000000000E+00 0. -1.
         -1    1    3    3    0  502 -0.77098367568E+01 -0.24049554920E+03 -0.56044256796E+03  0.60991263534E+03  0.00000000000E+00 0.  1.
         11    1    5    5    0    0  0.30727007620E+01  0.27066023005E+03 -0.92395019347E+02  0.28601265920E+03  0.00000000000E+00 0. -1.
        -11    1    5    5    0    0 -0.10502358651E+03  0.44341765524E+03 -0.20074816412E+03  0.49794477214E+03  0.00000000000E+00 0.  1.
          1    1    6    6  503    0  0.97156264874E+02 -0.11320857246E+03 -0.17345916663E+02  0.15018788735E+03  0.00000000000E+00 0. -1.
         -1    1    6    6    0  503  0.11130163690E+03 -0.73645886730E+02  0.62759437499E+02  0.14748056822E+03  0.00000000000E+00 0.  1.
<mgrwt>
<rscale>  0 0.19389886E+04</rscale>
<asrwt>0</asrwt>
<pdfrwt beam="1">  1        2 0.30581700E+00 0.19389886E+04</pdfrwt>
<pdfrwt beam="2">  1       -1 0.72744841E-01 0.19389886E+04</pdfrwt>
<totfact> 0.13746859E+01</totfact>
</mgrwt>
</event>
<event>
12    6  0.1402540E-007  0.1495472E+04  0.7818608E-02  0.8887470E-01
          2   -1    0    0  501    0  0.00000000000E+00  0.00000000000E+00  0.17603137287E+04  0.17603137287E+04  0.00000000000E+00 0. -1.
         -1   -1    0    0    0  501 -0.00000000000E+00 -0.00000000000E+00 -0.31761881727E+03  0.31761881727E+03  0.00000000000E+00 0.  1.
         24    2    1    2    0    0 -0.25455008913E+02 -0.24451467322E+03 -0.99479581963E+02  0.27526600470E+03  0.73755021626E+02 0.  0.
        254    2    1    2    0    0  0.25455008913E+02  0.24451467322E+03  0.15421744934E+04  0.18026665412E+04  0.90048270833E+03 0.  0.
         23    2    4    4    0    0  0.53813080533E+02  0.27886848924E+03  0.16364994384E+04  0.16636553255E+04  0.94631645419E+02 0.  0.
         23    2    4    4    0    0 -0.28358071620E+02 -0.34353816017E+02 -0.94324945024E+02  0.13901121572E+03  0.91883393181E+02 0.  0.
          2    1    3    3  502    0 -0.44346214335E+02 -0.22109109873E+03 -0.79291550258E+02  0.23902930909E+03  0.00000000000E+00 0. -1.
         -1    1    3    3    0  502  0.18891205422E+02 -0.23423574497E+02 -0.20188031705E+02  0.36236695609E+02  0.00000000000E+00 0.  1.
         11    1    5    5    0    0 -0.30814741578E+01  0.91659438955E+02  0.76404361070E+03  0.76952815887E+03  0.00000000000E+00 0. -1.
        -11    1    5    5    0    0  0.56894554691E+02  0.18720905029E+03  0.87245582769E+03  0.89412716664E+03  0.00000000000E+00 0.  1.
          1    1    6    6  503    0 -0.16798138336E+02  0.15272383207E+02 -0.84009054622E+02  0.87022666007E+02  0.00000000000E+00 0. -1.
         -1    1    6    6    0  503 -0.11559933284E+02 -0.49626199224E+02 -0.10315890402E+02  0.51988549718E+02  0.00000000000E+00 0.  1.
<mgrwt>
<rscale>  0 0.14954715E+04</rscale>
<asrwt>0</asrwt>
<pdfrwt beam="1">  1        2 0.27081749E+00 0.14954715E+04</pdfrwt>
<pdfrwt beam="2">  1       -1 0.48864434E-01 0.14954715E+04</pdfrwt>
<totfact> 0.41913122E+01</totfact>
</mgrwt>
</event>
<event>
12    6  0.1402540E-007  0.1352777E+04  0.7818608E-02  0.8988729E-01
         -1   -1    0    0    0  501 -0.00000000000E+00  0.00000000000E+00  0.28433102049E+03  0.28433102049E+03  0.00000000000E+00 0.  1.
          2   -1    0    0  501    0  0.00000000000E+00 -0.00000000000E+00 -0.16090446014E+04  0.16090446014E+04  0.00000000000E+00 0. -1.
         24    2    1    2    0    0 -0.19396343208E+03  0.30666445551E+03 -0.26571316267E+03  0.45701118810E+03  0.81183988412E+02 0.  0.
        254    2    1    2    0    0  0.19396343208E+03 -0.30666445551E+03 -0.10590004182E+04  0.14363644338E+04  0.89999777752E+03 0.  0.
         23    2    4    4    0    0  0.22766017559E+03 -0.59593625888E+03 -0.84985814137E+03  0.10664843095E+04  0.90336823519E+02 0.  0.
         23    2    4    4    0    0 -0.33696743510E+02  0.28927180337E+03 -0.20914227684E+03  0.36988012429E+03  0.90868958592E+02 0.  0.
          2    1    3    3  502    0 -0.18207148710E+03  0.25010916113E+03 -0.24820983379E+03  0.39662670168E+03  0.00000000000E+00 0. -1.
         -1    1    3    3    0  502 -0.11891944975E+02  0.56555294378E+02 -0.17503328873E+02  0.60384486411E+02  0.00000000000E+00 0.  1.
         11    1    5    5    0    0  0.11193377502E+03 -0.30592799408E+03 -0.50811384738E+03  0.60357335051E+03  0.00000000000E+00 0.  1.
        -11    1    5    5    0    0  0.11572640057E+03 -0.29000826480E+03 -0.34174429399E+03  0.46291095895E+03  0.00000000000E+00 0. -1.
          2    1    6    6  503    0  0.56510593336E+01  0.24331348594E+03 -0.15392385813E+03  0.28796864589E+03  0.00000000000E+00 0.  1.
         -2    1    6    6    0  503 -0.39347802844E+02  0.45958317428E+02 -0.55218418705E+02  0.81911478400E+02  0.00000000000E+00 0. -1.
<mgrwt>
<rscale>  0 0.13527768E+04</rscale>
<asrwt>0</asrwt>
<pdfrwt beam="1">  1        2 0.24754533E+00 0.13527768E+04</pdfrwt>
<pdfrwt beam="2">  1       -1 0.43743233E-01 0.13527768E+04</pdfrwt>
<totfact> 0.63314642E+01</totfact>
</mgrwt>
</event>
<event>
12    6  0.1402540E-007  0.3167084E+04  0.7818608E-02  0.8197565E-01
         -1   -1    0    0    0  501 -0.00000000000E+00  0.00000000000E+00  0.10772313717E+04  0.10772313717E+04  0.00000000000E+00 0.  1.
          2   -1    0    0  501    0  0.00000000000E+00 -0.00000000000E+00 -0.23278239418E+04  0.23278239418E+04  0.00000000000E+00 0. -1.
         24    2    1    2    0    0  0.95115392518E+03  0.23687519698E+03 -0.17444897565E+04  0.20026166634E+04  0.80158230634E+02 0.  0.
        254    2    1    2    0    0 -0.95115392518E+03 -0.23687519698E+03  0.49389718628E+03  0.14024386501E+04  0.87298114998E+03 0.  0.
         23    2    4    4    0    0  0.30783932720E+02 -0.10526535549E+03  0.37452810962E+03  0.40053625365E+03  0.90163961847E+02 0.  0.
         23    2    4    4    0    0 -0.98193785790E+03 -0.13160984149E+03  0.11936907666E+03  0.10019023964E+04  0.89645570426E+02 0.  0.
          2    1    3    3  502    0  0.10058799697E+03  0.47705384542E+02 -0.22440303311E+03  0.25050043936E+03  0.00000000000E+00 0. -1.
         -1    1    3    3    0  502  0.85056592821E+03  0.18916981244E+03 -0.15200867233E+04  0.17521162241E+04  0.00000000000E+00 0.  1.
         11    1    5    5    0    0 -0.29406893273E+02 -0.26244487805E+02  0.14853786178E+03  0.15367834881E+03  0.00000000000E+00 0. -1.
        -11    1    5    5    0    0  0.60190825993E+02 -0.79020867684E+02  0.22599024784E+03  0.24685790484E+03  0.00000000000E+00 0.  1.
          2    1    6    6  503    0 -0.34993976449E+03 -0.57739016362E+01  0.28892241653E+02  0.35117792975E+03  0.00000000000E+00 0. -1.
         -2    1    6    6    0  503 -0.63199809341E+03 -0.12583593986E+03  0.90476835010E+02  0.65072446666E+03  0.00000000000E+00 0.  1.
<mgrwt>
<rscale>  0 0.31670838E+04</rscale>
<asrwt>0</asrwt>
<pdfrwt beam="1">  1        2 0.35812676E+00 0.31670838E+04</pdfrwt>
<pdfrwt beam="2">  1       -1 0.16572791E+00 0.31670838E+04</pdfrwt>
<totfact> 0.11103526E+00</totfact>
</mgrwt>
</event>
<event>
12    6  0.1402540E-007  0.1225608E+04  0.7818608E-02  0.9090733E-01
          2   -1    0    0  501    0  0.00000000000E+00  0.00000000000E+00  0.30432234662E+03  0.30432234662E+03  0.00000000000E+00 0. -1.
         -1   -1    0    0    0  501 -0.00000000000E+00 -0.00000000000E+00 -0.12339827559E+04  0.12339827559E+04  0.00000000000E+00 0.  1.
         24    2    1    2    0    0 -0.23796961614E+03  0.60607264469E+02 -0.66936693994E+02  0.26801742910E+03  0.83964531712E+02 0.  0.
        254    2    1    2    0    0  0.23796961614E+03 -0.60607264469E+02 -0.86272371531E+03  0.12702876734E+04  0.89946416584E+03 0.  0.
         23    2    4    4    0    0  0.42281841067E+03  0.92863981923E+02 -0.83938775207E+02  0.45021715644E+03  0.90833047011E+02 0.  0.
         23    2    4    4    0    0 -0.18484879454E+03 -0.15347124639E+03 -0.77878494010E+03  0.82007051700E+03  0.91033892626E+02 0.  0.
          2    1    3    3  502    0 -0.96175787506E+02 -0.31562007623E+01  0.57390900212E+01  0.96398552167E+02  0.00000000000E+00 0. -1.
         -1    1    3    3    0  502 -0.14179382863E+03  0.63763465231E+02 -0.72675784016E+02  0.17161887693E+03  0.00000000000E+00 0.  1.
         11    1    5    5    0    0  0.23211674312E+03  0.95790242725E+02 -0.37160325866E+02  0.25384019157E+03  0.00000000000E+00 0. -1.
        -11    1    5    5    0    0  0.19070166755E+03 -0.29262608021E+01 -0.46778449341E+02  0.19637696487E+03  0.00000000000E+00 0.  1.
          1    1    6    6  503    0  0.18594519068E+01  0.53469687391E+01 -0.28470780131E+01  0.63366780969E+01  0.00000000000E+00 0. -1.
         -1    1    6    6    0  503 -0.18670824644E+03 -0.15881821513E+03 -0.77593786209E+03  0.81373383890E+03  0.00000000000E+00 0.  1.
<mgrwt>
<rscale>  0 0.12256077E+04</rscale>
<asrwt>0</asrwt>
<pdfrwt beam="1">  1        2 0.46818823E-01 0.12256077E+04</pdfrwt>
<pdfrwt beam="2">  1       -1 0.18984350E+00 0.12256077E+04</pdfrwt>
<totfact> 0.21604381E+01</totfact>
</mgrwt>
</event>
<event>
12    6  0.1402540E-007  0.1827719E+04  0.7818608E-02  0.8691696E-01
          2   -1    0    0  501    0  0.00000000000E+00  0.00000000000E+00  0.11716510036E+04  0.11716510036E+04  0.00000000000E+00 0. -1.
         -1   -1    0    0    0  501 -0.00000000000E+00 -0.00000000000E+00 -0.71278823300E+03  0.71278823300E+03  0.00000000000E+00 0.  1.
         24    2    1    2    0    0  0.30983661111E+03 -0.15739207914E+03  0.78623738892E+03  0.86141662814E+03  0.55663123832E+02 0.  0.
        254    2    1    2    0    0 -0.30983661111E+03  0.15739207914E+03 -0.32737461832E+03  0.10230226084E+04  0.90478181044E+03 0.  0.
         23    2    4    4    0    0  0.20659963564E+03  0.31156551886E+03  0.17001430271E+01  0.38504314068E+03  0.92189195214E+02 0.  0.
         23    2    4    4    0    0 -0.51643624674E+03 -0.15417343972E+03 -0.32907476135E+03  0.63797946776E+03  0.90839178024E+02 0.  0.
          4    1    3    3  502    0  0.36285641484E+02 -0.39462556620E+00  0.91693524325E+02  0.98612909451E+02  0.00000000000E+00 0. -1.
         -3    1    3    3    0  502  0.27355096962E+03 -0.15699745358E+03  0.69454386459E+03  0.76280371869E+03  0.00000000000E+00 0.  1.
         11    1    5    5    0    0  0.17727318269E+03  0.25792592896E+03  0.35849542913E+02  0.31501865954E+03  0.00000000000E+00 0. -1.
        -11    1    5    5    0    0  0.29326452945E+02  0.53639589899E+02 -0.34149399886E+02  0.70024481143E+02  0.00000000000E+00 0.  1.
          3    1    6    6  503    0 -0.32936693594E+03 -0.56667873290E+02 -0.22375898429E+03  0.40219635678E+03  0.00000000000E+00 0.  1.
         -3    1    6    6    0  503 -0.18706931080E+03 -0.97505566426E+02 -0.10531577706E+03  0.23578311098E+03  0.00000000000E+00 0. -1.
<mgrwt>
<rscale>  0 0.18277188E+04</rscale>
<asrwt>0</asrwt>
<pdfrwt beam="1">  1        2 0.18025400E+00 0.18277188E+04</pdfrwt>
<pdfrwt beam="2">  1       -1 0.10965973E+00 0.18277188E+04</pdfrwt>
<totfact> 0.16269329E+01</totfact>
</mgrwt>
</event>
<event>
12    6  0.1402540E-007  0.2450323E+04  0.7818608E-02  0.8420900E-01
         -1   -1    0    0    0  501 -0.00000000000E+00  0.00000000000E+00  0.57306205015E+03  0.57306205015E+03  0.00000000000E+00 0.  1.
          2   -1    0    0  501    0  0.00000000000E+00 -0.00000000000E+00 -0.26192989465E+04  0.26192989465E+04  0.00000000000E+00 0. -1.
         24    2    1    2    0    0 -0.62890283416E+03  0.85022140372E+03 -0.83807510385E+03  0.13518003649E+04  0.81235071096E+02 0.  0.
        254    2    1    2    0    0  0.62890283416E+03 -0.85022140372E+03 -0.12081617925E+04  0.18405606317E+04  0.89978514774E+03 0.  0.
         23    2    4    4    0    0 -0.10312522387E+03 -0.39791108051E+03 -0.75296798470E+03  0.86290547594E+03  0.93150601841E+02 0.  0.
         23    2    4    4    0    0  0.73202805804E+03 -0.45231032320E+03 -0.45519380781E+03  0.97765515581E+03  0.90324386401E+02 0.  0.
          4    1    3    3  502    0 -0.50391395733E+03  0.64754264576E+03 -0.61379188093E+03  0.10246859165E+04  0.00000000000E+00 0. -1.
         -3    1    3    3    0  502 -0.12498887683E+03  0.20267875795E+03 -0.22428322292E+03  0.32711444838E+03  0.00000000000E+00 0.  1.
         11    1    5    5    0    0 -0.29575419117E+02 -0.67051889401E+02 -0.21423150076E+03  0.22641951596E+03  0.00000000000E+00 0.  1.
        -11    1    5    5    0    0 -0.73549804757E+02 -0.33085919111E+03 -0.53873648394E+03  0.63648595998E+03  0.00000000000E+00 0. -1.
          1    1    6    6  503    0  0.38891825461E+03 -0.18815441748E+03 -0.21780597403E+03  0.48383771650E+03  0.00000000000E+00 0. -1.
         -1    1    6    6    0  503  0.34310980342E+03 -0.26415590572E+03 -0.23738783379E+03  0.49381743931E+03  0.00000000000E+00 0.  1.
<mgrwt>
<rscale>  0 0.24503231E+04</rscale>
<asrwt>0</asrwt>
<pdfrwt beam="1">  1        2 0.40296907E+00 0.24503231E+04</pdfrwt>
<pdfrwt beam="2">  1       -1 0.88163392E-01 0.24503231E+04</pdfrwt>
<totfact> 0.38168908E+00</totfact>
</mgrwt>
</event>
<event>
12    6  0.1402540E-007  0.2789670E+04  0.7818608E-02  0.8306483E-01
         -1   -1    0    0    0  501 -0.00000000000E+00  0.00000000000E+00  0.92616551889E+03  0.92616551889E+03  0.00000000000E+00 0.  1.
          2   -1    0    0  501    0  0.00000000000E+00 -0.00000000000E+00 -0.21006663752E+04  0.21006663752E+04  0.00000000000E+00 0. -1.
         24    2    1    2    0    0 -0.32027077787E+03 -0.66550215795E+03  0.56541291326E+03  0.93341588995E+03  0.78147090418E+02 0.  0.
        254    2    1    2    0    0  0.32027077787E+03  0.66550215795E+03 -0.17399137695E+04  0.20934160041E+04  0.89979116884E+03 0.  0.
         23    2    4    4    0    0 -0.13546640020E+03 -0.60501454945E+02 -0.26727412407E+02  0.17556402978E+03  0.89982233498E+02 0.  0.
         23    2    4    4    0    0  0.45573717806E+03  0.72600361289E+03 -0.17131863571E+04  0.19178519744E+04  0.91493605536E+02 0.  0.
          2    1    3    3  502    0 -0.98132778006E+02 -0.15501466457E+03  0.10809072757E+03  0.21293941330E+03  0.00000000000E+00 0. -1.
         -1    1    3    3    0  502 -0.22213799986E+03 -0.51048749337E+03  0.45732218569E+03  0.72047647664E+03  0.00000000000E+00 0.  1.
         11    1    5    5    0    0 -0.27874140334E+02 -0.59417458339E+02 -0.52219637715E+01  0.65838218084E+02  0.00000000000E+00 0. -1.
        -11    1    5    5    0    0 -0.10759225986E+03 -0.10839966061E+01 -0.21505448636E+02  0.10972581169E+03  0.00000000000E+00 0.  1.
          1    1    6    6  503    0  0.61070671254E+02  0.91153097770E+02 -0.15829168144E+03  0.19260002735E+03  0.00000000000E+00 0. -1.
         -1    1    6    6    0  503  0.39466650681E+03  0.63485051512E+03 -0.15548946757E+04  0.17252519470E+04  0.00000000000E+00 0.  1.
<mgrwt>
<rscale>  0 0.27896701E+04</rscale>
<asrwt>0</asrwt>
<pdfrwt beam="1">  1        2 0.32317944E+00 0.27896701E+04</pdfrwt>
<pdfrwt beam="2">  1       -1 0.14248701E+00 0.27896701E+04</pdfrwt>
<totfact> 0.23272334E+00</totfact>
</mgrwt>
</event>
<event>
12    6  0.1402540E-007  0.1390098E+04  0.7818608E-02  0.8961017E-01
         -1   -1    0    0    0  501 -0.00000000000E+00  0.00000000000E+00  0.63528844628E+03  0.63528844628E+03  0.00000000000E+00 0.  1.
          2   -1    0    0  501    0  0.00000000000E+00 -0.00000000000E+00 -0.76043165025E+03  0.76043165025E+03  0.00000000000E+00 0. -1.
         24    2    1    2    0    0  0.11490299667E+03  0.19822018831E+03  0.28985278414E+03  0.37795117342E+03  0.79614768182E+02 0.  0.
        254    2    1    2    0    0 -0.11490299667E+03 -0.19822018831E+03 -0.41499598812E+03  0.10177689231E+04  0.90063198311E+03 0.  0.
         23    2    4    4    0    0 -0.65792016914E+02 -0.52160429692E+03 -0.78758844493E+02  0.53949583001E+03  0.91941084123E+02 0.  0.
         23    2    4    4    0    0 -0.49110979757E+02  0.32338410861E+03 -0.33623714363E+03  0.47827309311E+03  0.93276818125E+02 0.  0.
          4    1    3    3  502    0  0.15384020738E+02  0.43252395133E+02  0.17407596359E+02  0.49096458017E+02  0.00000000000E+00 0. -1.
         -3    1    3    3    0  502  0.99518975933E+02  0.15496779318E+03  0.27244518778E+03  0.32885471540E+03  0.00000000000E+00 0.  1.
         11    1    5    5    0    0  0.27868965979E+00 -0.99780510414E+02 -0.49879319321E+02  0.11155345993E+03  0.00000000000E+00 0. -1.
        -11    1    5    5    0    0 -0.66070706574E+02 -0.42182378651E+03 -0.28879525171E+02  0.42794237008E+03  0.00000000000E+00 0.  1.
          4    1    6    6  503    0  0.20127581483E+02  0.17284599805E+03 -0.16034224505E+03  0.23662310564E+03  0.00000000000E+00 0. -1.
         -4    1    6    6    0  503 -0.69238561239E+02  0.15053811057E+03 -0.17589489858E+03  0.24164998746E+03  0.00000000000E+00 0.  1.
<mgrwt>
<rscale>  0 0.13900985E+04</rscale>
<asrwt>0</asrwt>
<pdfrwt beam="1">  1        2 0.11698948E+00 0.13900985E+04</pdfrwt>
<pdfrwt beam="2">  1       -1 0.97736684E-01 0.13900985E+04</pdfrwt>
<totfact> 0.41153881E+01</totfact>
</mgrwt>
</event>
<event>
12    6  0.1402540E-007  0.2275260E+04  0.7818608E-02  0.8487740E-01
         -1   -1    0    0    0  501 -0.00000000000E+00  0.00000000000E+00  0.43471224113E+03  0.43471224113E+03  0.00000000000E+00 0.  1.
          2   -1    0    0  501    0  0.00000000000E+00 -0.00000000000E+00 -0.29771468583E+04  0.29771468583E+04  0.00000000000E+00 0. -1.
         24    2    1    2    0    0 -0.58138563120E+03  0.74796222576E+03 -0.12832771829E+04  0.15972502547E+04  0.83374485004E+02 0.  0.
        254    2    1    2    0    0  0.58138563120E+03 -0.74796222576E+03 -0.12591574343E+04  0.18146088448E+04  0.89992837031E+03 0.  0.
         23    2    4    4    0    0 -0.16687137792E+03  0.27452133858E+02 -0.64999460191E+02  0.20351126044E+03  0.92694265613E+02 0.  0.
         23    2    4    4    0    0  0.74825700912E+03 -0.77541435962E+03 -0.11941579741E+04  0.16110975843E+04  0.92011837217E+02 0.  0.
          4    1    3    3  502    0 -0.29144566138E+03  0.36583854885E+03 -0.70299520313E+03  0.84438182891E+03  0.00000000000E+00 0. -1.
         -3    1    3    3    0  502 -0.28993996982E+03  0.38212367691E+03 -0.58028197974E+03  0.75286842580E+03  0.00000000000E+00 0.  1.
         11    1    5    5    0    0 -0.16117223874E+03  0.50653012705E+02 -0.56052023189E+02  0.17800013354E+03  0.00000000000E+00 0.  1.
        -11    1    5    5    0    0 -0.56991391783E+01 -0.23200878847E+02 -0.89474370015E+01  0.25511126897E+02  0.00000000000E+00 0. -1.
          4    1    6    6  503    0  0.12734897011E+03 -0.11301842543E+03 -0.23718441942E+03  0.29197152856E+03  0.00000000000E+00 0. -1.
         -4    1    6    6    0  503  0.62090803901E+03 -0.66239593419E+03 -0.95697355472E+03  0.13191260558E+04  0.00000000000E+00 0.  1.
<mgrwt>
<rscale>  0 0.22752601E+04</rscale>
<asrwt>0</asrwt>
<pdfrwt beam="1">  1        2 0.45802257E+00 0.22752601E+04</pdfrwt>
<pdfrwt beam="2">  1       -1 0.66878809E-01 0.22752601E+04</pdfrwt>
<totfact> 0.42161255E+00</totfact>
</mgrwt>
</event>
<event>
12    6  0.1402540E-007  0.1825541E+04  0.7818608E-02  0.8692834E-01
         -1   -1    0    0    0  501 -0.00000000000E+00  0.00000000000E+00  0.95176411452E+03  0.95176411452E+03  0.00000000000E+00 0.  1.
          2   -1    0    0  501    0  0.00000000000E+00 -0.00000000000E+00 -0.87537409982E+03  0.87537409982E+03  0.00000000000E+00 0. -1.
         24    2    1    2    0    0  0.15015220317E+03  0.65847932305E+03 -0.55195000119E+02  0.68236189742E+03  0.80190822517E+02 0.  0.
        254    2    1    2    0    0 -0.15015220317E+03 -0.65847932305E+03  0.13158501482E+03  0.11447763169E+04  0.91490846354E+03 0.  0.
         23    2    4    4    0    0 -0.44047747721E+03 -0.21071581150E+03 -0.17006503095E+03  0.52493959706E+03  0.90652659481E+02 0.  0.
         23    2    4    4    0    0  0.29032527404E+03 -0.44776351155E+03  0.30165004577E+03  0.61983671985E+03  0.91781709221E+02 0.  0.
          2    1    3    3  502    0  0.82403150451E+02  0.30866687969E+03 -0.64521647707E+02  0.32592723858E+03  0.00000000000E+00 0. -1.
         -1    1    3    3    0  502  0.67749052722E+02  0.34981244335E+03  0.93266475887E+01  0.35643465884E+03  0.00000000000E+00 0.  1.
         11    1    5    5    0    0 -0.43960228646E+03 -0.21649455027E+03 -0.17104194199E+03  0.51901387889E+03  0.00000000000E+00 0. -1.
        -11    1    5    5    0    0 -0.87519075041E+00  0.57787387781E+01  0.97691104235E+00  0.59257181759E+01  0.00000000000E+00 0.  1.
          2    1    6    6  503    0  0.26142920954E+03 -0.43242638101E+03  0.29869523942E+03  0.58698948257E+03  0.00000000000E+00 0. -1.
         -2    1    6    6    0  503  0.28896064498E+02 -0.15337130539E+02  0.29548063451E+01  0.32847237283E+02  0.00000000000E+00 0.  1.
<mgrwt>
<rscale>  0 0.18255406E+04</rscale>
<asrwt>0</asrwt>
<pdfrwt beam="1">  1        2 0.13467294E+00 0.18255406E+04</pdfrwt>
<pdfrwt beam="2">  1       -1 0.14642525E+00 0.18255406E+04</pdfrwt>
<totfact> 0.12199811E+01</totfact>
</mgrwt>
</event>
<event>
12    6  0.1402540E-007  0.2805454E+04  0.7818608E-02  0.8301577E-01
          2   -1    0    0  501    0  0.00000000000E+00  0.00000000000E+00  0.23521055400E+04  0.23521055400E+04  0.00000000000E+00 0. -1.
         -1   -1    0    0    0  501 -0.00000000000E+00 -0.00000000000E+00 -0.83654543155E+03  0.83654543155E+03  0.00000000000E+00 0.  1.
         24    2    1    2    0    0 -0.76024480373E+03 -0.91647602422E+03  0.11388250155E+04  0.16496129254E+04  0.79999520855E+02 0.  0.
        254    2    1    2    0    0  0.76024480373E+03  0.91647602422E+03  0.37673509295E+03  0.15390380461E+04  0.89933770770E+03 0.  0.
         23    2    4    4    0    0  0.65524032675E+03  0.10628167779E+04  0.19243778013E+03  0.12666653100E+04  0.92137501094E+02 0.  0.
         23    2    4    4    0    0  0.10500447699E+03 -0.14634075365E+03  0.18429731282E+03  0.27237273614E+03  0.88203466564E+02 0.  0.
          4    1    3    3  502    0 -0.13288448639E+03 -0.18323177408E+03  0.25596181994E+03  0.34168497629E+03  0.00000000000E+00 0. -1.
         -1    1    3    3    0  502 -0.62736031734E+03 -0.73324425014E+03  0.88286319555E+03  0.13079279492E+04  0.00000000000E+00 0.  1.
         11    1    5    5    0    0  0.63621047538E+03  0.10173964181E+04  0.20106315865E+03  0.12166698954E+04  0.00000000000E+00 0.  1.
        -11    1    5    5    0    0  0.19029851364E+02  0.45420359744E+02 -0.86253785194E+01  0.49995414558E+02  0.00000000000E+00 0. -1.
          2    1    6    6  503    0  0.60820741942E+02 -0.63661400201E+02  0.32282987629E+02  0.93777011128E+02  0.00000000000E+00 0. -1.
         -2    1    6    6    0  503  0.44183735044E+02 -0.82679353448E+02  0.15201432519E+03  0.17859572501E+03  0.00000000000E+00 0.  1.
<mgrwt>
<rscale>  0 0.28054541E+04</rscale>
<asrwt>0</asrwt>
<pdfrwt beam="1">  1        2 0.36186239E+00 0.28054541E+04</pdfrwt>
<pdfrwt beam="2">  1       -1 0.12869930E+00 0.28054541E+04</pdfrwt>
<totfact> 0.21779231E+00</totfact>
</mgrwt>
</event>
<event>
12    6  0.1402540E-007  0.1696772E+04  0.7818608E-02  0.8763207E-01
         -1   -1    0    0    0  501 -0.00000000000E+00  0.00000000000E+00  0.65105537563E+03  0.65105537563E+03  0.00000000000E+00 0.  1.
          2   -1    0    0  501    0  0.00000000000E+00 -0.00000000000E+00 -0.11055266917E+04  0.11055266917E+04  0.00000000000E+00 0. -1.
         24    2    1    2    0    0 -0.37831955831E+03 -0.41016966542E+03 -0.41001111741E+03  0.69734874805E+03  0.82591266957E+02 0.  0.
        254    2    1    2    0    0  0.37831955831E+03  0.41016966542E+03 -0.44460198632E+02  0.10592333193E+04  0.89924060891E+03 0.  0.
         23    2    4    4    0    0 -0.20056266417E+02 -0.18085936466E+03  0.21475589428E+03  0.29524436922E+03  0.89088606568E+02 0.  0.
         23    2    4    4    0    0  0.39837582473E+03  0.59102903008E+03 -0.25921609291E+03  0.76398895003E+03  0.92019132935E+02 0.  0.
          4    1    3    3  502    0 -0.19368054392E+03 -0.18450284419E+03 -0.24264863264E+03  0.36115344596E+03  0.00000000000E+00 0. -1.
         -3    1    3    3    0  502 -0.18463901439E+03 -0.22566682123E+03 -0.16736248477E+03  0.33619530209E+03  0.00000000000E+00 0.  1.
         11    1    5    5    0    0  0.26614305920E+02 -0.71447254031E+02  0.12424811693E+03  0.14577594434E+03  0.00000000000E+00 0.  1.
        -11    1    5    5    0    0 -0.46670572337E+02 -0.10941211063E+03  0.90507777347E+02  0.14946842488E+03  0.00000000000E+00 0. -1.
          4    1    6    6  503    0  0.29433504577E+03  0.37442094225E+03 -0.14440731014E+03  0.49767221379E+03  0.00000000000E+00 0. -1.
         -4    1    6    6    0  503  0.10404077896E+03  0.21660808783E+03 -0.11480878277E+03  0.26631673624E+03  0.00000000000E+00 0.  1.
<mgrwt>
<rscale>  0 0.16967723E+04</rscale>
<asrwt>0</asrwt>
<pdfrwt beam="1">  1        2 0.17008103E+00 0.16967723E+04</pdfrwt>
<pdfrwt beam="2">  1       -1 0.10016237E+00 0.16967723E+04</pdfrwt>
<totfact> 0.22286050E+01</totfact>
</mgrwt>
</event>
<event>
12    6  0.1402540E-007  0.3372470E+04  0.7818608E-02  0.8144696E-01
          2   -1    0    0  501    0  0.00000000000E+00  0.00000000000E+00  0.18118858386E+04  0.18118858386E+04  0.00000000000E+00 0. -1.
         -1   -1    0    0    0  501 -0.00000000000E+00 -0.00000000000E+00 -0.15692976677E+04  0.15692976677E+04  0.00000000000E+00 0.  1.
         24    2    1    2    0    0  0.95893558138E+02  0.15349198071E+04  0.40291993696E+03  0.15918181670E+04  0.79788547985E+02 0.  0.
        254    2    1    2    0    0 -0.95893558138E+02 -0.15349198071E+04 -0.16033176604E+03  0.17893653393E+04  0.90052632035E+03 0.  0.
         23    2    4    4    0    0 -0.16448490589E+03 -0.88232871157E+02 -0.26265685506E+03  0.33470631520E+03  0.90550373299E+02 0.  0.
         23    2    4    4    0    0  0.68591347756E+02 -0.14466869360E+04  0.10232508902E+03  0.14546590241E+04  0.89188502540E+02 0.  0.
          4    1    3    3  502    0  0.92915819109E+02  0.10985174387E+04  0.26106146149E+03  0.11329285058E+04  0.00000000000E+00 0. -1.
         -3    1    3    3    0  502  0.29777390288E+01  0.43640236846E+03  0.14185847547E+03  0.45888966124E+03  0.00000000000E+00 0.  1.
         11    1    5    5    0    0 -0.83804572910E+02 -0.13083876469E+02 -0.59663832723E+02  0.10370230084E+03  0.00000000000E+00 0.  1.
        -11    1    5    5    0    0 -0.80680332985E+02 -0.75148994689E+02 -0.20299302234E+03  0.23100401436E+03  0.00000000000E+00 0. -1.
          3    1    6    6  503    0  0.58401156378E+02 -0.14049601507E+04  0.86317960531E+02  0.14088202548E+04  0.00000000000E+00 0. -1.
         -3    1    6    6    0  503  0.10190191379E+02 -0.41726785279E+02  0.16007128492E+02  0.45838769318E+02  0.00000000000E+00 0.  1.
<mgrwt>
<rscale>  0 0.33724698E+04</rscale>
<asrwt>0</asrwt>
<pdfrwt beam="1">  1        2 0.27875167E+00 0.33724698E+04</pdfrwt>
<pdfrwt beam="2">  1       -1 0.24143041E+00 0.33724698E+04</pdfrwt>
<totfact> 0.63703696E-01</totfact>
</mgrwt>
</event>
<event>
12    6  0.1402540E-007  0.2114750E+04  0.7818608E-02  0.8554774E-01
          2   -1    0    0  501    0  0.00000000000E+00  0.00000000000E+00  0.24942349586E+04  0.24942349586E+04  0.00000000000E+00 0. -1.
         -1   -1    0    0    0  501 -0.00000000000E+00 -0.00000000000E+00 -0.44825040498E+03  0.44825040498E+03  0.00000000000E+00 0.  1.
         24    2    1    2    0    0  0.75522707601E+03  0.40158974411E+03  0.66767995419E+03  0.10880347800E+04  0.79880550846E+02 0.  0.
        254    2    1    2    0    0 -0.75522707601E+03 -0.40158974411E+03  0.13783045994E+04  0.18544505835E+04  0.89867743883E+03 0.  0.
         23    2    4    4    0    0 -0.56234033074E+03 -0.63837063359E+03  0.70124452978E+03  0.11061267221E+04  0.89603132198E+02 0.  0.
         23    2    4    4    0    0 -0.19288674527E+03  0.23678088948E+03  0.67706006961E+03  0.74832386145E+03  0.91147011096E+02 0.  0.
          2    1    3    3  502    0  0.12326663311E+03  0.89451256321E+02  0.14755843202E+03  0.21206055964E+03  0.00000000000E+00 0. -1.
         -1    1    3    3    0  502  0.63196044290E+03  0.31213848779E+03  0.52012152217E+03  0.87597422039E+03  0.00000000000E+00 0.  1.
         11    1    5    5    0    0 -0.12797067080E+03 -0.93469092734E+02  0.12278673328E+03  0.20047330433E+03  0.00000000000E+00 0. -1.
        -11    1    5    5    0    0 -0.43436965994E+03 -0.54490154086E+03  0.57845779650E+03  0.90565341773E+03  0.00000000000E+00 0.  1.
          1    1    6    6  503    0 -0.26202656449E+02  0.72112526165E+02  0.24616199560E+03  0.25784205187E+03  0.00000000000E+00 0. -1.
         -1    1    6    6    0  503 -0.16668408883E+03  0.16466836331E+03  0.43089807401E+03  0.49048180958E+03  0.00000000000E+00 0.  1.
<mgrwt>
<rscale>  0 0.21147499E+04</rscale>
<asrwt>0</asrwt>
<pdfrwt beam="1">  1        2 0.38372845E+00 0.21147499E+04</pdfrwt>
<pdfrwt beam="2">  1       -1 0.68961602E-01 0.21147499E+04</pdfrwt>
<totfact> 0.78206498E+00</totfact>
</mgrwt>
</event>
<event>
12    6  0.1402540E-007  0.1916749E+04  0.7818608E-02  0.8646564E-01
         -1   -1    0    0    0  501 -0.00000000000E+00  0.00000000000E+00  0.54746630696E+03  0.54746630696E+03  0.00000000000E+00 0.  1.
          2   -1    0    0  501    0  0.00000000000E+00 -0.00000000000E+00 -0.16776961612E+04  0.16776961612E+04  0.00000000000E+00 0. -1.
         24    2    1    2    0    0  0.47124536140E+03  0.28647864014E+03 -0.10211645260E+04  0.11633785441E+04  0.80811174043E+02 0.  0.
        254    2    1    2    0    0 -0.47124536140E+03 -0.28647864014E+03 -0.10906532821E+03  0.10617839240E+04  0.90074838526E+03 0.  0.
         23    2    4    4    0    0 -0.42055380951E+03 -0.51783746939E+03 -0.30688602631E+03  0.73996309576E+03  0.91352058244E+02 0.  0.
         23    2    4    4    0    0 -0.50691551892E+02  0.23135882925E+03  0.19782069810E+03  0.32182082824E+03  0.91318539137E+02 0.  0.
          4    1    3    3  502    0  0.26641051130E+03  0.13859504377E+03 -0.62686577702E+03  0.69508549768E+03  0.00000000000E+00 0. -1.
         -3    1    3    3    0  502  0.20483485010E+03  0.14788359638E+03 -0.39429874900E+03  0.46829304645E+03  0.00000000000E+00 0.  1.
         11    1    5    5    0    0 -0.16803766899E+03 -0.18668504551E+03 -0.16269629595E+03  0.29926250873E+03  0.00000000000E+00 0. -1.
        -11    1    5    5    0    0 -0.25251614051E+03 -0.33115242389E+03 -0.14418973035E+03  0.44070058703E+03  0.00000000000E+00 0.  1.
          1    1    6    6  503    0  0.24788640785E+02  0.43872460294E+02  0.53346226281E+02  0.73383167979E+02  0.00000000000E+00 0. -1.
         -1    1    6    6    0  503 -0.75480192677E+02  0.18748636895E+03  0.14447447182E+03  0.24843766026E+03  0.00000000000E+00 0.  1.
<mgrwt>
<rscale>  0 0.19167495E+04</rscale>
<asrwt>0</asrwt>
<pdfrwt beam="1">  1        2 0.25810710E+00 0.19167495E+04</pdfrwt>
<pdfrwt beam="2">  1       -1 0.84225585E-01 0.19167495E+04</pdfrwt>
<totfact> 0.15013852E+01</totfact>
</mgrwt>
</event>
<event>
12    6  0.1402540E-007  0.2037307E+04  0.7818608E-02  0.8589374E-01
         -1   -1    0    0    0  501 -0.00000000000E+00  0.00000000000E+00  0.48316350662E+03  0.48316350662E+03  0.00000000000E+00 0.  1.
          2   -1    0    0  501    0  0.00000000000E+00 -0.00000000000E+00 -0.21476272297E+04  0.21476272297E+04  0.00000000000E+00 0. -1.
         24    2    1    2    0    0  0.32428846555E+03  0.63731746826E+03 -0.11835879862E+04  0.13852356203E+04  0.81612735015E+02 0.  0.
        254    2    1    2    0    0 -0.32428846555E+03 -0.63731746826E+03 -0.48087573692E+03  0.12455551160E+04  0.89934949182E+03 0.  0.
         23    2    4    4    0    0  0.21780741626E+02 -0.48497279307E+03  0.13999790332E+03  0.51367726890E+03  0.92692572114E+02 0.  0.
         23    2    4    4    0    0 -0.34606920718E+03 -0.15234467519E+03 -0.62087364025E+03  0.73187784712E+03  0.84783900212E+02 0.  0.
          4    1    3    3  502    0  0.23500665282E+03  0.51813234598E+03 -0.97673754545E+03  0.11303563542E+04  0.00000000000E+00 0. -1.
         -3    1    3    3    0  502  0.89281812733E+02  0.11918512228E+03 -0.20685044075E+03  0.25487926612E+03  0.00000000000E+00 0.  1.
         11    1    5    5    0    0  0.23536089301E+02 -0.26158925066E+02  0.60283003870E+01  0.35701222189E+02  0.00000000000E+00 0. -1.
        -11    1    5    5    0    0 -0.17553476750E+01 -0.45881386800E+03  0.13396960294E+03  0.47797604671E+03  0.00000000000E+00 0.  1.
          4    1    6    6  503    0 -0.18759193289E+02 -0.34828516532E+02 -0.56881535398E+02  0.69285221843E+02  0.00000000000E+00 0. -1.
         -4    1    6    6    0  503 -0.32731001389E+03 -0.11751615866E+03 -0.56399210485E+03  0.66259262528E+03  0.00000000000E+00 0.  1.
<mgrwt>
<rscale>  0 0.20373071E+04</rscale>
<asrwt>0</asrwt>
<pdfrwt beam="1">  1        2 0.33040419E+00 0.20373071E+04</pdfrwt>
<pdfrwt beam="2">  1       -1 0.74332848E-01 0.20373071E+04</pdfrwt>
<totfact> 0.10614141E+01</totfact>
</mgrwt>
</event>
<event>
12    6  0.1402540E-007  0.1544316E+04  0.7818608E-02  0.8855506E-01
          2   -1    0    0  501    0  0.00000000000E+00  0.00000000000E+00  0.10985337268E+04  0.10985337268E+04  0.00000000000E+00 0. -1.
         -3   -1    0    0    0  501 -0.00000000000E+00 -0.00000000000E+00 -0.54274919228E+03  0.54274919228E+03  0.00000000000E+00 0.  1.
         24    2    1    2    0    0 -0.23190131736E+03  0.43125717055E+03  0.52545443299E+02  0.49872250337E+03  0.78753689518E+02 0.  0.
        254    2    1    2    0    0  0.23190131736E+03 -0.43125717055E+03  0.50323909122E+03  0.11425604157E+04  0.90135107061E+03 0.  0.
         23    2    4    4    0    0  0.25396649997E+03  0.22590652093E+03  0.25304425997E+03  0.43336776414E+03  0.90793624113E+02 0.  0.
         23    2    4    4    0    0 -0.22065182612E+02 -0.65716369148E+03  0.25019483126E+03  0.70919265158E+03  0.89474989718E+02 0.  0.
          2    1    3    3  502    0 -0.20390403519E+03  0.31163645993E+03  0.50727954029E+02  0.37585564256E+03  0.00000000000E+00 0. -1.
         -1    1    3    3    0  502 -0.27997282173E+02  0.11962071063E+03  0.18174892704E+01  0.12286686082E+03  0.00000000000E+00 0.  1.
         11    1    5    5    0    0  0.69484280882E+02  0.26945518970E+02  0.89878131463E+02  0.11675703318E+03  0.00000000000E+00 0. -1.
        -11    1    5    5    0    0  0.18448221909E+03  0.19896100196E+03  0.16316612851E+03  0.31661073095E+03  0.00000000000E+00 0.  1.
          4    1    6    6  503    0 -0.57102351105E+02 -0.40830464737E+03  0.15631940076E+03  0.44091849431E+03  0.00000000000E+00 0. -1.
         -4    1    6    6    0  503  0.35037168493E+02 -0.24885904411E+03  0.93875430497E+02  0.26827415728E+03  0.00000000000E+00 0.  1.
<mgrwt>
<rscale>  0 0.15443164E+04</rscale>
<asrwt>0</asrwt>
<pdfrwt beam="1">  1        2 0.16900519E+00 0.15443164E+04</pdfrwt>
<pdfrwt beam="2">  1       -3 0.83499876E-01 0.15443164E+04</pdfrwt>
<totfact> 0.17650895E+01</totfact>
</mgrwt>
</event>
<event>
12    6  0.1402540E-007  0.4414759E+04  0.7818608E-02  0.7925732E-01
         -1   -1    0    0    0  501 -0.00000000000E+00  0.00000000000E+00  0.17007483413E+04  0.17007483413E+04  0.00000000000E+00 0.  1.
          2   -1    0    0  501    0  0.00000000000E+00 -0.00000000000E+00 -0.28649289940E+04  0.28649289940E+04  0.00000000000E+00 0. -1.
         24    2    1    2    0    0 -0.20084072950E+04  0.13862607434E+03 -0.12279916721E+04  0.23594851709E+04  0.79307465301E+02 0.  0.
        254    2    1    2    0    0  0.20084072950E+04 -0.13862607434E+03  0.63811019361E+02  0.22061921644E+04  0.90016385672E+03 0.  0.
         23    2    4    4    0    0  0.18824969224E+04 -0.81642709459E+02 -0.19727073544E+03  0.18968757382E+04  0.93603568439E+02 0.  0.
         23    2    4    4    0    0  0.12591037253E+03 -0.56983364883E+02  0.26108175480E+03  0.30931642619E+03  0.91719371107E+02 0.  0.
          4    1    3    3  502    0 -0.10659078155E+04  0.76017125344E+02 -0.69802999467E+03  0.12763949028E+04  0.00000000000E+00 0. -1.
         -3    1    3    3    0  502 -0.94249947950E+03  0.62608948997E+02 -0.52996167742E+03  0.10830902681E+04  0.00000000000E+00 0.  1.
         11    1    5    5    0    0  0.80878739367E+03 -0.49897501170E+01 -0.49207536013E+02  0.81029829530E+03  0.00000000000E+00 0. -1.
        -11    1    5    5    0    0  0.10737095288E+04 -0.76652959342E+02 -0.14806319943E+03  0.10865774429E+04  0.00000000000E+00 0.  1.
          2    1    6    6  503    0  0.40696904006E+02 -0.63434100892E+02  0.85052233662E+02  0.11363980642E+03  0.00000000000E+00 0. -1.
         -2    1    6    6    0  503  0.85213468519E+02  0.64507360091E+01  0.17602952114E+03  0.19567661977E+03  0.00000000000E+00 0.  1.
<mgrwt>
<rscale>  0 0.44147585E+04</rscale>
<asrwt>0</asrwt>
<pdfrwt beam="1">  1        2 0.44075830E+00 0.44147585E+04</pdfrwt>
<pdfrwt beam="2">  1       -1 0.26165359E+00 0.44147585E+04</pdfrwt>
<totfact> 0.10709464E-01</totfact>
</mgrwt>
</event>
<event>
12    6  0.1402540E-007  0.1483260E+04  0.7818608E-02  0.8895662E-01
          2   -1    0    0  501    0  0.00000000000E+00  0.00000000000E+00  0.31459763303E+03  0.31459763303E+03  0.00000000000E+00 0. -1.
         -1   -1    0    0    0  501 -0.00000000000E+00 -0.00000000000E+00 -0.17483128677E+04  0.17483128677E+04  0.00000000000E+00 0.  1.
         24    2    1    2    0    0  0.21964611700E+02 -0.37484905090E+03 -0.76672357847E+02  0.39207833409E+03  0.82779915903E+02 0.  0.
        254    2    1    2    0    0 -0.21964611700E+02  0.37484905090E+03 -0.13570428768E+04  0.16708321666E+04  0.89951125862E+03 0.  0.
         23    2    4    4    0    0 -0.25168376392E+03  0.22983858055E+03 -0.79616365936E+02  0.36167238627E+03  0.91091487699E+02 0.  0.
         23    2    4    4    0    0  0.22971915222E+03  0.14501047035E+03 -0.12774265109E+04  0.13091597803E+04  0.91005024024E+02 0.  0.
          4    1    3    3  502    0  0.87462805435E+01 -0.36088313252E+03 -0.58648084386E+02  0.36572220409E+03  0.00000000000E+00 0. -1.
         -3    1    3    3    0  502  0.13218331157E+02 -0.13965918376E+02 -0.18024273461E+02  0.26356129998E+02  0.00000000000E+00 0.  1.
         11    1    5    5    0    0 -0.40602119793E+02  0.28564169078E+01 -0.22449089301E+02  0.46482823276E+02  0.00000000000E+00 0.  1.
        -11    1    5    5    0    0 -0.21108164413E+03  0.22698216365E+03 -0.57167276635E+02  0.31518956299E+03  0.00000000000E+00 0. -1.
          3    1    6    6  503    0  0.18832051200E+03  0.12811714770E+03 -0.11824185165E+04  0.12041562054E+04  0.00000000000E+00 0. -1.
         -3    1    6    6    0  503  0.41398640227E+02  0.16893322647E+02 -0.95007994322E+02  0.10500357493E+03  0.00000000000E+00 0.  1.
<mgrwt>
<rscale>  0 0.14832600E+04</rscale>
<asrwt>0</asrwt>
<pdfrwt beam="1">  1        2 0.48399637E-01 0.14832600E+04</pdfrwt>
<pdfrwt beam="2">  1       -1 0.26897120E+00 0.14832600E+04</pdfrwt>
<totfact> 0.60590228E+00</totfact>
</mgrwt>
</event>
<event>
12    6  0.1402540E-007  0.1244770E+04  0.7818608E-02  0.9074547E-01
         -1   -1    0    0    0  501 -0.00000000000E+00  0.00000000000E+00  0.10478261160E+04  0.10478261160E+04  0.00000000000E+00 0.  1.
          2   -1    0    0  501    0  0.00000000000E+00 -0.00000000000E+00 -0.36968257152E+03  0.36968257152E+03  0.00000000000E+00 0. -1.
         24    2    1    2    0    0  0.22405318037E+03 -0.69717729617E+02 -0.28173615409E+02  0.24968722994E+03  0.80557871960E+02 0.  0.
        254    2    1    2    0    0 -0.22405318037E+03  0.69717729617E+02  0.70631715993E+03  0.11678214576E+04  0.89992368399E+03 0.  0.
         23    2    4    4    0    0  0.21706269998E+03 -0.17010776985E+03 -0.69009909716E+01  0.29099836784E+03  0.92625899841E+02 0.  0.
         23    2    4    4    0    0 -0.44111588035E+03  0.23982549947E+03  0.71321815090E+03  0.87682308978E+03  0.89661083490E+02 0.  0.
          4    1    3    3  502    0  0.17450220352E+03 -0.81375571182E+02 -0.22368539295E+01  0.19255650115E+03  0.00000000000E+00 0. -1.
         -3    1    3    3    0  502  0.49550976849E+02  0.11657841565E+02 -0.25936761480E+02  0.57130728796E+02  0.00000000000E+00 0.  1.
         11    1    5    5    0    0  0.31430590098E+02 -0.73172600678E+02  0.12786920206E+02  0.80657403952E+02  0.00000000000E+00 0.  1.
        -11    1    5    5    0    0  0.18563210988E+03 -0.96935169176E+02 -0.19687911178E+02  0.21034096389E+03  0.00000000000E+00 0. -1.
          4    1    6    6  503    0 -0.19988264917E+03  0.12182808510E+03  0.40714520829E+03  0.46964068860E+03  0.00000000000E+00 0. -1.
         -4    1    6    6    0  503 -0.24123323119E+03  0.11799741437E+03  0.30607294261E+03  0.40718240117E+03  0.00000000000E+00 0.  1.
<mgrwt>
<rscale>  0 0.12447699E+04</rscale>
<asrwt>0</asrwt>
<pdfrwt beam="1">  1        2 0.56874242E-01 0.12447699E+04</pdfrwt>
<pdfrwt beam="2">  1       -1 0.16120402E+00 0.12447699E+04</pdfrwt>
<totfact> 0.28010643E+01</totfact>
</mgrwt>
</event>
<event>
12    6  0.1402540E-007  0.4039464E+04  0.7818608E-02  0.7996632E-01
          2   -1    0    0  501    0  0.00000000000E+00  0.00000000000E+00  0.45573249733E+04  0.45573249733E+04  0.00000000000E+00 0. -1.
         -1   -1    0    0    0  501 -0.00000000000E+00 -0.00000000000E+00 -0.89511231677E+03  0.89511231677E+03  0.00000000000E+00 0.  1.
         24    2    1    2    0    0 -0.14057295764E+04 -0.12242537375E+04  0.11268444100E+04  0.21797466764E+04  0.81513147486E+02 0.  0.
        254    2    1    2    0    0  0.14057295764E+04  0.12242537375E+04  0.25353682465E+04  0.32726906136E+04  0.89863165492E+03 0.  0.
         23    2    4    4    0    0  0.53358968887E+03  0.98283420938E+03  0.10861053299E+04  0.15615184327E+04  0.89632520165E+02 0.  0.
         23    2    4    4    0    0  0.87213988756E+03  0.24141952812E+03  0.14492629166E+04  0.17111721810E+04  0.93999252365E+02 0.  0.
          2    1    3    3  502    0 -0.20940495277E+03 -0.22137431266E+03  0.17654096076E+03  0.35217003191E+03  0.00000000000E+00 0. -1.
         -1    1    3    3    0  502 -0.11963246237E+04 -0.10028794248E+04  0.95030344925E+03  0.18275766445E+04  0.00000000000E+00 0.  1.
         11    1    5    5    0    0  0.46088468940E+03  0.87737973149E+03  0.92468820613E+03  0.13554549674E+04  0.00000000000E+00 0. -1.
        -11    1    5    5    0    0  0.72704999475E+02  0.10545447790E+03  0.16141712379E+03  0.20606346525E+03  0.00000000000E+00 0.  1.
          2    1    6    6  503    0  0.58472881932E+03  0.20400625360E+03  0.10175593091E+04  0.11911982585E+04  0.00000000000E+00 0. -1.
         -2    1    6    6    0  503  0.28741106824E+03  0.37413274523E+02  0.43170360750E+03  0.51997392241E+03  0.00000000000E+00 0.  1.
<mgrwt>
<rscale>  0 0.40394642E+04</rscale>
<asrwt>0</asrwt>
<pdfrwt beam="1">  1        2 0.70112691E+00 0.40394642E+04</pdfrwt>
<pdfrwt beam="2">  1       -1 0.13770959E+00 0.40394642E+04</pdfrwt>
<totfact> 0.41806315E-02</totfact>
</mgrwt>
</event>
<event>
12    6  0.1402540E-007  0.1763171E+04  0.7818608E-02  0.8726134E-01
          2   -1    0    0  501    0  0.00000000000E+00  0.00000000000E+00  0.23144259377E+04  0.23144259377E+04  0.00000000000E+00 0. -1.
         -1   -1    0    0    0  501 -0.00000000000E+00 -0.00000000000E+00 -0.33580370279E+03  0.33580370279E+03  0.00000000000E+00 0.  1.
         24    2    1    2    0    0  0.49433711883E+03 -0.39789453464E+03  0.94743508928E+03  0.11430792695E+04  0.79421156939E+02 0.  0.
        254    2    1    2    0    0 -0.49433711883E+03  0.39789453464E+03  0.10311871456E+04  0.15071503710E+04  0.89747761184E+03 0.  0.
         23    2    4    4    0    0  0.66286822055E+02  0.37404898084E+03  0.80514979275E+03  0.89548891227E+03  0.96579606448E+02 0.  0.
         23    2    4    4    0    0 -0.56062394089E+03  0.23845553795E+02  0.22603735287E+03  0.61166145873E+03  0.90382750959E+02 0.  0.
          2    1    3    3  502    0  0.36240594123E+03 -0.26349167312E+03  0.71673762207E+03  0.84526844667E+03  0.00000000000E+00 0. -1.
         -1    1    3    3    0  502  0.13193117760E+03 -0.13440286152E+03  0.23069746721E+03  0.29781082282E+03  0.00000000000E+00 0.  1.
         11    1    5    5    0    0 -0.33555251168E+01  0.94651703184E+02  0.12444312560E+03  0.15638508872E+03  0.00000000000E+00 0. -1.
        -11    1    5    5    0    0  0.69642347172E+02  0.27939727766E+03  0.68070666715E+03  0.73910382355E+03  0.00000000000E+00 0.  1.
          2    1    6    6  503    0 -0.46101039027E+03  0.40888512312E+02  0.15482141912E+03  0.48802881287E+03  0.00000000000E+00 0.  1.
         -2    1    6    6    0  503 -0.99613550617E+02 -0.17042958517E+02  0.71215933750E+02  0.12363264586E+03  0.00000000000E+00 0. -1.
<mgrwt>
<rscale>  0 0.17631708E+04</rscale>
<asrwt>0</asrwt>
<pdfrwt beam="1">  1        2 0.35606552E+00 0.17631708E+04</pdfrwt>
<pdfrwt beam="2">  1       -1 0.51662110E-01 0.17631708E+04</pdfrwt>
<totfact> 0.18097813E+01</totfact>
</mgrwt>
</event>
<event>
12    6  0.1402540E-007  0.1868982E+04  0.7818608E-02  0.8670452E-01
          2   -1    0    0  501    0  0.00000000000E+00  0.00000000000E+00  0.24286538627E+04  0.24286538627E+04  0.00000000000E+00 0. -1.
         -1   -1    0    0    0  501 -0.00000000000E+00 -0.00000000000E+00 -0.35957092450E+03  0.35957092450E+03  0.00000000000E+00 0.  1.
         24    2    1    2    0    0 -0.47221959124E+03 -0.31482381896E+03  0.14826297538E+03  0.59196490058E+03  0.79593682607E+02 0.  0.
        254    2    1    2    0    0  0.47221959124E+03  0.31482381896E+03  0.19208199628E+04  0.21962598866E+04  0.90105648028E+03 0.  0.
         23    2    4    4    0    0  0.30964689384E+03 -0.23131488970E+02  0.10559357331E+03  0.34050024051E+03  0.91510362332E+02 0.  0.
         23    2    4    4    0    0  0.16257269740E+03  0.33795530793E+03  0.18152263895E+04  0.18557596461E+04  0.90295885045E+02 0.  0.
          4    1    3    3  502    0 -0.23445164620E+03 -0.19762237723E+03  0.99984919700E+02  0.32252001885E+03  0.00000000000E+00 0. -1.
         -3    1    3    3    0  502 -0.23776794504E+03 -0.11720144173E+03  0.48278055683E+02  0.26944488173E+03  0.00000000000E+00 0.  1.
         11    1    5    5    0    0  0.11063215010E+03  0.16652078695E+02  0.34086493826E+00  0.11187886552E+03  0.00000000000E+00 0.  1.
        -11    1    5    5    0    0  0.19901474374E+03 -0.39783567666E+02  0.10525270838E+03  0.22862137499E+03  0.00000000000E+00 0. -1.
          3    1    6    6  503    0  0.71261888423E+02  0.24209502933E+03  0.11261128806E+04  0.11540444012E+04  0.00000000000E+00 0. -1.
         -3    1    6    6    0  503  0.91310808972E+02  0.95860278602E+02  0.68911350888E+03  0.70171524493E+03  0.00000000000E+00 0.  1.
<mgrwt>
<rscale>  0 0.18689819E+04</rscale>
<asrwt>0</asrwt>
<pdfrwt beam="1">  1        2 0.37363905E+00 0.18689819E+04</pdfrwt>
<pdfrwt beam="2">  1       -1 0.55318605E-01 0.18689819E+04</pdfrwt>
<totfact> 0.13527143E+01</totfact>
</mgrwt>
</event>
<event>
12    6  0.1402540E-007  0.2348026E+04  0.7818608E-02  0.8459222E-01
          2   -1    0    0  501    0  0.00000000000E+00  0.00000000000E+00  0.23916855597E+04  0.23916855597E+04  0.00000000000E+00 0. -1.
         -1   -1    0    0    0  501 -0.00000000000E+00 -0.00000000000E+00 -0.57629074521E+03  0.57629074521E+03  0.00000000000E+00 0.  1.
         24    2    1    2    0    0  0.93751416101E+03  0.31040592876E+03  0.95598696501E+03  0.13779907771E+04  0.98299855894E+02 0.  0.
        254    2    1    2    0    0 -0.93751416101E+03 -0.31040592876E+03  0.85940784945E+03  0.15899855278E+04  0.90232338121E+03 0.  0.
         23    2    4    4    0    0  0.71331159299E+02  0.13742753786E+03 -0.11747551379E+02  0.18089200577E+03  0.92787123786E+02 0.  0.
         23    2    4    4    0    0 -0.10088453203E+04 -0.44783346662E+03  0.87115540083E+03  0.14090935220E+04  0.91154414892E+02 0.  0.
          2    1    3    3  502    0  0.16961356112E+03  0.96476657979E+02  0.19823733372E+03  0.27816280508E+03  0.00000000000E+00 0. -1.
         -1    1    3    3    0  502  0.76790059989E+03  0.21392927078E+03  0.75774963129E+03  0.10998279720E+04  0.00000000000E+00 0.  1.
         11    1    5    5    0    0  0.20103852983E+02 -0.46863132157E+01  0.17451519062E+02  0.27031129349E+02  0.00000000000E+00 0. -1.
        -11    1    5    5    0    0  0.51227306316E+02  0.14211385107E+03 -0.29199070441E+02  0.15386087642E+03  0.00000000000E+00 0.  1.
          3    1    6    6  503    0 -0.19085210308E+03 -0.62202159879E+02  0.19576054299E+03  0.28038513537E+03  0.00000000000E+00 0. -1.
         -3    1    6    6    0  503 -0.81799321722E+03 -0.38563130674E+03  0.67539485784E+03  0.11287083867E+04  0.00000000000E+00 0.  1.
<mgrwt>
<rscale>  0 0.23480258E+04</rscale>
<asrwt>0</asrwt>
<pdfrwt beam="1">  1        2 0.36795162E+00 0.23480258E+04</pdfrwt>
<pdfrwt beam="2">  1       -1 0.88660116E-01 0.23480258E+04</pdfrwt>
<totfact> 0.51555101E+00</totfact>
</mgrwt>
</event>
<event>
12    6  0.1402540E-007  0.1799285E+04  0.7818608E-02  0.8706680E-01
         -1   -1    0    0    0  501 -0.00000000000E+00  0.00000000000E+00  0.53347961033E+03  0.53347961033E+03  0.00000000000E+00 0.  1.
          2   -1    0    0  501    0  0.00000000000E+00 -0.00000000000E+00 -0.15171275714E+04  0.15171275714E+04  0.00000000000E+00 0. -1.
         24    2    1    2    0    0 -0.67240959810E+03  0.66798455397E+02 -0.39907004150E+03  0.78870877465E+03  0.78790430356E+02 0.  0.
        254    2    1    2    0    0  0.67240959810E+03 -0.66798455397E+02 -0.58457791954E+03  0.12618984071E+04  0.89110018766E+03 0.  0.
         23    2    4    4    0    0 -0.42669559192E+02 -0.14861706476E+03 -0.49987276554E+03  0.53112536039E+03  0.91179183460E+02 0.  0.
         23    2    4    4    0    0  0.71507915729E+03  0.81818609367E+02 -0.84705153995E+02  0.73077304666E+03  0.93924419494E+02 0.  0.
          4    1    3    3  502    0 -0.31129028679E+03 -0.18576115508E+01 -0.20838236283E+03  0.37460419446E+03  0.00000000000E+00 0. -1.
         -1    1    3    3    0  502 -0.36111931132E+03  0.68656066948E+02 -0.19068767867E+03  0.41410458019E+03  0.00000000000E+00 0.  1.
         11    1    5    5    0    0 -0.68109790634E+02 -0.82877584367E+02 -0.33675120619E+03  0.35342469133E+03  0.00000000000E+00 0. -1.
        -11    1    5    5    0    0  0.25440231442E+02 -0.65739480398E+02 -0.16312155935E+03  0.17770066906E+03  0.00000000000E+00 0.  1.
          3    1    6    6  503    0  0.24118482016E+03 -0.45864140920E+01  0.24720524395E+01  0.24124109043E+03  0.00000000000E+00 0. -1.
         -3    1    6    6    0  503  0.47389433713E+03  0.86405023459E+02 -0.87177206434E+02  0.48953195623E+03  0.00000000000E+00 0.  1.
<mgrwt>
<rscale>  0 0.17992850E+04</rscale>
<asrwt>0</asrwt>
<pdfrwt beam="1">  1        2 0.23340424E+00 0.17992850E+04</pdfrwt>
<pdfrwt beam="2">  1       -1 0.82073788E-01 0.17992850E+04</pdfrwt>
<totfact> 0.19721246E+01</totfact>
</mgrwt>
</event>
<event>
12    6  0.1402540E-007  0.1907933E+04  0.7818608E-02  0.8650918E-01
         -1   -1    0    0    0  501 -0.00000000000E+00  0.00000000000E+00  0.65819294094E+03  0.65819294094E+03  0.00000000000E+00 0.  1.
          2   -1    0    0  501    0  0.00000000000E+00 -0.00000000000E+00 -0.13826525958E+04  0.13826525958E+04  0.00000000000E+00 0. -1.
         24    2    1    2    0    0 -0.63146345169E+03  0.35393576294E+03 -0.12090652538E+03  0.73829344516E+03  0.80263367558E+02 0.  0.
        254    2    1    2    0    0  0.63146345169E+03 -0.35393576294E+03 -0.60355312949E+03  0.13025520916E+04  0.89908228550E+03 0.  0.
         23    2    4    4    0    0 -0.17480656702E+02 -0.38067297517E+03 -0.50644213719E+03  0.63991754652E+03  0.88279899385E+02 0.  0.
         23    2    4    4    0    0  0.64894410839E+03  0.26737212235E+02 -0.97110992306E+02  0.66263454508E+03  0.88377945054E+02 0.  0.
          2    1    3    3  502    0 -0.24085802069E+03  0.13561904949E+03 -0.85880280620E+02  0.28944867475E+03  0.00000000000E+00 0. -1.
         -1    1    3    3    0  502 -0.39060543100E+03  0.21831671345E+03 -0.35026244760E+02  0.44884477040E+03  0.00000000000E+00 0.  1.
         11    1    5    5    0    0 -0.31267262523E+02 -0.34468028140E+03 -0.41302484620E+03  0.53886144942E+03  0.00000000000E+00 0. -1.
        -11    1    5    5    0    0  0.13786605821E+02 -0.35992693774E+02 -0.93417290992E+02  0.10105609710E+03  0.00000000000E+00 0.  1.
          2    1    6    6  503    0  0.36649817706E+03  0.58116133950E+02 -0.63478011299E+02  0.37646760383E+03  0.00000000000E+00 0. -1.
         -2    1    6    6    0  503  0.28244593133E+03 -0.31378921716E+02 -0.33632981007E+02  0.28616694125E+03  0.00000000000E+00 0.  1.
<mgrwt>
<rscale>  0 0.19079331E+04</rscale>
<asrwt>0</asrwt>
<pdfrwt beam="1">  1        2 0.21271578E+00 0.19079331E+04</pdfrwt>
<pdfrwt beam="2">  1       -1 0.10126045E+00 0.19079331E+04</pdfrwt>
<totfact> 0.14627099E+01</totfact>
</mgrwt>
</event>
<event>
12    6  0.1402540E-007  0.3013961E+04  0.7818608E-02  0.8239756E-01
         -1   -1    0    0    0  501 -0.00000000000E+00  0.00000000000E+00  0.98041621136E+03  0.98041621136E+03  0.00000000000E+00 0.  1.
          2   -1    0    0  501    0  0.00000000000E+00 -0.00000000000E+00 -0.23163527473E+04  0.23163527473E+04  0.00000000000E+00 0. -1.
         24    2    1    2    0    0  0.91704065707E+03  0.68879434788E+03 -0.14319602789E+04  0.18361522928E+04  0.74456575322E+02 0.  0.
        254    2    1    2    0    0 -0.91704065707E+03 -0.68879434788E+03  0.96023742871E+02  0.14606166659E+04  0.89932155831E+03 0.  0.
         23    2    4    4    0    0 -0.78380461786E+03 -0.42694839309E+02  0.25792085212E+02  0.79085161246E+03  0.92782072492E+02 0.  0.
         23    2    4    4    0    0 -0.13323603921E+03 -0.64609950857E+03  0.70231657659E+02  0.66976505349E+03  0.91958273207E+02 0.  0.
          4    1    3    3  502    0  0.53982541314E+03  0.45065606682E+03 -0.87092121720E+03  0.11193775653E+04  0.00000000000E+00 0. -1.
         -3    1    3    3    0  502  0.37721524393E+03  0.23813828107E+03 -0.56103906166E+03  0.71677472742E+03  0.00000000000E+00 0.  1.
         11    1    5    5    0    0 -0.27025816907E+03 -0.17575885231E+02 -0.35115909001E+02  0.27309616759E+03  0.00000000000E+00 0. -1.
        -11    1    5    5    0    0 -0.51354644880E+03 -0.25118954078E+02  0.60907994213E+02  0.51775544486E+03  0.00000000000E+00 0.  1.
          3    1    6    6  503    0 -0.99202331821E+02 -0.48456515207E+03  0.92495664141E+02  0.50318976254E+03  0.00000000000E+00 0. -1.
         -3    1    6    6    0  503 -0.34033707390E+02 -0.16153435650E+03 -0.22264006482E+02  0.16657529095E+03  0.00000000000E+00 0.  1.
<mgrwt>
<rscale>  0 0.30139607E+04</rscale>
<asrwt>0</asrwt>
<pdfrwt beam="1">  1        2 0.35636195E+00 0.30139607E+04</pdfrwt>
<pdfrwt beam="2">  1       -1 0.15083327E+00 0.30139607E+04</pdfrwt>
<totfact> 0.14825221E+00</totfact>
</mgrwt>
</event>
<event>
12    6  0.1402540E-007  0.3548010E+04  0.7818608E-02  0.8102505E-01
          2   -1    0    0  501    0  0.00000000000E+00  0.00000000000E+00  0.36090364806E+04  0.36090364806E+04  0.00000000000E+00 0. -1.
         -1   -1    0    0    0  501 -0.00000000000E+00 -0.00000000000E+00 -0.87200399408E+03  0.87200399408E+03  0.00000000000E+00 0.  1.
         24    2    1    2    0    0 -0.78227280600E+03  0.13815793795E+04  0.67428201339E+03  0.17268149957E+04  0.80755624677E+02 0.  0.
        254    2    1    2    0    0  0.78227280600E+03 -0.13815793795E+04  0.20627504732E+04  0.27542254790E+04  0.90005897025E+03 0.  0.
         23    2    4    4    0    0  0.38547391806E+03 -0.15267836592E+02  0.36750055535E+03  0.53917596550E+03  0.82648746239E+02 0.  0.
         23    2    4    4    0    0  0.39679888795E+03 -0.13663115429E+04  0.16952499178E+04  0.22150495135E+04  0.91189219668E+02 0.  0.
          4    1    3    3  502    0 -0.53302261762E+03  0.88118060846E+03  0.46370794923E+03  0.11294323520E+04  0.00000000000E+00 0. -1.
         -3    1    3    3    0  502 -0.24925018839E+03  0.50039877103E+03  0.21057406417E+03  0.59738264367E+03  0.00000000000E+00 0.  1.
         11    1    5    5    0    0  0.16898000842E+03 -0.40082528104E+02  0.19599673325E+03  0.26186937917E+03  0.00000000000E+00 0. -1.
        -11    1    5    5    0    0  0.21649390964E+03  0.24814691512E+02  0.17150382210E+03  0.27730658632E+03  0.00000000000E+00 0.  1.
          1    1    6    6  503    0  0.30550500622E+03 -0.11193458301E+04  0.13334803195E+04  0.17676080331E+04  0.00000000000E+00 0. -1.
         -1    1    6    6    0  503  0.91293881729E+02 -0.24696571280E+03  0.36176959834E+03  0.44744148044E+03  0.00000000000E+00 0.  1.
<mgrwt>
<rscale>  0 0.35480103E+04</rscale>
<asrwt>0</asrwt>
<pdfrwt beam="1">  1        2 0.55523637E+00 0.35480103E+04</pdfrwt>
<pdfrwt beam="2">  1       -1 0.13415446E+00 0.35480103E+04</pdfrwt>
<totfact> 0.29523301E-01</totfact>
</mgrwt>
</event>
<event>
12    6  0.1402540E-007  0.1439973E+04  0.7818608E-02  0.8925382E-01
         -1   -1    0    0    0  501 -0.00000000000E+00  0.00000000000E+00  0.66610265642E+03  0.66610265642E+03  0.00000000000E+00 0.  1.
          2   -1    0    0  501    0  0.00000000000E+00 -0.00000000000E+00 -0.77822946915E+03  0.77822946915E+03  0.00000000000E+00 0. -1.
         24    2    1    2    0    0  0.71944422403E+02 -0.38492130200E+03  0.15193678479E+03  0.42759064948E+03  0.80053534000E+02 0.  0.
        254    2    1    2    0    0 -0.71944422403E+02  0.38492130200E+03 -0.26406359753E+03  0.10167414761E+04  0.90038504931E+03 0.  0.
         23    2    4    4    0    0  0.27162235350E+03  0.47345345599E+03 -0.33060150256E+03  0.64458851965E+03  0.90885247803E+02 0.  0.
         23    2    4    4    0    0 -0.34356677591E+03 -0.88532153992E+02  0.66537905030E+02  0.37215295644E+03  0.90523247755E+02 0.  0.
          2    1    3    3  502    0  0.35395812880E+02 -0.15079398821E+03  0.19459200341E+02  0.15611006030E+03  0.00000000000E+00 0. -1.
         -1    1    3    3    0  502  0.36548609523E+02 -0.23412731378E+03  0.13247758445E+03  0.27148058918E+03  0.00000000000E+00 0.  1.
         11    1    5    5    0    0  0.80706663314E+02  0.16149950826E+03 -0.62289992526E+02  0.19098612474E+03  0.00000000000E+00 0. -1.
        -11    1    5    5    0    0  0.19091569019E+03  0.31195394772E+03 -0.26831151003E+03  0.45360239492E+03  0.00000000000E+00 0.  1.
          4    1    6    6  503    0 -0.85167157492E+02 -0.29492315561E+02  0.57562505416E+02  0.10694243041E+03  0.00000000000E+00 0. -1.
         -4    1    6    6    0  503 -0.25839961841E+03 -0.59039838432E+02  0.89753996146E+01  0.26521052603E+03  0.00000000000E+00 0.  1.
<mgrwt>
<rscale>  0 0.14399732E+04</rscale>
<asrwt>0</asrwt>
<pdfrwt beam="1">  1        2 0.11972761E+00 0.14399732E+04</pdfrwt>
<pdfrwt beam="2">  1       -1 0.10247733E+00 0.14399732E+04</pdfrwt>
<totfact> 0.35681488E+01</totfact>
</mgrwt>
</event>
<event>
12    6  0.1402540E-007  0.1575910E+04  0.7818608E-02  0.8835486E-01
          2   -1    0    0  501    0  0.00000000000E+00  0.00000000000E+00  0.87020803826E+03  0.87020803826E+03  0.00000000000E+00 0. -1.
         -1   -1    0    0    0  501 -0.00000000000E+00 -0.00000000000E+00 -0.71347639776E+03  0.71347639776E+03  0.00000000000E+00 0.  1.
         24    2    1    2    0    0  0.46379512245E+03 -0.18408513242E+02  0.30147642566E+03  0.55921565876E+03  0.79933277181E+02 0.  0.
        254    2    1    2    0    0 -0.46379512245E+03  0.18408513242E+02 -0.14474478517E+03  0.10244687773E+04  0.90174299763E+03 0.  0.
         23    2    4    4    0    0  0.83869033536E+02  0.32472605878E+03  0.70920540876E+02  0.35460418499E+03  0.90737957083E+02 0.  0.
         23    2    4    4    0    0 -0.54766415599E+03 -0.30631754554E+03 -0.21566532604E+03  0.66986459227E+03  0.91872589280E+02 0.  0.
          2    1    3    3  502    0  0.23656411372E+03 -0.49068032851E+02  0.14882425252E+03  0.28375854152E+03  0.00000000000E+00 0. -1.
         -1    1    3    3    0  502  0.22723100873E+03  0.30659519608E+02  0.15265217314E+03  0.27545711724E+03  0.00000000000E+00 0.  1.
         11    1    5    5    0    0  0.60953630348E+02  0.24428360191E+03  0.11560727610E+02  0.25203863521E+03  0.00000000000E+00 0.  1.
        -11    1    5    5    0    0  0.22915403188E+02  0.80442456867E+02  0.59359813266E+02  0.10256554978E+03  0.00000000000E+00 0. -1.
          4    1    6    6  503    0 -0.45779485135E+03 -0.22483437103E+03 -0.14851283697E+03  0.53120870010E+03  0.00000000000E+00 0.  1.
         -4    1    6    6    0  503 -0.89869304639E+02 -0.81483174509E+02 -0.67152489075E+02  0.13865589217E+03  0.00000000000E+00 0. -1.
<mgrwt>
<rscale>  0 0.15759098E+04</rscale>
<asrwt>0</asrwt>
<pdfrwt beam="1">  1        2 0.13387816E+00 0.15759098E+04</pdfrwt>
<pdfrwt beam="2">  1       -1 0.10976560E+00 0.15759098E+04</pdfrwt>
<totfact> 0.25853589E+01</totfact>
</mgrwt>
</event>
<event>
12    6  0.1402540E-007  0.1229523E+04  0.7818608E-02  0.9087401E-01
          2   -1    0    0  501    0  0.00000000000E+00  0.00000000000E+00  0.21602744494E+03  0.21602744494E+03  0.00000000000E+00 0. -1.
         -1   -1    0    0    0  501 -0.00000000000E+00 -0.00000000000E+00 -0.17494606459E+04  0.17494606459E+04  0.00000000000E+00 0.  1.
         24    2    1    2    0    0 -0.25618007744E+03 -0.10489932240E+03 -0.36539748351E+03  0.46524666780E+03  0.79416881221E+02 0.  0.
        254    2    1    2    0    0  0.25618007744E+03  0.10489932240E+03 -0.11680357174E+04  0.15002414230E+04  0.89988043109E+03 0.  0.
         23    2    4    4    0    0  0.68418785433E+02 -0.30266843737E+03 -0.92733007299E+03  0.98219489533E+03  0.92067556557E+02 0.  0.
         23    2    4    4    0    0  0.18776129200E+03  0.40756775977E+03 -0.24070564441E+03  0.51804652767E+03  0.95221930250E+02 0.  0.
          4    1    3    3  502    0 -0.13134723147E+03 -0.44381958237E+02 -0.12005670136E+03  0.18339974093E+03  0.00000000000E+00 0. -1.
         -3    1    3    3    0  502 -0.12483284597E+03 -0.60517364163E+02 -0.24534078215E+03  0.28184692687E+03  0.00000000000E+00 0.  1.
         11    1    5    5    0    0  0.19513065078E+02 -0.19005192433E+03 -0.67600079249E+03  0.70247958341E+03  0.00000000000E+00 0. -1.
        -11    1    5    5    0    0  0.48905720354E+02 -0.11261651304E+03 -0.25132928050E+03  0.27971531193E+03  0.00000000000E+00 0.  1.
          1    1    6    6  503    0  0.18389655101E+03  0.40342293024E+03 -0.24862121574E+03  0.50831143114E+03  0.00000000000E+00 0. -1.
         -1    1    6    6    0  503  0.38647409966E+01  0.41448295306E+01  0.79155713331E+01  0.97350965244E+01  0.00000000000E+00 0.  1.
<mgrwt>
<rscale>  0 0.12295227E+04</rscale>
<asrwt>0</asrwt>
<pdfrwt beam="1">  1        2 0.33234993E-01 0.12295227E+04</pdfrwt>
<pdfrwt beam="2">  1       -1 0.26914778E+00 0.12295227E+04</pdfrwt>
<totfact> 0.94078263E+00</totfact>
</mgrwt>
</event>
<event>
12    6  0.1402540E-007  0.3157268E+04  0.7818608E-02  0.8200195E-01
          2   -1    0    0  501    0  0.00000000000E+00  0.00000000000E+00  0.22675973068E+04  0.22675973068E+04  0.00000000000E+00 0. -1.
         -1   -1    0    0    0  501 -0.00000000000E+00 -0.00000000000E+00 -0.10989980322E+04  0.10989980322E+04  0.00000000000E+00 0.  1.
         24    2    1    2    0    0 -0.69122272160E+02 -0.13755640425E+04  0.10176902916E+04  0.17143344381E+04  0.79339225548E+02 0.  0.
        254    2    1    2    0    0  0.69122272160E+02  0.13755640425E+04  0.15090898301E+03  0.16522609009E+04  0.90013234583E+03 0.  0.
         23    2    4    4    0    0  0.22317491411E+02  0.37182781682E+03 -0.35666094824E+03  0.52276051691E+03  0.85542563990E+02 0.  0.
         23    2    4    4    0    0  0.46804780749E+02  0.10037362256E+04  0.50756993125E+03  0.11295003840E+04  0.92015129901E+02 0.  0.
          2    1    3    3  502    0 -0.57955569426E+02 -0.93509308498E+03  0.64768040600E+03  0.11389678810E+04  0.00000000000E+00 0. -1.
         -1    1    3    3    0  502 -0.11166702734E+02 -0.44047095747E+03  0.37000988556E+03  0.57536655711E+03  0.00000000000E+00 0.  1.
         11    1    5    5    0    0  0.33309221022E+01  0.30275404983E+03 -0.32578247481E+03  0.44475311199E+03  0.00000000000E+00 0.  1.
        -11    1    5    5    0    0  0.18986569309E+02  0.69073766994E+02 -0.30878473423E+02  0.78007404916E+02  0.00000000000E+00 0. -1.
          1    1    6    6  503    0 -0.10462905212E+02  0.37935741723E+02  0.35411634774E+02  0.52939368743E+02  0.00000000000E+00 0. -1.
         -1    1    6    6    0  503  0.57267685961E+02  0.96580048391E+03  0.47215829647E+03  0.10765610152E+04  0.00000000000E+00 0.  1.
<mgrwt>
<rscale>  0 0.31572678E+04</rscale>
<asrwt>0</asrwt>
<pdfrwt beam="1">  1        2 0.34886112E+00 0.31572678E+04</pdfrwt>
<pdfrwt beam="2">  1       -1 0.16907662E+00 0.31572678E+04</pdfrwt>
<totfact> 0.11356029E+00</totfact>
</mgrwt>
</event>
<event>
12    6  0.1402540E-007  0.1959771E+04  0.7818608E-02  0.8625663E-01
          2   -1    0    0  501    0  0.00000000000E+00  0.00000000000E+00  0.27337728783E+04  0.27337728783E+04  0.00000000000E+00 0. -1.
         -1   -1    0    0    0  501 -0.00000000000E+00 -0.00000000000E+00 -0.35122729531E+03  0.35122729531E+03  0.00000000000E+00 0.  1.
         24    2    1    2    0    0 -0.17099446405E+03  0.74996696352E+03  0.87182750230E+03  0.11655557367E+04  0.82142731932E+02 0.  0.
        254    2    1    2    0    0  0.17099446405E+03 -0.74996696352E+03  0.15107180806E+04  0.19194444369E+04  0.90017124705E+03 0.  0.
         23    2    4    4    0    0  0.40328141521E+03 -0.26019991995E+02  0.61027894583E+03  0.73744952786E+03  0.89880334825E+02 0.  0.
         23    2    4    4    0    0 -0.23228695116E+03 -0.72394697153E+03  0.90043913482E+03  0.11819949090E+04  0.90911408505E+02 0.  0.
          2    1    3    3  502    0 -0.17911836217E+03  0.68314558617E+03  0.79911019111E+03  0.10664653661E+04  0.00000000000E+00 0. -1.
         -1    1    3    3    0  502  0.81238981168E+01  0.66821377356E+02  0.72717311191E+02  0.99090370568E+02  0.00000000000E+00 0.  1.
         11    1    5    5    0    0  0.34064865769E+03  0.96304407283E+01  0.52346996785E+03  0.62462393535E+03  0.00000000000E+00 0. -1.
        -11    1    5    5    0    0  0.62632757517E+02 -0.35650432723E+02  0.86808977978E+02  0.11282559251E+03  0.00000000000E+00 0.  1.
          1    1    6    6  503    0 -0.15750566358E+02 -0.15925217087E+03  0.21233029094E+03  0.26588246786E+03  0.00000000000E+00 0. -1.
         -1    1    6    6    0  503 -0.21653638480E+03 -0.56469480066E+03  0.68810884388E+03  0.91611244116E+03  0.00000000000E+00 0.  1.
<mgrwt>
<rscale>  0 0.19597711E+04</rscale>
<asrwt>0</asrwt>
<pdfrwt beam="1">  1        2 0.42058043E+00 0.19597711E+04</pdfrwt>
<pdfrwt beam="2">  1       -1 0.54034970E-01 0.19597711E+04</pdfrwt>
<totfact> 0.93132845E+00</totfact>
</mgrwt>
</event>
<event>
12    6  0.1402540E-007  0.1343803E+04  0.7818608E-02  0.8995532E-01
         -1   -1    0    0    0  501 -0.00000000000E+00  0.00000000000E+00  0.35353486368E+03  0.35353486368E+03  0.00000000000E+00 0.  1.
          2   -1    0    0  501    0  0.00000000000E+00 -0.00000000000E+00 -0.12769654174E+04  0.12769654174E+04  0.00000000000E+00 0. -1.
         24    2    1    2    0    0 -0.27059993238E+03  0.24509105959E+03 -0.28517855893E+03  0.46981923603E+03  0.78162351406E+02 0.  0.
        254    2    1    2    0    0  0.27059993238E+03 -0.24509105959E+03 -0.63825199478E+03  0.11606810450E+04  0.89806510264E+03 0.  0.
         23    2    4    4    0    0  0.64597127893E+02  0.23473856166E+03 -0.56923961752E+03  0.62586019165E+03  0.91609257613E+02 0.  0.
         23    2    4    4    0    0  0.20600280448E+03 -0.47982962125E+03 -0.69012377268E+02  0.53482085339E+03  0.92720095553E+02 0.  0.
          2    1    3    3  502    0 -0.55490504208E+02  0.13533561572E+02 -0.49224374434E+02  0.75401540996E+02  0.00000000000E+00 0. -1.
         -1    1    3    3    0  502 -0.21510942817E+03  0.23155749802E+03 -0.23595418450E+03  0.39441769503E+03  0.00000000000E+00 0.  1.
         11    1    5    5    0    0  0.87345711982E+02  0.16989398914E+03 -0.40336809966E+03  0.44631722437E+03  0.00000000000E+00 0.  1.
        -11    1    5    5    0    0 -0.22748584089E+02  0.64844572525E+02 -0.16587151785E+03  0.17954296728E+03  0.00000000000E+00 0. -1.
          3    1    6    6  503    0  0.21434406872E+03 -0.45091730079E+03 -0.57365710716E+02  0.50255409332E+03  0.00000000000E+00 0. -1.
         -3    1    6    6    0  503 -0.83412642387E+01 -0.28912320460E+02 -0.11646666551E+02  0.32266760068E+02  0.00000000000E+00 0.  1.
<mgrwt>
<rscale>  0 0.13438033E+04</rscale>
<asrwt>0</asrwt>
<pdfrwt beam="1">  1        2 0.19645622E+00 0.13438033E+04</pdfrwt>
<pdfrwt beam="2">  1       -1 0.54389979E-01 0.13438033E+04</pdfrwt>
<totfact> 0.64847707E+01</totfact>
</mgrwt>
</event>
<event>
12    6  0.1402540E-007  0.1832647E+04  0.7818608E-02  0.8689128E-01
          2   -1    0    0  501    0  0.00000000000E+00  0.00000000000E+00  0.16145757174E+04  0.16145757174E+04  0.00000000000E+00 0. -1.
         -1   -1    0    0    0  501 -0.00000000000E+00 -0.00000000000E+00 -0.52004316814E+03  0.52004316814E+03  0.00000000000E+00 0.  1.
         24    2    1    2    0    0  0.66186914951E+03  0.19772983040E+03  0.46912841011E+03  0.83896032661E+03  0.81271812809E+02 0.  0.
        254    2    1    2    0    0 -0.66186914951E+03 -0.19772983040E+03  0.62540413914E+03  0.12956585589E+04  0.90024047184E+03 0.  0.
         23    2    4    4    0    0 -0.40995033304E+03 -0.53805693516E+03  0.26570507480E+03  0.73216754546E+03  0.88913366924E+02 0.  0.
         23    2    4    4    0    0 -0.25191881647E+03  0.34032710476E+03  0.35969906434E+03  0.56349101346E+03  0.94090791419E+02 0.  0.
          4    1    3    3  502    0  0.90589630543E+02  0.15249856597E+02  0.94802921980E+02  0.13200997426E+03  0.00000000000E+00 0. -1.
         -3    1    3    3    0  502  0.57127951897E+03  0.18247997380E+03  0.37432548813E+03  0.70695035235E+03  0.00000000000E+00 0.  1.
         11    1    5    5    0    0 -0.36353828051E+03 -0.46577658893E+03  0.19918652095E+03  0.62352480490E+03  0.00000000000E+00 0.  1.
        -11    1    5    5    0    0 -0.46412052528E+02 -0.72280346230E+02  0.66518553850E+02  0.10864274056E+03  0.00000000000E+00 0. -1.
          1    1    6    6  503    0 -0.31121690548E+02  0.94519461954E+02  0.53346993528E+02  0.11290876861E+03  0.00000000000E+00 0. -1.
         -1    1    6    6    0  503 -0.22079712593E+03  0.24580764281E+03  0.30635207081E+03  0.45058224485E+03  0.00000000000E+00 0.  1.
<mgrwt>
<rscale>  0 0.18326473E+04</rscale>
<asrwt>0</asrwt>
<pdfrwt beam="1">  1        2 0.24839626E+00 0.18326473E+04</pdfrwt>
<pdfrwt beam="2">  1       -1 0.80006642E-01 0.18326473E+04</pdfrwt>
<totfact> 0.18309441E+01</totfact>
</mgrwt>
</event>
<event>
12    6  0.1402540E-007  0.1485749E+04  0.7818608E-02  0.8893985E-01
          2   -1    0    0  501    0  0.00000000000E+00  0.00000000000E+00  0.10586656172E+04  0.10586656172E+04  0.00000000000E+00 0. -1.
         -1   -1    0    0    0  501 -0.00000000000E+00 -0.00000000000E+00 -0.52128110237E+03  0.52128110237E+03  0.00000000000E+00 0.  1.
         24    2    1    2    0    0  0.34617708734E+03 -0.23378255441E+03  0.39313753555E+03  0.57871034713E+03  0.76522450779E+02 0.  0.
        254    2    1    2    0    0 -0.34617708734E+03  0.23378255441E+03  0.14424697923E+03  0.10012363724E+04  0.89842875279E+03 0.  0.
         23    2    4    4    0    0  0.10295119119E+03  0.45851557577E+03  0.40220395188E+02  0.47982243414E+03  0.88183939171E+02 0.  0.
         23    2    4    4    0    0 -0.44912827853E+03 -0.22473302136E+03  0.10402658404E+03  0.52141393825E+03  0.93967139719E+02 0.  0.
          4    1    3    3  502    0  0.30556628462E+03 -0.19553757866E+03  0.37042626332E+03  0.51847981207E+03  0.00000000000E+00 0. -1.
         -3    1    3    3    0  502  0.40610802719E+02 -0.38244975746E+02  0.22711272224E+02  0.60230535057E+02  0.00000000000E+00 0.  1.
         11    1    5    5    0    0  0.29873081748E+02  0.13478908366E+03 -0.28349356144E+02  0.14094035646E+03  0.00000000000E+00 0. -1.
        -11    1    5    5    0    0  0.73078109441E+02  0.32372649212E+03  0.68569751332E+02  0.33888207768E+03  0.00000000000E+00 0.  1.
          2    1    6    6  503    0 -0.30099992872E+03 -0.16129844019E+03  0.11385812536E+03  0.35997474440E+03  0.00000000000E+00 0. -1.
         -2    1    6    6    0  503 -0.14812834981E+03 -0.63434581175E+02 -0.98315413108E+01  0.16143919385E+03  0.00000000000E+00 0.  1.
<mgrwt>
<rscale>  0 0.14857488E+04</rscale>
<asrwt>0</asrwt>
<pdfrwt beam="1">  1        2 0.16287163E+00 0.14857488E+04</pdfrwt>
<pdfrwt beam="2">  1       -1 0.80197093E-01 0.14857488E+04</pdfrwt>
<totfact> 0.39584327E+01</totfact>
</mgrwt>
</event>
<event>
12    6  0.1402540E-007  0.2188182E+04  0.7818608E-02  0.8523363E-01
          2   -1    0    0  501    0  0.00000000000E+00  0.00000000000E+00  0.13563932701E+04  0.13563932701E+04  0.00000000000E+00 0. -1.
         -1   -1    0    0    0  501 -0.00000000000E+00 -0.00000000000E+00 -0.88251297740E+03  0.88251297740E+03  0.00000000000E+00 0.  1.
         24    2    1    2    0    0  0.89438561383E+03 -0.39016895629E+02  0.50040891218E+02  0.90016018164E+03  0.79600989000E+02 0.  0.
        254    2    1    2    0    0 -0.89438561383E+03  0.39016895629E+02  0.42383940148E+03  0.13387460659E+04  0.90064046446E+03 0.  0.
         23    2    4    4    0    0  0.10789251742E+03 -0.12673653130E+03 -0.72816409068E+02  0.20401618993E+03  0.92830127866E+02 0.  0.
         23    2    4    4    0    0 -0.10022781313E+04  0.16575342693E+03  0.49665581054E+03  0.11347298759E+04  0.94388803584E+02 0.  0.
          4    1    3    3  502    0  0.32029946712E+03 -0.48564136228E+02  0.34402020951E+02  0.32578171068E+03  0.00000000000E+00 0. -1.
         -3    1    3    3    0  502  0.57408614671E+03  0.95472405987E+01  0.15638870268E+02  0.57437847096E+03  0.00000000000E+00 0.  1.
         11    1    5    5    0    0  0.94842895535E+02 -0.71278897597E+02 -0.97726810634E+01  0.11904352721E+03  0.00000000000E+00 0. -1.
        -11    1    5    5    0    0  0.13049621886E+02 -0.55457633707E+02 -0.63043728004E+02  0.84972662713E+02  0.00000000000E+00 0.  1.
          2    1    6    6  503    0 -0.71515623395E+03  0.11026809194E+03  0.30608605624E+03  0.78568197440E+03  0.00000000000E+00 0. -1.
         -2    1    6    6    0  503 -0.28712189730E+03  0.55485334992E+02  0.19056975430E+03  0.34904790153E+03  0.00000000000E+00 0.  1.
<mgrwt>
<rscale>  0 0.21881816E+04</rscale>
<asrwt>0</asrwt>
<pdfrwt beam="1">  1        2 0.20867589E+00 0.21881816E+04</pdfrwt>
<pdfrwt beam="2">  1       -1 0.13577123E+00 0.21881816E+04</pdfrwt>
<totfact> 0.72566677E+00</totfact>
</mgrwt>
</event>
<event>
12    6  0.1402540E-007  0.3565616E+04  0.7818608E-02  0.8098414E-01
         -1   -1    0    0    0  501 -0.00000000000E+00  0.00000000000E+00  0.87484730574E+03  0.87484730574E+03  0.00000000000E+00 0.  1.
          2   -1    0    0  501    0  0.00000000000E+00 -0.00000000000E+00 -0.36330958059E+04  0.36330958059E+04  0.00000000000E+00 0. -1.
         24    2    1    2    0    0  0.11161485807E+04 -0.10048261169E+04 -0.37361847116E+03  0.15494877629E+04  0.76540093027E+02 0.  0.
        254    2    1    2    0    0 -0.11161485807E+04  0.10048261169E+04 -0.23846300290E+04  0.29584553488E+04  0.90029689328E+03 0.  0.
         23    2    4    4    0    0  0.10092883667E+03  0.32560119659E+03 -0.52809151830E+03  0.63518974625E+03  0.91556500291E+02 0.  0.
         23    2    4    4    0    0 -0.12170774174E+04  0.67922492028E+03 -0.18565385107E+04  0.23232656025E+04  0.90575305044E+02 0.  0.
          2    1    3    3  502    0  0.58352549976E+03 -0.57132516405E+03 -0.18555066884E+03  0.83746253806E+03  0.00000000000E+00 0. -1.
         -1    1    3    3    0  502  0.53262308096E+03 -0.43350095283E+03 -0.18806780232E+03  0.71202522480E+03  0.00000000000E+00 0.  1.
         11    1    5    5    0    0  0.12761283173E+02  0.16230210277E+03 -0.29813472461E+03  0.33968976571E+03  0.00000000000E+00 0. -1.
        -11    1    5    5    0    0  0.88167553496E+02  0.16329909382E+03 -0.22995679369E+03  0.29549998054E+03  0.00000000000E+00 0.  1.
          2    1    6    6  503    0 -0.76915945705E+03  0.41465428702E+03 -0.10930923911E+04  0.13994268197E+04  0.00000000000E+00 0. -1.
         -2    1    6    6    0  503 -0.44791796034E+03  0.26457063327E+03 -0.76344611955E+03  0.92383878282E+03  0.00000000000E+00 0.  1.
<mgrwt>
<rscale>  0 0.35656158E+04</rscale>
<asrwt>0</asrwt>
<pdfrwt beam="1">  1        2 0.55893781E+00 0.35656158E+04</pdfrwt>
<pdfrwt beam="2">  1       -1 0.13459189E+00 0.35656158E+04</pdfrwt>
<totfact> 0.28084828E-01</totfact>
</mgrwt>
</event>
<event>
12    6  0.1402540E-007  0.2409386E+04  0.7818608E-02  0.8435998E-01
          2   -1    0    0  501    0  0.00000000000E+00  0.00000000000E+00  0.25574242403E+04  0.25574242403E+04  0.00000000000E+00 0. -1.
         -1   -1    0    0    0  501 -0.00000000000E+00 -0.00000000000E+00 -0.56747923180E+03  0.56747923180E+03  0.00000000000E+00 0.  1.
         24    2    1    2    0    0  0.38330368826E+02  0.36829407951E+03  0.21111272068E+04  0.21448395928E+04  0.79806324229E+02 0.  0.
        254    2    1    2    0    0 -0.38330368826E+02 -0.36829407951E+03 -0.12118219833E+03  0.98006387927E+03  0.89929435453E+03 0.  0.
         23    2    4    4    0    0 -0.45434681944E+03 -0.17196993395E+03  0.65738384725E+01  0.49429471927E+03  0.90991008488E+02 0.  0.
         23    2    4    4    0    0  0.41601645062E+03 -0.19632414556E+03 -0.12775603680E+03  0.48576916000E+03  0.89650513389E+02 0.  0.
          4    1    3    3  502    0  0.49254928735E+02  0.25018253686E+03  0.15953627629E+04  0.16156112450E+04  0.00000000000E+00 0. -1.
         -3    1    3    3    0  502 -0.10924559909E+02  0.11811154265E+03  0.51576444391E+03  0.52922834780E+03  0.00000000000E+00 0.  1.
         11    1    5    5    0    0 -0.48572920046E+02 -0.41450782171E+02 -0.20828579627E+02  0.67166402566E+02  0.00000000000E+00 0. -1.
        -11    1    5    5    0    0 -0.40577389940E+03 -0.13051915178E+03  0.27402418099E+02  0.42712831670E+03  0.00000000000E+00 0.  1.
          3    1    6    6  503    0  0.52320995674E+02 -0.18612258310E+01  0.47913370831E+01  0.52572879519E+02  0.00000000000E+00 0. -1.
         -3    1    6    6    0  503  0.36369545495E+03 -0.19446291973E+03 -0.13254737389E+03  0.43319628048E+03  0.00000000000E+00 0.  1.
<mgrwt>
<rscale>  0 0.24093859E+04</rscale>
<asrwt>0</asrwt>
<pdfrwt beam="1">  1        2 0.39344988E+00 0.24093859E+04</pdfrwt>
<pdfrwt beam="2">  1       -1 0.87304498E-01 0.24093859E+04</pdfrwt>
<totfact> 0.42544408E+00</totfact>
</mgrwt>
</event>
<event>
12    6  0.1402540E-007  0.1896644E+04  0.7818608E-02  0.8656529E-01
          2   -1    0    0  501    0  0.00000000000E+00  0.00000000000E+00  0.11284398524E+04  0.11284398524E+04  0.00000000000E+00 0. -1.
         -1   -1    0    0    0  501 -0.00000000000E+00 -0.00000000000E+00 -0.79695370456E+03  0.79695370456E+03  0.00000000000E+00 0.  1.
         24    2    1    2    0    0  0.62678300353E+03 -0.36514324657E+03  0.22824312614E+03  0.76482862361E+03  0.81739677217E+02 0.  0.
        254    2    1    2    0    0 -0.62678300353E+03  0.36514324657E+03  0.10324302174E+03  0.11605649334E+04  0.90003628762E+03 0.  0.
         23    2    4    4    0    0 -0.81591809479E+03  0.29319514905E+03  0.23199133341E+03  0.90345416439E+03  0.10355537433E+03 0.  0.
         23    2    4    4    0    0  0.18913509125E+03  0.71948097512E+02 -0.12874831167E+03  0.25711076899E+03  0.92634811472E+02 0.  0.
          2    1    3    3  502    0  0.42819763555E+03 -0.20610584287E+03  0.15975221265E+03  0.50135177570E+03  0.00000000000E+00 0. -1.
         -1    1    3    3    0  502  0.19858536799E+03 -0.15903740370E+03  0.68490913496E+02  0.26347684791E+03  0.00000000000E+00 0.  1.
         11    1    5    5    0    0 -0.40816470051E+02  0.26499588342E+02 -0.80588407061E+01  0.49327044542E+02  0.00000000000E+00 0.  1.
        -11    1    5    5    0    0 -0.77510162473E+03  0.26669556071E+03  0.24005017411E+03  0.85412711985E+03  0.00000000000E+00 0. -1.
          2    1    6    6  503    0  0.16484228353E+03  0.93873125048E+02 -0.10661834112E+03  0.21760655484E+03  0.00000000000E+00 0. -1.
         -2    1    6    6    0  503  0.24292807723E+02 -0.21925027536E+02 -0.22129970553E+02  0.39504214158E+02  0.00000000000E+00 0.  1.
<mgrwt>
<rscale>  0 0.18966437E+04</rscale>
<asrwt>0</asrwt>
<pdfrwt beam="1">  1        2 0.17360613E+00 0.18966437E+04</pdfrwt>
<pdfrwt beam="2">  1       -1 0.12260826E+00 0.18966437E+04</pdfrwt>
<totfact> 0.13127870E+01</totfact>
</mgrwt>
</event>
<event>
12    6  0.1402540E-007  0.2363858E+04  0.7818608E-02  0.8453160E-01
          2   -1    0    0  501    0  0.00000000000E+00  0.00000000000E+00  0.75639878657E+03  0.75639878657E+03  0.00000000000E+00 0. -1.
         -1   -1    0    0    0  501 -0.00000000000E+00 -0.00000000000E+00 -0.18468517516E+04  0.18468517516E+04  0.00000000000E+00 0.  1.
         24    2    1    2    0    0  0.61033543035E+03  0.75716716320E+03 -0.16803165148E+03  0.99026837261E+03  0.81150251500E+02 0.  0.
        254    2    1    2    0    0 -0.61033543035E+03 -0.75716716320E+03 -0.92242131359E+03  0.16129821656E+04  0.89723962027E+03 0.  0.
         23    2    4    4    0    0 -0.24074200427E+03 -0.28491396805E+03  0.12420857420E+03  0.40319435016E+03  0.89471963691E+02 0.  0.
         23    2    4    4    0    0 -0.36959342608E+03 -0.47225319515E+03 -0.10466298878E+04  0.12097878154E+04  0.92358299121E+02 0.  0.
          4    1    3    3  502    0  0.53467981416E+03  0.66366803412E+03 -0.11958419318E+03  0.86060335954E+03  0.00000000000E+00 0. -1.
         -3    1    3    3    0  502  0.75655616188E+02  0.93499129080E+02 -0.48447458295E+02  0.12966501307E+03  0.00000000000E+00 0.  1.
         11    1    5    5    0    0 -0.76317570725E+02 -0.97462511639E+02  0.86495272620E+02  0.15101240003E+03  0.00000000000E+00 0. -1.
        -11    1    5    5    0    0 -0.16442443355E+03 -0.18745145641E+03  0.37713301582E+02  0.25218195014E+03  0.00000000000E+00 0.  1.
          2    1    6    6  503    0 -0.19678928083E+03 -0.29398952220E+03 -0.68767495497E+03  0.77333867348E+03  0.00000000000E+00 0.  1.
         -2    1    6    6    0  503 -0.17280414525E+03 -0.17826367295E+03 -0.35895493282E+03  0.43644914195E+03  0.00000000000E+00 0. -1.
<mgrwt>
<rscale>  0 0.23638582E+04</rscale>
<asrwt>0</asrwt>
<pdfrwt beam="1">  1        2 0.11636904E+00 0.23638582E+04</pdfrwt>
<pdfrwt beam="2">  1       -1 0.28413104E+00 0.23638582E+04</pdfrwt>
<totfact> 0.15971261E+00</totfact>
</mgrwt>
</event>
<event>
12    6  0.1402540E-007  0.2613932E+04  0.7818608E-02  0.8363484E-01
         -1   -1    0    0    0  501 -0.00000000000E+00  0.00000000000E+00  0.47694814291E+03  0.47694814291E+03  0.00000000000E+00 0.  1.
          2   -1    0    0  501    0  0.00000000000E+00 -0.00000000000E+00 -0.35814373494E+04  0.35814373494E+04  0.00000000000E+00 0. -1.
         24    2    1    2    0    0 -0.85676313988E+03  0.70388279857E+03 -0.18470014036E+04  0.21557923875E+04  0.80824260882E+02 0.  0.
        254    2    1    2    0    0  0.85676313988E+03 -0.70388279857E+03 -0.12574878029E+04  0.19025931048E+04  0.89949478933E+03 0.  0.
         23    2    4    4    0    0  0.49738803305E+03  0.97227781996E+02 -0.28214479475E+03  0.58704103673E+03  0.90351516765E+02 0.  0.
         23    2    4    4    0    0  0.35937510683E+03 -0.80111058056E+03 -0.97534300814E+03  0.13155520681E+04  0.91949065137E+02 0.  0.
          2    1    3    3  502    0 -0.20636081831E+03  0.17202480210E+03 -0.51712751670E+03  0.58275053702E+03  0.00000000000E+00 0. -1.
         -1    1    3    3    0  502 -0.65040232158E+03  0.53185799647E+03 -0.13298738869E+04  0.15730418505E+04  0.00000000000E+00 0.  1.
         11    1    5    5    0    0  0.23389506275E+03  0.29133289236E+02 -0.83303666877E+02  0.24999029948E+03  0.00000000000E+00 0.  1.
        -11    1    5    5    0    0  0.26349297030E+03  0.68094492761E+02 -0.19884112787E+03  0.33705073725E+03  0.00000000000E+00 0. -1.
          2    1    6    6  503    0  0.15596091835E+03 -0.39273646962E+03 -0.53185972303E+03  0.67929412452E+03  0.00000000000E+00 0.  1.
         -2    1    6    6    0  503  0.20341418848E+03 -0.40837411094E+03 -0.44348328512E+03  0.63625794356E+03  0.00000000000E+00 0. -1.
<mgrwt>
<rscale>  0 0.26139318E+04</rscale>
<asrwt>0</asrwt>
<pdfrwt beam="1">  1        2 0.55099034E+00 0.26139318E+04</pdfrwt>
<pdfrwt beam="2">  1       -1 0.73376640E-01 0.26139318E+04</pdfrwt>
<totfact> 0.13395338E+00</totfact>
</mgrwt>
</event>
<event>
12    6  0.1402540E-007  0.2783035E+04  0.7818608E-02  0.8308555E-01
         -1   -1    0    0    0  501 -0.00000000000E+00  0.00000000000E+00  0.15598727090E+04  0.15598727090E+04  0.00000000000E+00 0.  1.
          2   -1    0    0  501    0  0.00000000000E+00 -0.00000000000E+00 -0.12413323445E+04  0.12413323445E+04  0.00000000000E+00 0. -1.
         24    2    1    2    0    0  0.35232368496E+03 -0.10773225855E+04  0.66081670001E+03  0.13145831085E+04  0.81817515596E+02 0.  0.
        254    2    1    2    0    0 -0.35232368496E+03  0.10773225855E+04 -0.34227633549E+03  0.14866219450E+04  0.89896372867E+03 0.  0.
         23    2    4    4    0    0 -0.36761698214E+03  0.95316671041E+03 -0.59895116608E+03  0.11876942476E+04  0.90587543083E+02 0.  0.
         23    2    4    4    0    0  0.15293297175E+02  0.12415587507E+03  0.25667483058E+03  0.29892769747E+03  0.88471653138E+02 0.  0.
          4    1    3    3  502    0  0.15213904861E+03 -0.52452153150E+03  0.27607549837E+03  0.61195327266E+03  0.00000000000E+00 0. -1.
         -3    1    3    3    0  502  0.20018463636E+03 -0.55280105398E+03  0.38474120164E+03  0.70262983579E+03  0.00000000000E+00 0.  1.
         11    1    5    5    0    0 -0.19059186716E+03  0.38836669332E+03 -0.28022885063E+03  0.51544365068E+03  0.00000000000E+00 0.  1.
        -11    1    5    5    0    0 -0.17702511498E+03  0.56480001709E+03 -0.31872231545E+03  0.67225059688E+03  0.00000000000E+00 0. -1.
          3    1    6    6  503    0 -0.32919191465E+02  0.61005857549E+02  0.15576843818E+03  0.17049690365E+03  0.00000000000E+00 0. -1.
         -3    1    6    6    0  503  0.48212488641E+02  0.63150017519E+02  0.10090639241E+03  0.12843079382E+03  0.00000000000E+00 0.  1.
<mgrwt>
<rscale>  0 0.27830346E+04</rscale>
<asrwt>0</asrwt>
<pdfrwt beam="1">  1        2 0.19097421E+00 0.27830346E+04</pdfrwt>
<pdfrwt beam="2">  1       -1 0.23998042E+00 0.27830346E+04</pdfrwt>
<totfact> 0.14409564E+00</totfact>
</mgrwt>
</event>
<event>
12    6  0.1402540E-007  0.2501203E+04  0.7818608E-02  0.8402557E-01
         -1   -1    0    0    0  501 -0.00000000000E+00  0.00000000000E+00  0.94881985621E+03  0.94881985621E+03  0.00000000000E+00 0.  1.
          2   -1    0    0  501    0  0.00000000000E+00 -0.00000000000E+00 -0.16483680938E+04  0.16483680938E+04  0.00000000000E+00 0. -1.
         24    2    1    2    0    0  0.80792689753E+03 -0.20941691076E+03  0.41840555160E+03  0.93693807539E+03  0.78666620933E+02 0.  0.
        254    2    1    2    0    0 -0.80792689753E+03  0.20941691076E+03 -0.11179537892E+04  0.16602498746E+04  0.90000425395E+03 0.  0.
         23    2    4    4    0    0 -0.14380340068E+03 -0.25933522709E+03 -0.47087493766E+02  0.31334539462E+03  0.89632171712E+02 0.  0.
         23    2    4    4    0    0 -0.66412349685E+03  0.46875213785E+03 -0.10708662954E+04  0.13469044800E+04  0.81292494914E+02 0.  0.
          4    1    3    3  502    0  0.47642556326E+03 -0.97986186239E+02  0.20975879883E+03  0.52969931444E+03  0.00000000000E+00 0. -1.
         -3    1    3    3    0  502  0.33150133426E+03 -0.11143072452E+03  0.20864675277E+03  0.40723876096E+03  0.00000000000E+00 0.  1.
         11    1    5    5    0    0 -0.62399988624E+02 -0.17084975507E+03  0.58293945662E+01  0.18198181016E+03  0.00000000000E+00 0. -1.
        -11    1    5    5    0    0 -0.81403412051E+02 -0.88485472021E+02 -0.52916888332E+02  0.13136358446E+03  0.00000000000E+00 0.  1.
          4    1    6    6  503    0 -0.48259859956E+03  0.33217345561E+03 -0.71028463733E+03  0.92073062235E+03  0.00000000000E+00 0. -1.
         -4    1    6    6    0  503 -0.18152489729E+03  0.13657868224E+03 -0.36058165810E+03  0.42617385764E+03  0.00000000000E+00 0.  1.
<mgrwt>
<rscale>  0 0.25012032E+04</rscale>
<asrwt>0</asrwt>
<pdfrwt beam="1">  1        2 0.25359509E+00 0.25012032E+04</pdfrwt>
<pdfrwt beam="2">  1       -1 0.14597229E+00 0.25012032E+04</pdfrwt>
<totfact> 0.39938846E+00</totfact>
</mgrwt>
</event>
<event>
12    6  0.1402540E-007  0.3292426E+04  0.7818608E-02  0.8164825E-01
         -1   -1    0    0    0  501 -0.00000000000E+00  0.00000000000E+00  0.10543887450E+04  0.10543887450E+04  0.00000000000E+00 0.  1.
          2   -1    0    0  501    0  0.00000000000E+00 -0.00000000000E+00 -0.25702254399E+04  0.25702254399E+04  0.00000000000E+00 0. -1.
         24    2    1    2    0    0 -0.14164124703E+04  0.12850124360E+03 -0.10712668300E+03  0.14285236187E+04  0.80416089215E+02 0.  0.
        254    2    1    2    0    0  0.14164124703E+04 -0.12850124360E+03 -0.14087100119E+04  0.21960905662E+04  0.90311296191E+03 0.  0.
         23    2    4    4    0    0  0.14724923052E+04 -0.22904618924E+03 -0.14055127481E+04  0.20504312374E+04  0.90035707755E+02 0.  0.
         23    2    4    4    0    0 -0.56079834940E+02  0.10054494564E+03 -0.31972637874E+01  0.14565932880E+03  0.89175016624E+02 0.  0.
          2    1    3    3  502    0 -0.10068334678E+04  0.11740775887E+03 -0.10185667299E+03  0.10187605192E+04  0.00000000000E+00 0. -1.
         -1    1    3    3    0  502 -0.40957900246E+03  0.11093484721E+02 -0.52700100125E+01  0.40976309944E+03  0.00000000000E+00 0.  1.
         11    1    5    5    0    0  0.54479791794E+03 -0.57680447292E+02 -0.56373205454E+03  0.78608246050E+03  0.00000000000E+00 0. -1.
        -11    1    5    5    0    0  0.92769438725E+03 -0.17136574195E+03 -0.84178069357E+03  0.12643487769E+04  0.00000000000E+00 0.  1.
          1    1    6    6  503    0 -0.10161138425E+02 -0.11884864735E+02  0.16381051087E+02  0.22645917482E+02  0.00000000000E+00 0. -1.
         -1    1    6    6    0  503 -0.45918696515E+02  0.11242981038E+03 -0.19578314874E+02  0.12301341132E+03  0.00000000000E+00 0.  1.
<mgrwt>
<rscale>  0 0.32924257E+04</rscale>
<asrwt>0</asrwt>
<pdfrwt beam="1">  1        2 0.39541930E+00 0.32924257E+04</pdfrwt>
<pdfrwt beam="2">  1       -1 0.16221365E+00 0.32924257E+04</pdfrwt>
<totfact> 0.84578994E-01</totfact>
</mgrwt>
</event>
<event>
12    6  0.1402540E-007  0.1458543E+04  0.7818608E-02  0.8912499E-01
         -1   -1    0    0    0  501 -0.00000000000E+00  0.00000000000E+00  0.20509563328E+03  0.20509563328E+03  0.00000000000E+00 0.  1.
          2   -1    0    0  501    0  0.00000000000E+00 -0.00000000000E+00 -0.25931159700E+04  0.25931159700E+04  0.00000000000E+00 0. -1.
         24    2    1    2    0    0 -0.20931305864E+03  0.75867337205E+02 -0.14859465117E+04  0.15048436241E+04  0.83363588624E+02 0.  0.
        254    2    1    2    0    0  0.20931305864E+03 -0.75867337205E+02 -0.90207382504E+03  0.12933679792E+04  0.89971980888E+03 0.  0.
         23    2    4    4    0    0 -0.19757729878E+03  0.29629216408E+03 -0.35340176516E+03  0.51023630781E+03  0.92857130583E+02 0.  0.
         23    2    4    4    0    0  0.40689035742E+03 -0.37215950129E+03 -0.54867205987E+03  0.78313167141E+03  0.90508166013E+02 0.  0.
          4    1    3    3  502    0 -0.14033605000E+02  0.20965721926E+02 -0.35147927215E+03  0.35238357271E+03  0.00000000000E+00 0. -1.
         -3    1    3    3    0  502 -0.19527945364E+03  0.54901615279E+02 -0.11344672395E+04  0.11524600514E+04  0.00000000000E+00 0.  1.
         11    1    5    5    0    0 -0.55012546921E+01 -0.59733135509E+01 -0.17167695619E+01  0.83000949207E+01  0.00000000000E+00 0.  1.
        -11    1    5    5    0    0 -0.19207604409E+03  0.30226547763E+03 -0.35168499560E+03  0.50193621289E+03  0.00000000000E+00 0. -1.
          3    1    6    6  503    0  0.23775122507E+03 -0.22365559188E+03 -0.26139591118E+03  0.41818093116E+03  0.00000000000E+00 0. -1.
         -3    1    6    6    0  503  0.16913913236E+03 -0.14850390940E+03 -0.28727614869E+03  0.36495074025E+03  0.00000000000E+00 0.  1.
<mgrwt>
<rscale>  0 0.14585428E+04</rscale>
<asrwt>0</asrwt>
<pdfrwt beam="1">  1        2 0.39894091E+00 0.14585428E+04</pdfrwt>
<pdfrwt beam="2">  1       -1 0.31553175E-01 0.14585428E+04</pdfrwt>
<totfact> 0.31771139E+01</totfact>
</mgrwt>
</event>
<event>
12    6  0.1402540E-007  0.1473883E+04  0.7818608E-02  0.8902008E-01
         -1   -1    0    0    0  501 -0.00000000000E+00  0.00000000000E+00  0.39266289984E+03  0.39266289984E+03  0.00000000000E+00 0.  1.
          2   -1    0    0  501    0  0.00000000000E+00 -0.00000000000E+00 -0.13830770006E+04  0.13830770006E+04  0.00000000000E+00 0. -1.
         24    2    1    2    0    0  0.27618066588E+03  0.10276583800E+03 -0.73396801354E+03  0.79490844644E+03  0.79585272900E+02 0.  0.
        254    2    1    2    0    0 -0.27618066588E+03 -0.10276583800E+03 -0.25644608720E+03  0.98083145398E+03  0.89968281511E+03 0.  0.
         23    2    4    4    0    0 -0.55491954137E+03 -0.23737966266E+03 -0.24558139722E+03  0.65792333942E+03  0.90929072636E+02 0.  0.
         23    2    4    4    0    0  0.27873887549E+03  0.13461382466E+03 -0.10864689983E+02  0.32290811456E+03  0.91298228137E+02 0.  0.
          4    1    3    3  502    0  0.18576144386E+03  0.10719520567E+03 -0.50151717591E+03  0.54545174294E+03  0.00000000000E+00 0. -1.
         -3    1    3    3    0  502  0.90419222024E+02 -0.44293676650E+01 -0.23245083763E+03  0.24945670350E+03  0.00000000000E+00 0.  1.
         11    1    5    5    0    0 -0.36486618459E+03 -0.11570149682E+03 -0.12902498887E+03  0.40393268842E+03  0.00000000000E+00 0. -1.
        -11    1    5    5    0    0 -0.19005335679E+03 -0.12167816584E+03 -0.11655640834E+03  0.25399065100E+03  0.00000000000E+00 0.  1.
          1    1    6    6  503    0  0.24952898035E+03  0.11822062481E+03 -0.39389013879E+02  0.27891275083E+03  0.00000000000E+00 0. -1.
         -1    1    6    6    0  503  0.29209895142E+02  0.16393199847E+02  0.28524323896E+02  0.43995363723E+02  0.00000000000E+00 0.  1.
<mgrwt>
<rscale>  0 0.14738833E+04</rscale>
<asrwt>0</asrwt>
<pdfrwt beam="1">  1        2 0.21278108E+00 0.14738833E+04</pdfrwt>
<pdfrwt beam="2">  1       -1 0.60409677E-01 0.14738833E+04</pdfrwt>
<totfact> 0.45367566E+01</totfact>
</mgrwt>
</event>
<event>
12    6  0.1402540E-007  0.1854945E+04  0.7818608E-02  0.8677614E-01
         -1   -1    0    0    0  501 -0.00000000000E+00  0.00000000000E+00  0.83412250160E+03  0.83412250160E+03  0.00000000000E+00 0.  1.
          2   -1    0    0  501    0  0.00000000000E+00 -0.00000000000E+00 -0.10312694841E+04  0.10312694841E+04  0.00000000000E+00 0. -1.
         24    2    1    2    0    0 -0.37095925708E+03  0.51900437287E+03  0.22716698712E+03  0.68223549141E+03  0.82849962130E+02 0.  0.
        254    2    1    2    0    0  0.37095925708E+03 -0.51900437287E+03 -0.42431396959E+03  0.11831564942E+04  0.90157674971E+03 0.  0.
         23    2    4    4    0    0  0.27279766487E+03 -0.63514336793E+03 -0.60990577292E+03  0.92623655486E+03  0.90019108747E+02 0.  0.
         23    2    4    4    0    0  0.98161592218E+02  0.11613899505E+03  0.18559180333E+03  0.25691993939E+03  0.91867150999E+02 0.  0.
          4    1    3    3  502    0 -0.42084617595E+02  0.10493659278E+03  0.22814735799E+02  0.11534000049E+03  0.00000000000E+00 0. -1.
         -3    1    3    3    0  502 -0.32887463949E+03  0.41406778009E+03  0.20435225132E+03  0.56689549092E+03  0.00000000000E+00 0.  1.
         11    1    5    5    0    0  0.33920769472E+02 -0.17560287821E+03 -0.14445756402E+03  0.22990210360E+03  0.00000000000E+00 0. -1.
        -11    1    5    5    0    0  0.23887689539E+03 -0.45954048972E+03 -0.46544820890E+03  0.69633445126E+03  0.00000000000E+00 0.  1.
          4    1    6    6  503    0  0.10425052675E+03  0.58381567824E+02  0.12082521876E+03  0.16992737648E+03  0.00000000000E+00 0. -1.
         -4    1    6    6    0  503 -0.60889345340E+01  0.57757427230E+02  0.64766584572E+02  0.86992562907E+02  0.00000000000E+00 0.  1.
<mgrwt>
<rscale>  0 0.18549448E+04</rscale>
<asrwt>0</asrwt>
<pdfrwt beam="1">  1        2 0.15865684E+00 0.18549448E+04</pdfrwt>
<pdfrwt beam="2">  1       -1 0.12832654E+00 0.18549448E+04</pdfrwt>
<totfact> 0.13516861E+01</totfact>
</mgrwt>
</event>
<event>
12    6  0.1402540E-007  0.1953797E+04  0.7818608E-02  0.8628532E-01
         -1   -1    0    0    0  501 -0.00000000000E+00  0.00000000000E+00  0.11036291508E+04  0.11036291508E+04  0.00000000000E+00 0.  1.
          2   -1    0    0  501    0  0.00000000000E+00 -0.00000000000E+00 -0.86472072033E+03  0.86472072033E+03  0.00000000000E+00 0. -1.
         24    2    1    2    0    0  0.75670063766E+03 -0.26546319883E+02 -0.29971302913E+02  0.76199563413E+03  0.80240297207E+02 0.  0.
        254    2    1    2    0    0 -0.75670063766E+03  0.26546319883E+02  0.26887973340E+03  0.12063542370E+04  0.89982980169E+03 0.  0.
         23    2    4    4    0    0 -0.82364751656E+03 -0.25161779836E+03  0.12824027806E+03  0.87542696217E+03  0.90664486937E+02 0.  0.
         23    2    4    4    0    0  0.66946878899E+02  0.27816411825E+03  0.14063945534E+03  0.33092727485E+03  0.88748203181E+02 0.  0.
          4    1    3    3  502    0  0.29924152578E+03 -0.17418256215E+02  0.26767891551E+02  0.30094086864E+03  0.00000000000E+00 0. -1.
         -3    1    3    3    0  502  0.45745911189E+03 -0.91280636673E+01 -0.56739194463E+02  0.46105476549E+03  0.00000000000E+00 0.  1.
         11    1    5    5    0    0 -0.33280650373E+03 -0.13302217835E+03  0.19822203831E+02  0.35895402020E+03  0.00000000000E+00 0.  1.
        -11    1    5    5    0    0 -0.49084101283E+03 -0.11859562001E+03  0.10841807423E+03  0.51647294197E+03  0.00000000000E+00 0. -1.
          3    1    6    6  503    0  0.53741728889E+02  0.17146709979E+03  0.40925445366E+02  0.18429333090E+03  0.00000000000E+00 0. -1.
         -3    1    6    6    0  503  0.13205150009E+02  0.10669701845E+03  0.99714009975E+02  0.14663394395E+03  0.00000000000E+00 0.  1.
<mgrwt>
<rscale>  0 0.19537973E+04</rscale>
<asrwt>0</asrwt>
<pdfrwt beam="1">  1        2 0.13303396E+00 0.19537973E+04</pdfrwt>
<pdfrwt beam="2">  1       -1 0.16978910E+00 0.19537973E+04</pdfrwt>
<totfact> 0.81459193E+00</totfact>
</mgrwt>
</event>
<event>
12    6  0.1402540E-007  0.2648134E+04  0.7818608E-02  0.8352033E-01
          2   -1    0    0  501    0  0.00000000000E+00  0.00000000000E+00  0.21550889141E+04  0.21550889141E+04  0.00000000000E+00 0. -1.
         -1   -1    0    0    0  501 -0.00000000000E+00 -0.00000000000E+00 -0.81349450738E+03  0.81349450738E+03  0.00000000000E+00 0.  1.
         24    2    1    2    0    0  0.67273177858E+02  0.57211897508E+03  0.17350980189E+04  0.18300797037E+04  0.82345518795E+02 0.  0.
        254    2    1    2    0    0 -0.67273177858E+02 -0.57211897508E+03 -0.39350361221E+03  0.11385037178E+04  0.89972207958E+03 0.  0.
         23    2    4    4    0    0 -0.74905484808E+02 -0.70761934007E+03 -0.56972468449E+01  0.71762543515E+03  0.92832345904E+02 0.  0.
         23    2    4    4    0    0  0.76323069493E+01  0.13550036499E+03 -0.38780636536E+03  0.42087828264E+03  0.91247743834E+02 0.  0.
          2    1    3    3  502    0  0.35350470507E+02  0.35581922492E+03  0.11967346628E+04  0.12490119414E+04  0.00000000000E+00 0. -1.
         -1    1    3    3    0  502  0.31922707351E+02  0.21629975016E+03  0.53836335616E+03  0.58106776233E+03  0.00000000000E+00 0.  1.
         11    1    5    5    0    0 -0.27070502440E+02 -0.26311984440E+03  0.42753695290E+02  0.26794167851E+03  0.00000000000E+00 0. -1.
        -11    1    5    5    0    0 -0.47834982368E+02 -0.44449949567E+03 -0.48450942135E+02  0.44968375664E+03  0.00000000000E+00 0.  1.
          1    1    6    6  503    0  0.20147566253E+02  0.12847044139E+03 -0.24518224057E+03  0.27753361928E+03  0.00000000000E+00 0.  1.
         -1    1    6    6    0  503 -0.12515259304E+02  0.70299236079E+01 -0.14262412479E+03  0.14334466336E+03  0.00000000000E+00 0. -1.
<mgrwt>
<rscale>  0 0.26481337E+04</rscale>
<asrwt>0</asrwt>
<pdfrwt beam="1">  1        2 0.33155214E+00 0.26481337E+04</pdfrwt>
<pdfrwt beam="2">  1       -1 0.12515300E+00 0.26481337E+04</pdfrwt>
<totfact> 0.30597478E+00</totfact>
</mgrwt>
</event>
<event>
12    6  0.1402540E-007  0.3202877E+04  0.7818608E-02  0.8188058E-01
          2   -1    0    0  501    0  0.00000000000E+00  0.00000000000E+00  0.15054003064E+04  0.15054003064E+04  0.00000000000E+00 0. -1.
         -1   -1    0    0    0  501 -0.00000000000E+00 -0.00000000000E+00 -0.17036034356E+04  0.17036034356E+04  0.00000000000E+00 0.  1.
         24    2    1    2    0    0 -0.10049837664E+04 -0.44002521556E+03 -0.10768264435E+04  0.15396166914E+04  0.85145792791E+02 0.  0.
        254    2    1    2    0    0  0.10049837664E+04  0.44002521556E+03  0.87862331437E+03  0.16693870506E+04  0.90069952541E+03 0.  0.
         23    2    4    4    0    0 -0.55833187034E+02 -0.11137831049E+03  0.30475969408E+03  0.34013215399E+03  0.85375278734E+02 0.  0.
         23    2    4    4    0    0  0.10608169534E+04  0.55140352605E+03  0.57386362028E+03  0.13292548966E+04  0.90667900647E+02 0.  0.
          4    1    3    3  502    0 -0.38404322542E+03 -0.12964913466E+03 -0.36773854265E+03  0.54729309594E+03  0.00000000000E+00 0. -1.
         -3    1    3    3    0  502 -0.62094054099E+03 -0.31037608091E+03 -0.70908790086E+03  0.99232359550E+03  0.00000000000E+00 0.  1.
         11    1    5    5    0    0 -0.41546096449E+02 -0.45989138788E+02  0.59540837651E+02  0.85942948313E+02  0.00000000000E+00 0.  1.
        -11    1    5    5    0    0 -0.14287090585E+02 -0.65389171702E+02  0.24521885643E+03  0.25418920568E+03  0.00000000000E+00 0. -1.
          2    1    6    6  503    0  0.25598832374E+03  0.13915519880E+03  0.97893445041E+02  0.30737162821E+03  0.00000000000E+00 0. -1.
         -2    1    6    6    0  503  0.80482862971E+03  0.41224832725E+03  0.47597017524E+03  0.10218832684E+04  0.00000000000E+00 0.  1.
<mgrwt>
<rscale>  0 0.32028769E+04</rscale>
<asrwt>0</asrwt>
<pdfrwt beam="1">  1        2 0.23160005E+00 0.32028769E+04</pdfrwt>
<pdfrwt beam="2">  1       -1 0.26209284E+00 0.32028769E+04</pdfrwt>
<totfact> 0.70254735E-01</totfact>
</mgrwt>
</event>
<event>
12    6  0.1402540E-007  0.1723769E+04  0.7818608E-02  0.8747923E-01
          2   -1    0    0  501    0  0.00000000000E+00  0.00000000000E+00  0.18260137130E+04  0.18260137130E+04  0.00000000000E+00 0. -1.
         -1   -1    0    0    0  501 -0.00000000000E+00 -0.00000000000E+00 -0.40681219072E+03  0.40681219072E+03  0.00000000000E+00 0.  1.
         24    2    1    2    0    0  0.34770085000E+03 -0.35163242491E+03  0.26895018741E+02  0.50160965727E+03  0.79672221598E+02 0.  0.
        254    2    1    2    0    0 -0.34770085000E+03  0.35163242491E+03  0.13923065035E+04  0.17312162464E+04  0.90224777576E+03 0.  0.
         23    2    4    4    0    0 -0.59932963584E+03  0.24163058066E+02  0.80389225313E+03  0.10078905783E+04  0.99099936351E+02 0.  0.
         23    2    4    4    0    0  0.25162878584E+03  0.32746936684E+03  0.58841425040E+03  0.72332566816E+03  0.80096567132E+02 0.  0.
          4    1    3    3  502    0  0.90441281620E+02 -0.82904238894E+02  0.40902645680E+02  0.12932812792E+03  0.00000000000E+00 0. -1.
         -3    1    3    3    0  502  0.25725956838E+03 -0.26872818601E+03 -0.14007626939E+02  0.37228152935E+03  0.00000000000E+00 0.  1.
         11    1    5    5    0    0 -0.54553380987E+02  0.28371669314E+02  0.60671939339E+02  0.86383489278E+02  0.00000000000E+00 0. -1.
        -11    1    5    5    0    0 -0.54477625485E+03 -0.42086112480E+01  0.74322031379E+03  0.92150708901E+03  0.00000000000E+00 0.  1.
          3    1    6    6  503    0  0.64933887239E+02  0.36124789384E+02  0.93221078268E+02  0.11921232970E+03  0.00000000000E+00 0. -1.
         -3    1    6    6    0  503  0.18669489860E+03  0.29134457746E+03  0.49519317213E+03  0.60411333845E+03  0.00000000000E+00 0.  1.
<mgrwt>
<rscale>  0 0.17237687E+04</rscale>
<asrwt>0</asrwt>
<pdfrwt beam="1">  1        2 0.28092518E+00 0.17237687E+04</pdfrwt>
<pdfrwt beam="2">  1       -1 0.62586492E-01 0.17237687E+04</pdfrwt>
<totfact> 0.23380410E+01</totfact>
</mgrwt>
</event>
<event>
12    6  0.1402540E-007  0.2137561E+04  0.7818608E-02  0.8544876E-01
         -1   -1    0    0    0  501 -0.00000000000E+00  0.00000000000E+00  0.12553782696E+04  0.12553782696E+04  0.00000000000E+00 0.  1.
          2   -1    0    0  501    0  0.00000000000E+00 -0.00000000000E+00 -0.90991826113E+03  0.90991826113E+03  0.00000000000E+00 0. -1.
         24    2    1    2    0    0  0.75324954987E+03  0.32361692313E+03 -0.17146983307E+03  0.84192820179E+03  0.85606051282E+02 0.  0.
        254    2    1    2    0    0 -0.75324954987E+03 -0.32361692313E+03  0.51692984155E+03  0.13233683289E+04  0.90109626325E+03 0.  0.
         23    2    4    4    0    0 -0.63017707172E+03  0.14478981755E+02  0.66985092805E+03  0.92434935221E+03  0.91589718306E+02 0.  0.
         23    2    4    4    0    0 -0.12307247815E+03 -0.33809590488E+03 -0.15292108650E+03  0.39901897673E+03  0.79847412713E+02 0.  0.
          4    1    3    3  502    0  0.41934109075E+03  0.13419876694E+03 -0.98068948824E+02  0.45108067811E+03  0.00000000000E+00 0. -1.
         -3    1    3    3    0  502  0.33390845912E+03  0.18941815619E+03 -0.73400884248E+02  0.39084752369E+03  0.00000000000E+00 0.  1.
         11    1    5    5    0    0 -0.39385037579E+03 -0.14907982025E+02  0.36210238413E+03  0.53521818264E+03  0.00000000000E+00 0. -1.
        -11    1    5    5    0    0 -0.23632669592E+03  0.29386963781E+02  0.30774854392E+03  0.38913116957E+03  0.00000000000E+00 0.  1.
          2    1    6    6  503    0  0.66694963669E+01 -0.58063905544E+02 -0.37880978951E+02  0.69648172087E+02  0.00000000000E+00 0. -1.
         -2    1    6    6    0  503 -0.12974197452E+03 -0.28003199934E+03 -0.11504010755E+03  0.32937080464E+03  0.00000000000E+00 0.  1.
<mgrwt>
<rscale>  0 0.21375609E+04</rscale>
<asrwt>0</asrwt>
<pdfrwt beam="1">  1        2 0.13998743E+00 0.21375609E+04</pdfrwt>
<pdfrwt beam="2">  1       -1 0.19313512E+00 0.21375609E+04</pdfrwt>
<totfact> 0.50828164E+00</totfact>
</mgrwt>
</event>
<event>
12    6  0.1402540E-007  0.1709031E+04  0.7818608E-02  0.8756230E-01
         -1   -1    0    0    0  501 -0.00000000000E+00  0.00000000000E+00  0.51143366288E+03  0.51143366288E+03  0.00000000000E+00 0.  1.
          2   -1    0    0  501    0  0.00000000000E+00 -0.00000000000E+00 -0.14277445482E+04  0.14277445482E+04  0.00000000000E+00 0. -1.
         24    2    1    2    0    0 -0.60648990062E+03 -0.98746560557E+01 -0.21609429926E+03  0.64868706381E+03  0.78553498946E+02 0.  0.
        254    2    1    2    0    0  0.60648990062E+03  0.98746560557E+01 -0.70021658602E+03  0.12904911472E+04  0.89840782798E+03 0.  0.
         23    2    4    4    0    0  0.19368673889E+03  0.43384052184E+03 -0.34734114017E+03  0.59586390354E+03  0.93143827920E+02 0.  0.
         23    2    4    4    0    0  0.41280316173E+03 -0.42396586578E+03 -0.35287544585E+03  0.69462724370E+03  0.88500970131E+02 0.  0.
          4    1    3    3  502    0 -0.25524263409E+03 -0.31353540509E+02 -0.12073088220E+03  0.28409116966E+03  0.00000000000E+00 0. -1.
         -3    1    3    3    0  502 -0.35124726653E+03  0.21478884454E+02 -0.95363417066E+02  0.36459589415E+03  0.00000000000E+00 0.  1.
         11    1    5    5    0    0  0.35013236997E+02  0.16459201482E+03 -0.88854161515E+02  0.19029324771E+03  0.00000000000E+00 0.  1.
        -11    1    5    5    0    0  0.15867350189E+03  0.26924850702E+03 -0.25848697866E+03  0.40557065583E+03  0.00000000000E+00 0. -1.
          2    1    6    6  503    0  0.30559488400E+03 -0.26335839589E+03 -0.21307194916E+03  0.45622969361E+03  0.00000000000E+00 0. -1.
         -2    1    6    6    0  503  0.10720827773E+03 -0.16060746989E+03 -0.13980349669E+03  0.23839755008E+03  0.00000000000E+00 0.  1.
<mgrwt>
<rscale>  0 0.17090309E+04</rscale>
<asrwt>0</asrwt>
<pdfrwt beam="1">  1        2 0.21965301E+00 0.17090309E+04</pdfrwt>
<pdfrwt beam="2">  1       -1 0.78682102E-01 0.17090309E+04</pdfrwt>
<totfact> 0.24433061E+01</totfact>
</mgrwt>
</event>
<event>
12    6  0.1402540E-007  0.2076803E+04  0.7818608E-02  0.8571531E-01
          2   -1    0    0  501    0  0.00000000000E+00  0.00000000000E+00  0.70413921090E+03  0.70413921090E+03  0.00000000000E+00 0. -1.
         -1   -1    0    0    0  501 -0.00000000000E+00 -0.00000000000E+00 -0.15313415400E+04  0.15313415400E+04  0.00000000000E+00 0.  1.
         24    2    1    2    0    0 -0.75834803656E+03 -0.35554310970E+03 -0.24915260260E+03  0.87734175652E+03  0.78414864239E+02 0.  0.
        254    2    1    2    0    0  0.75834803656E+03  0.35554310970E+03 -0.57804972651E+03  0.13581389944E+04  0.89938723270E+03 0.  0.
         23    2    4    4    0    0  0.68662143643E+03 -0.15025612240E+03 -0.30136037418E+03  0.77015293677E+03  0.91058067261E+02 0.  0.
         23    2    4    4    0    0  0.71726600135E+02  0.50579923210E+03 -0.27668935233E+03  0.58798605761E+03  0.90515401414E+02 0.  0.
          2    1    3    3  502    0 -0.12575201051E+03 -0.84697330651E+02 -0.25322642977E+02  0.15371545860E+03  0.00000000000E+00 0. -1.
         -1    1    3    3    0  502 -0.63259602605E+03 -0.27084577905E+03 -0.22382995962E+03  0.72362629791E+03  0.00000000000E+00 0.  1.
         11    1    5    5    0    0  0.10665135533E+03 -0.57733288749E+02 -0.45370483899E+02  0.12948407250E+03  0.00000000000E+00 0.  1.
        -11    1    5    5    0    0  0.57997008110E+03 -0.92522833656E+02 -0.25598989028E+03  0.64066886427E+03  0.00000000000E+00 0. -1.
          1    1    6    6  503    0  0.14916710534E+02  0.12307268185E+03 -0.11342295638E+03  0.16803023628E+03  0.00000000000E+00 0. -1.
         -1    1    6    6    0  503  0.56809889601E+02  0.38272655025E+03 -0.16326639595E+03  0.41995582133E+03  0.00000000000E+00 0.  1.
<mgrwt>
<rscale>  0 0.20768030E+04</rscale>
<asrwt>0</asrwt>
<pdfrwt beam="1">  1        2 0.10832911E+00 0.20768030E+04</pdfrwt>
<pdfrwt beam="2">  1       -1 0.23559100E+00 0.20768030E+04</pdfrwt>
<totfact> 0.37147630E+00</totfact>
</mgrwt>
</event>
<event>
12    6  0.1402540E-007  0.3531488E+04  0.7818608E-02  0.8106368E-01
         -1   -1    0    0    0  501 -0.00000000000E+00  0.00000000000E+00  0.10516484387E+04  0.10516484387E+04  0.00000000000E+00 0.  1.
          2   -1    0    0  501    0  0.00000000000E+00 -0.00000000000E+00 -0.29647283943E+04  0.29647283943E+04  0.00000000000E+00 0. -1.
         24    2    1    2    0    0 -0.15504490986E+04 -0.52501268181E+03 -0.11305501307E+04  0.19909708462E+04  0.79313234553E+02 0.  0.
        254    2    1    2    0    0  0.15504490986E+04  0.52501268181E+03 -0.78252982494E+03  0.20254059868E+04  0.90021428617E+03 0.  0.
         23    2    4    4    0    0 -0.84361020369E+02  0.13722835593E+03 -0.97356549779E+02  0.20867236572E+03  0.90096920036E+02 0.  0.
         23    2    4    4    0    0  0.16348101189E+04  0.38778432589E+03 -0.68517327516E+03  0.18167336211E+04  0.89876718383E+02 0.  0.
          4    1    3    3  502    0 -0.96011912602E+03 -0.29011919319E+03 -0.66791261192E+03  0.12050332525E+04  0.00000000000E+00 0. -1.
         -3    1    3    3    0  502 -0.59032997255E+03 -0.23489348862E+03 -0.46263751881E+03  0.78593759377E+03  0.00000000000E+00 0.  1.
         11    1    5    5    0    0  0.30122385622E+01  0.29461181901E+02  0.12064820803E+02  0.31978034980E+02  0.00000000000E+00 0. -1.
        -11    1    5    5    0    0 -0.87373258931E+02  0.10776717403E+03 -0.10942137058E+03  0.17669433074E+03  0.00000000000E+00 0.  1.
          3    1    6    6  503    0  0.32019244203E+03  0.64675321105E+02 -0.97175603704E+02  0.34080668281E+03  0.00000000000E+00 0. -1.
         -3    1    6    6    0  503  0.13146176769E+04  0.32310900478E+03 -0.58799767145E+03  0.14759269383E+04  0.00000000000E+00 0.  1.
<mgrwt>
<rscale>  0 0.35314881E+04</rscale>
<asrwt>0</asrwt>
<pdfrwt beam="1">  1        2 0.45611206E+00 0.35314881E+04</pdfrwt>
<pdfrwt beam="2">  1       -1 0.16179207E+00 0.35314881E+04</pdfrwt>
<totfact> 0.48266641E-01</totfact>
</mgrwt>
</event>
<event>
12    6  0.1402540E-007  0.2359846E+04  0.7818608E-02  0.8454692E-01
          2   -1    0    0  501    0  0.00000000000E+00  0.00000000000E+00  0.12478212462E+04  0.12478212462E+04  0.00000000000E+00 0. -1.
         -1   -1    0    0    0  501 -0.00000000000E+00 -0.00000000000E+00 -0.11157190678E+04  0.11157190678E+04  0.00000000000E+00 0.  1.
         24    2    1    2    0    0 -0.53734158974E+03  0.62194848493E+03  0.63809091389E+03  0.10437000829E+04  0.81203120421E+02 0.  0.
        254    2    1    2    0    0  0.53734158974E+03 -0.62194848493E+03 -0.50598873544E+03  0.13198402310E+04  0.90022093570E+03 0.  0.
         23    2    4    4    0    0  0.52149773162E+03 -0.38666041586E+03 -0.73095285853E+03  0.98179404025E+03  0.90339884777E+02 0.  0.
         23    2    4    4    0    0  0.15843858112E+02 -0.23528806907E+03  0.22496412309E+03  0.33804619078E+03  0.89748911615E+02 0.  0.
          2    1    3    3  502    0 -0.35095215706E+03  0.45598635611E+03  0.46776130734E+03  0.74154677138E+03  0.00000000000E+00 0. -1.
         -1    1    3    3    0  502 -0.18638943268E+03  0.16596212882E+03  0.17032960655E+03  0.30215331156E+03  0.00000000000E+00 0.  1.
         11    1    5    5    0    0  0.16681714596E+03 -0.13244793168E+03 -0.30480999297E+03  0.37185957915E+03  0.00000000000E+00 0.  1.
        -11    1    5    5    0    0  0.35468058566E+03 -0.25421248418E+03 -0.42614286557E+03  0.60993446110E+03  0.00000000000E+00 0. -1.
          1    1    6    6  503    0 -0.35684108789E+02 -0.10979880217E+03  0.87013995106E+02  0.14457028713E+03  0.00000000000E+00 0. -1.
         -1    1    6    6    0  503  0.51527966901E+02 -0.12548926690E+03  0.13795012799E+03  0.19347590365E+03  0.00000000000E+00 0.  1.
<mgrwt>
<rscale>  0 0.23598457E+04</rscale>
<asrwt>0</asrwt>
<pdfrwt beam="1">  1        2 0.19197250E+00 0.23598457E+04</pdfrwt>
<pdfrwt beam="2">  1       -1 0.17164909E+00 0.23598457E+04</pdfrwt>
<totfact> 0.43652696E+00</totfact>
</mgrwt>
</event>
<event>
12    6  0.1402540E-007  0.2387621E+04  0.7818608E-02  0.8444153E-01
         -1   -1    0    0    0  501 -0.00000000000E+00  0.00000000000E+00  0.91143263053E+03  0.91143263053E+03  0.00000000000E+00 0.  1.
          2   -1    0    0  501    0  0.00000000000E+00 -0.00000000000E+00 -0.15636737845E+04  0.15636737845E+04  0.00000000000E+00 0. -1.
         24    2    1    2    0    0 -0.19753253530E+03 -0.71873317248E+03  0.44475647686E+03  0.87156544928E+03  0.78876694659E+02 0.  0.
        254    2    1    2    0    0  0.19753253530E+03  0.71873317248E+03 -0.10969976308E+04  0.16035409657E+04  0.90130092147E+03 0.  0.
         23    2    4    4    0    0  0.45109265709E+02 -0.20075357972E+03 -0.30086997971E+03  0.37439067502E+03  0.85491445348E+02 0.  0.
         23    2    4    4    0    0  0.15242326959E+03  0.91948675220E+03 -0.79612765111E+03  0.12291502907E+04  0.91117834263E+02 0.  0.
          4    1    3    3  502    0 -0.16562336329E+03 -0.46232746558E+03  0.28604200470E+03  0.56832896491E+03  0.00000000000E+00 0. -1.
         -1    1    3    3    0  502 -0.31909172015E+02 -0.25640570689E+03  0.15871447216E+03  0.30323648438E+03  0.00000000000E+00 0.  1.
         11    1    5    5    0    0  0.67335227514E+02 -0.16713617815E+03 -0.22291737754E+03  0.28663686456E+03  0.00000000000E+00 0. -1.
        -11    1    5    5    0    0 -0.22225961805E+02 -0.33617401570E+02 -0.77952602170E+02  0.87753810468E+02  0.00000000000E+00 0.  1.
          1    1    6    6  503    0  0.41410152006E+02  0.46821417656E+03 -0.36320090476E+03  0.59401533065E+03  0.00000000000E+00 0. -1.
         -1    1    6    6    0  503  0.11101311759E+03  0.45127257564E+03 -0.43292674635E+03  0.63513496007E+03  0.00000000000E+00 0.  1.
<mgrwt>
<rscale>  0 0.23876208E+04</rscale>
<asrwt>0</asrwt>
<pdfrwt beam="1">  1        2 0.24056520E+00 0.23876208E+04</pdfrwt>
<pdfrwt beam="2">  1       -1 0.14022040E+00 0.23876208E+04</pdfrwt>
<totfact> 0.50018678E+00</totfact>
</mgrwt>
</event>
<event>
12    6  0.1402540E-007  0.2520120E+04  0.7818608E-02  0.8395853E-01
          2   -1    0    0  501    0  0.00000000000E+00  0.00000000000E+00  0.11492907024E+04  0.11492907024E+04  0.00000000000E+00 0. -1.
         -1   -1    0    0    0  501 -0.00000000000E+00 -0.00000000000E+00 -0.13815052282E+04  0.13815052282E+04  0.00000000000E+00 0.  1.
         24    2    1    2    0    0  0.29985358368E+03  0.85522611540E+03  0.52088822532E+03  0.10482452297E+04  0.78547044116E+02 0.  0.
        254    2    1    2    0    0 -0.29985358368E+03 -0.85522611540E+03 -0.75310275112E+03  0.14825507009E+04  0.89970492205E+03 0.  0.
         23    2    4    4    0    0 -0.30380115431E+03 -0.10980442947E+03 -0.63924144190E+03  0.72213325369E+03  0.92166484936E+02 0.  0.
         23    2    4    4    0    0  0.39475706290E+01 -0.74542168593E+03 -0.11386130921E+03  0.76041744716E+03  0.97985830876E+02 0.  0.
          4    1    3    3  502    0  0.30019216965E+03  0.80379340240E+03  0.48608530050E+03  0.98614303822E+03  0.00000000000E+00 0. -1.
         -3    1    3    3    0  502 -0.33858597452E+00  0.51432712998E+02  0.34802924822E+02  0.62102191450E+02  0.00000000000E+00 0.  1.
         11    1    5    5    0    0 -0.30183754821E+03 -0.11341672360E+03 -0.58699766796E+03  0.66972794543E+03  0.00000000000E+00 0.  1.
        -11    1    5    5    0    0 -0.19636060994E+01  0.36122941228E+01 -0.52243773948E+02  0.52405308262E+02  0.00000000000E+00 0. -1.
          2    1    6    6  503    0  0.62253800683E+00 -0.26173929384E+03  0.70694854456E+01  0.26183548866E+03  0.00000000000E+00 0. -1.
         -2    1    6    6    0  503  0.33250326221E+01 -0.48368239208E+03 -0.12093079466E+03  0.49858195851E+03  0.00000000000E+00 0.  1.
<mgrwt>
<rscale>  0 0.25201199E+04</rscale>
<asrwt>0</asrwt>
<pdfrwt beam="1">  1        2 0.17681396E+00 0.25201199E+04</pdfrwt>
<pdfrwt beam="2">  1       -1 0.21253926E+00 0.25201199E+04</pdfrwt>
<totfact> 0.25483081E+00</totfact>
</mgrwt>
</event>
<event>
12    6  0.1402540E-007  0.1543696E+04  0.7818608E-02  0.8855904E-01
          2   -1    0    0  501    0  0.00000000000E+00  0.00000000000E+00  0.80734463170E+03  0.80734463170E+03  0.00000000000E+00 0. -1.
         -1   -1    0    0    0  501 -0.00000000000E+00 -0.00000000000E+00 -0.73791242347E+03  0.73791242347E+03  0.00000000000E+00 0.  1.
         24    2    1    2    0    0 -0.23132244351E+03 -0.25218602059E+03 -0.34918400719E+03  0.49545406615E+03  0.80233402889E+02 0.  0.
        254    2    1    2    0    0  0.23132244351E+03  0.25218602059E+03  0.41861621542E+03  0.10498029890E+04  0.89985494280E+03 0.  0.
         23    2    4    4    0    0  0.47636790312E+03  0.17120964778E+03 -0.39650791236E+02  0.51595037656E+03  0.91615954995E+02 0.  0.
         23    2    4    4    0    0 -0.24504545961E+03  0.80976372812E+02  0.45826700666E+03  0.53385261246E+03  0.91572442412E+02 0.  0.
          2    1    3    3  502    0 -0.17174197858E+03 -0.12962796182E+03 -0.20988158413E+03  0.30058109563E+03  0.00000000000E+00 0. -1.
         -1    1    3    3    0  502 -0.59580464926E+02 -0.12255805877E+03 -0.13930242306E+03  0.19487297053E+03  0.00000000000E+00 0.  1.
         11    1    5    5    0    0  0.13593294245E+03  0.76922743183E+02  0.20790783120E+02  0.15756627153E+03  0.00000000000E+00 0.  1.
        -11    1    5    5    0    0  0.34043496067E+03  0.94286904596E+02 -0.60441574356E+02  0.35838410502E+03  0.00000000000E+00 0. -1.
          3    1    6    6  503    0 -0.20873230954E+03  0.51918634886E+02  0.42607880223E+03  0.47729222433E+03  0.00000000000E+00 0. -1.
         -3    1    6    6    0  503 -0.36313150067E+02  0.29057737926E+02  0.32188204430E+02  0.56560388132E+02  0.00000000000E+00 0.  1.
<mgrwt>
<rscale>  0 0.15436964E+04</rscale>
<asrwt>0</asrwt>
<pdfrwt beam="1">  1        2 0.12420687E+00 0.15436964E+04</pdfrwt>
<pdfrwt beam="2">  1       -1 0.11352499E+00 0.15436964E+04</pdfrwt>
<totfact> 0.26495321E+01</totfact>
</mgrwt>
</event>
<event>
12    6  0.1402540E-007  0.2868969E+04  0.7818608E-02  0.8282170E-01
         -1   -1    0    0    0  501 -0.00000000000E+00  0.00000000000E+00  0.15359424215E+04  0.15359424215E+04  0.00000000000E+00 0.  1.
          2   -1    0    0  501    0  0.00000000000E+00 -0.00000000000E+00 -0.13397287392E+04  0.13397287392E+04  0.00000000000E+00 0. -1.
         24    2    1    2    0    0  0.65738869704E+03  0.10884115696E+04  0.31879203407E+03  0.13133749942E+04  0.80782860771E+02 0.  0.
        254    2    1    2    0    0 -0.65738869704E+03 -0.10884115696E+04 -0.12257835173E+03  0.15622961665E+04  0.89941326190E+03 0.  0.
         23    2    4    4    0    0 -0.11035007938E+03 -0.66920030954E+03 -0.42354307071E+03  0.80474610546E+03  0.90671755250E+02 0.  0.
         23    2    4    4    0    0 -0.54703861765E+03 -0.41921126007E+03  0.30096471899E+03  0.75755006104E+03  0.91175671802E+02 0.  0.
          4    1    3    3  502    0  0.25456278474E+03  0.49134291842E+03  0.12072062413E+03  0.56638639104E+03  0.00000000000E+00 0. -1.
         -3    1    3    3    0  502  0.40282591230E+03  0.59706865118E+03  0.19807140994E+03  0.74698860318E+03  0.00000000000E+00 0.  1.
         11    1    5    5    0    0  0.74399847494E+01 -0.37795986203E+02 -0.68575608305E+01  0.39126922786E+02  0.00000000000E+00 0. -1.
        -11    1    5    5    0    0 -0.11779006413E+03 -0.63140432333E+03 -0.41668550988E+03  0.76561918268E+03  0.00000000000E+00 0.  1.
          4    1    6    6  503    0 -0.44743185304E+02 -0.23685715562E+02  0.48714954170E+02  0.70257473002E+02  0.00000000000E+00 0. -1.
         -4    1    6    6    0  503 -0.50229543235E+03 -0.39552554451E+03  0.25224976482E+03  0.68729258803E+03  0.00000000000E+00 0.  1.
<mgrwt>
<rscale>  0 0.28689693E+04</rscale>
<asrwt>0</asrwt>
<pdfrwt beam="1">  1        2 0.20611211E+00 0.28689693E+04</pdfrwt>
<pdfrwt beam="2">  1       -1 0.23629884E+00 0.28689693E+04</pdfrwt>
<totfact> 0.13248211E+00</totfact>
</mgrwt>
</event>
<event>
12    6  0.1402540E-007  0.1767921E+04  0.7818608E-02  0.8723547E-01
         -1   -1    0    0    0  501 -0.00000000000E+00  0.00000000000E+00  0.68125342424E+03  0.68125342424E+03  0.00000000000E+00 0.  1.
          2   -1    0    0  501    0  0.00000000000E+00 -0.00000000000E+00 -0.11469831961E+04  0.11469831961E+04  0.00000000000E+00 0. -1.
         24    2    1    2    0    0  0.13796485927E+03  0.52755281941E+03  0.19514794240E+03  0.58462276517E+03  0.79716864447E+02 0.  0.
        254    2    1    2    0    0 -0.13796485927E+03 -0.52755281941E+03 -0.66087771426E+03  0.12436138552E+04  0.90137106004E+03 0.  0.
         23    2    4    4    0    0 -0.12092123278E+03  0.23758105791E+03 -0.17759565627E+03  0.33371844901E+03  0.93600654213E+02 0.  0.
         23    2    4    4    0    0 -0.17043626491E+02 -0.76513387732E+03 -0.48328205799E+03  0.90989540615E+03  0.92885774611E+02 0.  0.
          2    1    3    3  502    0  0.38096875354E+01  0.56797221841E+01 -0.63570267101E+01  0.93372775368E+01  0.00000000000E+00 0. -1.
         -3    1    3    3    0  502  0.13415517173E+03  0.52187309723E+03  0.20150496911E+03  0.57528548764E+03  0.00000000000E+00 0.  1.
         11    1    5    5    0    0 -0.39725072188E+02  0.12841371072E+03 -0.13654984907E+03  0.19160903878E+03  0.00000000000E+00 0. -1.
        -11    1    5    5    0    0 -0.81196160590E+02  0.10916734719E+03 -0.41045807201E+02  0.14210941023E+03  0.00000000000E+00 0.  1.
          4    1    6    6  503    0 -0.97666017515E+01 -0.21537735295E+02 -0.12137052486E+01  0.23679814861E+02  0.00000000000E+00 0. -1.
         -4    1    6    6    0  503 -0.72770247396E+01 -0.74359614203E+03 -0.48206835274E+03  0.88621559129E+03  0.00000000000E+00 0.  1.
<mgrwt>
<rscale>  0 0.17679211E+04</rscale>
<asrwt>0</asrwt>
<pdfrwt beam="1">  1        2 0.17645895E+00 0.17679211E+04</pdfrwt>
<pdfrwt beam="2">  1       -1 0.10480822E+00 0.17679211E+04</pdfrwt>
<totfact> 0.18818232E+01</totfact>
</mgrwt>
</event>
<event>
12    6  0.1402540E-007  0.2560317E+04  0.7818608E-02  0.8381807E-01
         -1   -1    0    0    0  501 -0.00000000000E+00  0.00000000000E+00  0.11602861810E+04  0.11602861810E+04  0.00000000000E+00 0.  1.
          2   -1    0    0  501    0  0.00000000000E+00 -0.00000000000E+00 -0.14124146751E+04  0.14124146751E+04  0.00000000000E+00 0. -1.
         24    2    1    2    0    0  0.87550350714E+03 -0.64983970134E+03  0.15041934505E+03  0.11033891337E+04  0.77740417973E+02 0.  0.
        254    2    1    2    0    0 -0.87550350714E+03  0.64983970134E+03 -0.40254783915E+03  0.14693117224E+04  0.89890719557E+03 0.  0.
         23    2    4    4    0    0 -0.75133195362E+03  0.11598143568E+03 -0.48691963850E+03  0.90743010136E+03  0.91581966221E+02 0.  0.
         23    2    4    4    0    0 -0.12417155352E+03  0.53385826566E+03  0.84371799354E+02  0.56188162101E+03  0.90383256126E+02 0.  0.
          4    1    3    3  502    0  0.28427742467E+03 -0.20271423948E+03  0.84299664665E+02  0.35918400650E+03  0.00000000000E+00 0. -1.
         -3    1    3    3    0  502  0.59122608246E+03 -0.44712546186E+03  0.66119680381E+02  0.74420512721E+03  0.00000000000E+00 0.  1.
         11    1    5    5    0    0 -0.41419459687E+03  0.21608794845E+02 -0.24241546272E+03  0.48040541281E+03  0.00000000000E+00 0. -1.
        -11    1    5    5    0    0 -0.33713735675E+03  0.94372640831E+02 -0.24450417578E+03  0.42702468855E+03  0.00000000000E+00 0.  1.
          3    1    6    6  503    0 -0.96511796873E+02  0.27106442742E+03  0.12355677507E+02  0.28799846096E+03  0.00000000000E+00 0. -1.
         -3    1    6    6    0  503 -0.27659756646E+02  0.26279383824E+03  0.72016121847E+02  0.27388316006E+03  0.00000000000E+00 0.  1.
<mgrwt>
<rscale>  0 0.25603166E+04</rscale>
<asrwt>0</asrwt>
<pdfrwt beam="1">  1        2 0.21729457E+00 0.25603166E+04</pdfrwt>
<pdfrwt beam="2">  1       -1 0.17850557E+00 0.25603166E+04</pdfrwt>
<totfact> 0.30703570E+00</totfact>
</mgrwt>
</event>
<event>
12    6  0.1402540E-007  0.2376899E+04  0.7818608E-02  0.8448203E-01
          2   -1    0    0  501    0  0.00000000000E+00  0.00000000000E+00  0.11890979996E+04  0.11890979996E+04  0.00000000000E+00 0. -1.
         -1   -1    0    0    0  501 -0.00000000000E+00 -0.00000000000E+00 -0.11878008672E+04  0.11878008672E+04  0.00000000000E+00 0.  1.
         24    2    1    2    0    0  0.98367434092E+03  0.13485148590E+03 -0.21560075537E+03  0.10191184766E+04  0.79489945428E+02 0.  0.
        254    2    1    2    0    0 -0.98367434092E+03 -0.13485148590E+03  0.21689788776E+03  0.13577803902E+04  0.90040144499E+03 0.  0.
         23    2    4    4    0    0 -0.13947334192E+03  0.12051087417E+03  0.40235800652E+03  0.45171177113E+03  0.90420544487E+02 0.  0.
         23    2    4    4    0    0 -0.84420099900E+03 -0.25536236007E+03 -0.18546011876E+03  0.90606861910E+03  0.93164506180E+02 0.  0.
          2    1    3    3  502    0  0.19378954434E+02 -0.73238159502E+01  0.53131609472E+00  0.20723524116E+02  0.00000000000E+00 0. -1.
         -1    1    3    3    0  502  0.96429538649E+03  0.14217530185E+03 -0.21613207146E+03  0.99839495250E+03  0.00000000000E+00 0.  1.
         11    1    5    5    0    0 -0.82616583968E+02  0.94036939046E+02  0.17046497863E+03  0.21148700856E+03  0.00000000000E+00 0.  1.
        -11    1    5    5    0    0 -0.56856757956E+02  0.26473935128E+02  0.23189302789E+03  0.24022476257E+03  0.00000000000E+00 0. -1.
          3    1    6    6  503    0 -0.48543947057E+03 -0.10866658038E+03 -0.13311207742E+03  0.51495507613E+03  0.00000000000E+00 0. -1.
         -3    1    6    6    0  503 -0.35876152843E+03 -0.14669577969E+03 -0.52348041341E+02  0.39111354297E+03  0.00000000000E+00 0.  1.
<mgrwt>
<rscale>  0 0.23768985E+04</rscale>
<asrwt>0</asrwt>
<pdfrwt beam="1">  1        2 0.18293815E+00 0.23768985E+04</pdfrwt>
<pdfrwt beam="2">  1       -1 0.18273859E+00 0.23768985E+04</pdfrwt>
<totfact> 0.39277941E+00</totfact>
</mgrwt>
</event>
<event>
12    6  0.1402540E-007  0.1311561E+04  0.7818608E-02  0.9020447E-01
          2   -1    0    0  501    0  0.00000000000E+00  0.00000000000E+00  0.78661187834E+03  0.78661187834E+03  0.00000000000E+00 0. -1.
         -1   -1    0    0    0  501 -0.00000000000E+00 -0.00000000000E+00 -0.54670921113E+03  0.54670921113E+03  0.00000000000E+00 0.  1.
         24    2    1    2    0    0 -0.25901593414E+03  0.13226040000E+03 -0.11585419911E+03  0.32295445559E+03  0.79343036154E+02 0.  0.
        254    2    1    2    0    0  0.25901593414E+03 -0.13226040000E+03  0.35575686633E+03  0.10103666339E+04  0.89983093933E+03 0.  0.
         23    2    4    4    0    0  0.39174452228E+03  0.24940882703E+03  0.18065923785E+02  0.47517802813E+03  0.98991146480E+02 0.  0.
         23    2    4    4    0    0 -0.13272858813E+03 -0.38166922703E+03  0.33769094254E+03  0.53518860575E+03  0.95411708297E+02 0.  0.
          2    1    3    3  502    0 -0.71422292564E+02  0.26350805872E+02  0.43672322453E+01  0.76253403614E+02  0.00000000000E+00 0. -1.
         -1    1    3    3    0  502 -0.18759364158E+03  0.10590959413E+03 -0.12022143136E+03  0.24670105198E+03  0.00000000000E+00 0.  1.
         11    1    5    5    0    0  0.29281307926E+03  0.23325896372E+03  0.20261694999E+02  0.37491302968E+03  0.00000000000E+00 0.  1.
        -11    1    5    5    0    0  0.98931443017E+02  0.16149863307E+02 -0.21957712137E+01  0.10026499845E+03  0.00000000000E+00 0. -1.
          3    1    6    6  503    0 -0.11237412379E+02  0.31285406498E+01  0.87546782800E+01  0.14584635592E+02  0.00000000000E+00 0. -1.
         -3    1    6    6    0  503 -0.12149117576E+03 -0.38479776768E+03  0.32893626426E+03  0.52060397016E+03  0.00000000000E+00 0.  1.
<mgrwt>
<rscale>  0 0.13115608E+04</rscale>
<asrwt>0</asrwt>
<pdfrwt beam="1">  1        2 0.12101721E+00 0.13115608E+04</pdfrwt>
<pdfrwt beam="2">  1       -1 0.84109110E-01 0.13115608E+04</pdfrwt>
<totfact> 0.55202480E+01</totfact>
</mgrwt>
</event>
<event>
12    6  0.1402540E-007  0.2769405E+04  0.7818608E-02  0.8312830E-01
          2   -1    0    0  501    0  0.00000000000E+00  0.00000000000E+00  0.16919236500E+04  0.16919236500E+04  0.00000000000E+00 0. -1.
         -1   -1    0    0    0  501 -0.00000000000E+00 -0.00000000000E+00 -0.11332666133E+04  0.11332666133E+04  0.00000000000E+00 0.  1.
         24    2    1    2    0    0  0.10586391928E+04 -0.63983253837E+03  0.21132711886E+03  0.12574727186E+04  0.80472784901E+02 0.  0.
        254    2    1    2    0    0 -0.10586391928E+04  0.63983253837E+03  0.34732991788E+03  0.15677175447E+04  0.89833045722E+03 0.  0.
         23    2    4    4    0    0 -0.11021846026E+04  0.29872407245E+03  0.12908819475E+03  0.11526686535E+04  0.89074648859E+02 0.  0.
         23    2    4    4    0    0  0.43545409782E+02  0.34110846591E+03  0.21824172313E+03  0.41504889119E+03  0.79905845421E+02 0.  0.
          2    1    3    3  502    0  0.20838915545E+03 -0.14748315688E+03  0.71009432031E+02  0.26498992643E+03  0.00000000000E+00 0. -1.
         -1    1    3    3    0  502  0.85025003739E+03 -0.49234938149E+03  0.14031768683E+03  0.99248279218E+03  0.00000000000E+00 0.  1.
         11    1    5    5    0    0 -0.32513663584E+03  0.12453858759E+03  0.60493730925E+02  0.35338814814E+03  0.00000000000E+00 0.  1.
        -11    1    5    5    0    0 -0.77704796679E+03  0.17418548486E+03  0.68594463829E+02  0.79928050539E+03  0.00000000000E+00 0. -1.
          4    1    6    6  503    0  0.40998303811E+01  0.22975320447E+03  0.10974645765E+03  0.25465197533E+03  0.00000000000E+00 0.  1.
         -4    1    6    6    0  503  0.39445579401E+02  0.11135526144E+03  0.10849526548E+03  0.16039691586E+03  0.00000000000E+00 0. -1.
<mgrwt>
<rscale>  0 0.27694047E+04</rscale>
<asrwt>0</asrwt>
<pdfrwt beam="1">  1        2 0.26029595E+00 0.27694047E+04</pdfrwt>
<pdfrwt beam="2">  1       -1 0.17434871E+00 0.27694047E+04</pdfrwt>
<totfact> 0.22502039E+00</totfact>
</mgrwt>
</event>
<event>
12    6  0.1402540E-007  0.2491337E+04  0.7818608E-02  0.8406078E-01
         -1   -1    0    0    0  501 -0.00000000000E+00  0.00000000000E+00  0.46783494692E+03  0.46783494692E+03  0.00000000000E+00 0.  1.
          2   -1    0    0  501    0  0.00000000000E+00 -0.00000000000E+00 -0.33167454725E+04  0.33167454725E+04  0.00000000000E+00 0. -1.
         24    2    1    2    0    0  0.24838422910E+03 -0.10502532295E+04 -0.13294097361E+04  0.17143346732E+04  0.82985263653E+02 0.  0.
        254    2    1    2    0    0 -0.24838422910E+03  0.10502532295E+04 -0.15195007895E+04  0.20702457462E+04  0.90128143716E+03 0.  0.
         23    2    4    4    0    0  0.33118785304E+03  0.43225960166E+03 -0.54739938340E+03  0.77761752671E+03  0.92245193246E+02 0.  0.
         23    2    4    4    0    0 -0.57957208214E+03  0.61799362788E+03 -0.97210140611E+03  0.12926282195E+04  0.89925789338E+02 0.  0.
          4    1    3    3  502    0  0.13042866299E+03 -0.41454081082E+03 -0.57542202955E+03  0.72108684085E+03  0.00000000000E+00 0. -1.
         -3    1    3    3    0  502  0.11795556612E+03 -0.63571241872E+03 -0.75398770656E+03  0.99324783238E+03  0.00000000000E+00 0.  1.
         11    1    5    5    0    0  0.59120487194E+02  0.13183330615E+03 -0.11237201911E+03  0.18303749150E+03  0.00000000000E+00 0.  1.
        -11    1    5    5    0    0  0.27206736585E+03  0.30042629551E+03 -0.43502736429E+03  0.59458003521E+03  0.00000000000E+00 0. -1.
          4    1    6    6  503    0 -0.27849442482E+03  0.31977515997E+03 -0.42223341765E+03  0.59841152777E+03  0.00000000000E+00 0. -1.
         -4    1    6    6    0  503 -0.30107765733E+03  0.29821846791E+03 -0.54986798846E+03  0.69421669174E+03  0.00000000000E+00 0.  1.
<mgrwt>
<rscale>  0 0.24913365E+04</rscale>
<asrwt>0</asrwt>
<pdfrwt beam="1">  1        2 0.51026851E+00 0.24913365E+04</pdfrwt>
<pdfrwt beam="2">  1       -1 0.71974610E-01 0.24913365E+04</pdfrwt>
<totfact> 0.21480998E+00</totfact>
</mgrwt>
</event>
<event>
12    6  0.1402540E-007  0.1876709E+04  0.7818608E-02  0.8666538E-01
          2   -1    0    0  501    0  0.00000000000E+00  0.00000000000E+00  0.73253875867E+03  0.73253875867E+03  0.00000000000E+00 0. -1.
         -1   -1    0    0    0  501 -0.00000000000E+00 -0.00000000000E+00 -0.12019962853E+04  0.12019962853E+04  0.00000000000E+00 0.  1.
         24    2    1    2    0    0  0.51445063392E+03  0.29021982301E+03 -0.60815856561E+03  0.85235847553E+03  0.88154010042E+02 0.  0.
        254    2    1    2    0    0 -0.51445063392E+03 -0.29021982301E+03  0.13870103896E+03  0.10821765685E+04  0.89609215302E+03 0.  0.
         23    2    4    4    0    0 -0.47535000028E+03 -0.11480377148E+03  0.47612791101E+03  0.68834365831E+03  0.89340223754E+02 0.  0.
         23    2    4    4    0    0 -0.39100633635E+02 -0.17541605153E+03 -0.33742687204E+03  0.39383291014E+03  0.94592898515E+02 0.  0.
          2    1    3    3  502    0  0.25182600450E+03  0.16710495199E+03 -0.36487981476E+03  0.47379075628E+03  0.00000000000E+00 0. -1.
         -1    1    3    3    0  502  0.26262462942E+03  0.12311487101E+03 -0.24327875085E+03  0.37856771925E+03  0.00000000000E+00 0.  1.
         11    1    5    5    0    0 -0.36466820754E+03 -0.12521506031E+03  0.38049858418E+03  0.54170184187E+03  0.00000000000E+00 0. -1.
        -11    1    5    5    0    0 -0.11068179274E+03  0.10411288835E+02  0.95629326830E+02  0.14664181644E+03  0.00000000000E+00 0.  1.
          4    1    6    6  503    0 -0.46501873303E+02 -0.15523029049E+03 -0.21337848250E+03  0.26793514906E+03  0.00000000000E+00 0. -1.
         -4    1    6    6    0  503  0.74012396676E+01 -0.20185761034E+02 -0.12404838955E+03  0.12589776109E+03  0.00000000000E+00 0.  1.
<mgrwt>
<rscale>  0 0.18767087E+04</rscale>
<asrwt>0</asrwt>
<pdfrwt beam="1">  1        2 0.11269827E+00 0.18767087E+04</pdfrwt>
<pdfrwt beam="2">  1       -1 0.18492250E+00 0.18767087E+04</pdfrwt>
<totfact> 0.79470864E+00</totfact>
</mgrwt>
</event>
<event>
12    6  0.1402540E-007  0.2329880E+04  0.7818608E-02  0.8466232E-01
          2   -1    0    0  501    0  0.00000000000E+00  0.00000000000E+00  0.25098871142E+04  0.25098871142E+04  0.00000000000E+00 0. -1.
         -1   -1    0    0    0  501 -0.00000000000E+00 -0.00000000000E+00 -0.54069590970E+03  0.54069590970E+03  0.00000000000E+00 0.  1.
         24    2    1    2    0    0 -0.79768101001E+03 -0.56875675364E+03  0.10056374331E+04  0.14062185171E+04  0.79778646155E+02 0.  0.
        254    2    1    2    0    0  0.79768101001E+03  0.56875675364E+03  0.96355377144E+03  0.16443645069E+04  0.90317192295E+03 0.  0.
         23    2    4    4    0    0 -0.17292095187E+03  0.22736037575E+03  0.23966638166E+03  0.38303921120E+03  0.87662231091E+02 0.  0.
         23    2    4    4    0    0  0.97060196188E+03  0.34139637789E+03  0.72388738978E+03  0.12613252957E+04  0.91153130191E+02 0.  0.
          2    1    3    3  502    0 -0.11626023262E+03 -0.71350048958E+02  0.17934391715E+03  0.22532534655E+03  0.00000000000E+00 0. -1.
         -1    1    3    3    0  502 -0.68142077738E+03 -0.49740670468E+03  0.82629351592E+03  0.11808931705E+04  0.00000000000E+00 0.  1.
         11    1    5    5    0    0 -0.35944861966E+02  0.11800808255E+03  0.10524903578E+03  0.16215825659E+03  0.00000000000E+00 0.  1.
        -11    1    5    5    0    0 -0.13697608991E+03  0.10935229320E+03  0.13441734588E+03  0.22088095461E+03  0.00000000000E+00 0. -1.
          3    1    6    6  503    0  0.89474237111E+03  0.28886206389E+03  0.64852215182E+03  0.11421848292E+04  0.00000000000E+00 0. -1.
         -3    1    6    6    0  503  0.75859590768E+02  0.52534313999E+02  0.75365237960E+02  0.11914046647E+03  0.00000000000E+00 0.  1.
<mgrwt>
<rscale>  0 0.23298804E+04</rscale>
<asrwt>0</asrwt>
<pdfrwt beam="1">  1        2 0.38613647E+00 0.23298804E+04</pdfrwt>
<pdfrwt beam="2">  1       -1 0.83183988E-01 0.23298804E+04</pdfrwt>
<totfact> 0.50709530E+00</totfact>
</mgrwt>
</event>
<event>
12    6  0.1402540E-007  0.3604062E+04  0.7818608E-02  0.8089562E-01
          4   -1    0    0  501    0  0.00000000000E+00  0.00000000000E+00  0.27964374561E+04  0.27964374561E+04  0.00000000000E+00 0. -1.
         -3   -1    0    0    0  501 -0.00000000000E+00 -0.00000000000E+00 -0.11612331919E+04  0.11612331919E+04  0.00000000000E+00 0.  1.
         24    2    1    2    0    0  0.63090294527E+03  0.12189707284E+04 -0.31323431841E+03  0.14101541208E+04  0.80565148511E+02 0.  0.
        254    2    1    2    0    0 -0.63090294527E+03 -0.12189707284E+04  0.19484385826E+04  0.25475165272E+04  0.89972183673E+03 0.  0.
         23    2    4    4    0    0 -0.57747757478E+03 -0.12613035182E+04  0.19925528827E+04  0.24296071738E+04  0.91417252788E+02 0.  0.
         23    2    4    4    0    0 -0.53425370486E+02  0.42332789892E+02 -0.44114300110E+02  0.11790935344E+03  0.85499759309E+02 0.  0.
          4    1    3    3  502    0  0.37202377445E+03  0.78080299238E+03 -0.22429188616E+03  0.89351096908E+03  0.00000000000E+00 0. -1.
         -3    1    3    3    0  502  0.25887917082E+03  0.43816773597E+03 -0.88942432247E+02  0.51664315168E+03  0.00000000000E+00 0.  1.
         11    1    5    5    0    0 -0.45805899100E+03 -0.90416929363E+03  0.14640137032E+04  0.17806392880E+04  0.00000000000E+00 0.  1.
        -11    1    5    5    0    0 -0.11941858379E+03 -0.35713422462E+03  0.52853917947E+03  0.64896788579E+03  0.00000000000E+00 0. -1.
          1    1    6    6  503    0 -0.59006697351E+02  0.84208056935E+01  0.28971616058E+01  0.59674901309E+02  0.00000000000E+00 0. -1.
         -1    1    6    6    0  503  0.55813268655E+01  0.33911984199E+02 -0.47011461716E+02  0.58234452127E+02  0.00000000000E+00 0.  1.
<mgrwt>
<rscale>  0 0.36040621E+04</rscale>
<asrwt>0</asrwt>
<pdfrwt beam="1">  1        4 0.43022115E+00 0.36040621E+04</pdfrwt>
<pdfrwt beam="2">  1       -3 0.17865126E+00 0.36040621E+04</pdfrwt>
<totfact> 0.15284872E-03</totfact>
</mgrwt>
</event>
<event>
12    6  0.1402540E-007  0.3205387E+04  0.7818608E-02  0.8187396E-01
          2   -1    0    0  501    0  0.00000000000E+00  0.00000000000E+00  0.24044310914E+04  0.24044310914E+04  0.00000000000E+00 0. -1.
         -1   -1    0    0    0  501 -0.00000000000E+00 -0.00000000000E+00 -0.10682886709E+04  0.10682886709E+04  0.00000000000E+00 0.  1.
         24    2    1    2    0    0 -0.38622029275E+03 -0.47638189350E+03  0.20692624929E+04  0.21596571090E+04  0.78522231067E+02 0.  0.
        254    2    1    2    0    0  0.38622029275E+03  0.47638189350E+03 -0.73312007245E+03  0.13130626533E+04  0.90031253905E+03 0.  0.
         23    2    4    4    0    0  0.94475724293E+02 -0.20509636943E+03  0.29486631026E+02  0.24528708700E+03  0.91137864846E+02 0.  0.
         23    2    4    4    0    0  0.29174456846E+03  0.68147826292E+03 -0.76260670348E+03  0.10677755663E+04  0.95121815616E+02 0.  0.
          2    1    3    3  502    0 -0.31498797889E+03 -0.35548986274E+03  0.16812521495E+04  0.17470544524E+04  0.00000000000E+00 0. -1.
         -1    1    3    3    0  502 -0.71232313866E+02 -0.12089203075E+03  0.38801034346E+03  0.41260265664E+03  0.00000000000E+00 0.  1.
         11    1    5    5    0    0  0.89757209600E+02 -0.18194498175E+03  0.55311292214E+02  0.21028474054E+03  0.00000000000E+00 0. -1.
        -11    1    5    5    0    0  0.47185146922E+01 -0.23151387680E+02 -0.25824661188E+02  0.35002346462E+02  0.00000000000E+00 0.  1.
          1    1    6    6  503    0  0.24785145005E+03  0.57943679853E+03 -0.69288880892E+03  0.93662812594E+03  0.00000000000E+00 0. -1.
         -1    1    6    6    0  503  0.43893118412E+02  0.10204146439E+03 -0.69717894561E+02  0.13114744039E+03  0.00000000000E+00 0.  1.
<mgrwt>
<rscale>  0 0.32053870E+04</rscale>
<asrwt>0</asrwt>
<pdfrwt beam="1">  1        2 0.36991247E+00 0.32053870E+04</pdfrwt>
<pdfrwt beam="2">  1       -1 0.16435210E+00 0.32053870E+04</pdfrwt>
<totfact> 0.10245008E+00</totfact>
</mgrwt>
</event>
<event>
12    6  0.1402540E-007  0.1906135E+04  0.7818608E-02  0.8651809E-01
          2   -1    0    0  501    0  0.00000000000E+00  0.00000000000E+00  0.16712954491E+04  0.16712954491E+04  0.00000000000E+00 0. -1.
         -1   -1    0    0    0  501 -0.00000000000E+00 -0.00000000000E+00 -0.54349301764E+03  0.54349301764E+03  0.00000000000E+00 0.  1.
         24    2    1    2    0    0 -0.43375983700E+03  0.50778820241E+03  0.80591966724E+03  0.10496050084E+04  0.78534761996E+02 0.  0.
        254    2    1    2    0    0  0.43375983700E+03 -0.50778820241E+03  0.32188276418E+03  0.11651834583E+04  0.89891463610E+03 0.  0.
         23    2    4    4    0    0  0.39620087593E+03  0.20206783032E+02  0.45649167301E+03  0.61146371036E+03  0.90109785199E+02 0.  0.
         23    2    4    4    0    0  0.37558961070E+02 -0.52799498544E+03 -0.13460890883E+03  0.55371974798E+03  0.91085787921E+02 0.  0.
          4    1    3    3  502    0 -0.17849434858E+03  0.24701375468E+03  0.41436344309E+03  0.51436668870E+03  0.00000000000E+00 0. -1.
         -3    1    3    3    0  502 -0.25526548842E+03  0.26077444773E+03  0.39155622415E+03  0.53523831966E+03  0.00000000000E+00 0.  1.
         11    1    5    5    0    0  0.10736061033E+03  0.43732474146E+02  0.11066419620E+03  0.16026663491E+03  0.00000000000E+00 0. -1.
        -11    1    5    5    0    0  0.28884026559E+03 -0.23525691114E+02  0.34582747681E+03  0.45119707544E+03  0.00000000000E+00 0.  1.
          2    1    6    6  503    0  0.46218159337E+02 -0.43869022649E+03 -0.78930194035E+02  0.44812409955E+03  0.00000000000E+00 0. -1.
         -2    1    6    6    0  503 -0.86591982663E+01 -0.89304758952E+02 -0.55678714793E+02  0.10559564843E+03  0.00000000000E+00 0.  1.
<mgrwt>
<rscale>  0 0.19061347E+04</rscale>
<asrwt>0</asrwt>
<pdfrwt beam="1">  1        2 0.25712237E+00 0.19061347E+04</pdfrwt>
<pdfrwt beam="2">  1       -1 0.83614311E-01 0.19061347E+04</pdfrwt>
<totfact> 0.15391472E+01</totfact>
</mgrwt>
</event>
<event>
12    6  0.1402540E-007  0.1256973E+04  0.7818608E-02  0.9064399E-01
         -1   -1    0    0    0  501 -0.00000000000E+00  0.00000000000E+00  0.48373323580E+03  0.48373323580E+03  0.00000000000E+00 0.  1.
          2   -1    0    0  501    0  0.00000000000E+00 -0.00000000000E+00 -0.81655660698E+03  0.81655660698E+03  0.00000000000E+00 0. -1.
         24    2    1    2    0    0 -0.25549141299E+03 -0.14906292347E+03 -0.10808912698E+03  0.32557574271E+03  0.82587454284E+02 0.  0.
        254    2    1    2    0    0  0.25549141299E+03  0.14906292347E+03 -0.22473424420E+03  0.97471410007E+03  0.90114731265E+03 0.  0.
         23    2    4    4    0    0  0.28559991345E+03 -0.14126697617E+03  0.24666542160E+03  0.41295038586E+03  0.90335606757E+02 0.  0.
         23    2    4    4    0    0 -0.30108500465E+02  0.29032989964E+03 -0.47139966580E+03  0.56176371421E+03  0.90348510025E+02 0.  0.
          2    1    3    3  502    0 -0.17511037492E+03 -0.11798402623E+03 -0.11256469227E+03  0.23927950977E+03  0.00000000000E+00 0. -1.
         -1    1    3    3    0  502 -0.80381038071E+02 -0.31078897240E+02  0.44755652906E+01  0.86296232941E+02  0.00000000000E+00 0.  1.
         11    1    5    5    0    0  0.23194567752E+03 -0.15077049159E+03  0.20325424092E+03  0.34328242732E+03  0.00000000000E+00 0. -1.
        -11    1    5    5    0    0  0.53654235932E+02  0.95035154239E+01  0.43411180678E+02  0.69667958537E+02  0.00000000000E+00 0.  1.
          4    1    6    6  503    0  0.13251492258E+02  0.31727848833E+02 -0.20125546502E+02  0.39840884286E+02  0.00000000000E+00 0.  1.
         -4    1    6    6    0  503 -0.43359992723E+02  0.25860205081E+03 -0.45127411930E+03  0.52192282993E+03  0.00000000000E+00 0. -1.
<mgrwt>
<rscale>  0 0.12569735E+04</rscale>
<asrwt>0</asrwt>
<pdfrwt beam="1">  1        2 0.12562409E+00 0.12569735E+04</pdfrwt>
<pdfrwt beam="2">  1       -1 0.74420498E-01 0.12569735E+04</pdfrwt>
<totfact> 0.68368971E+01</totfact>
</mgrwt>
</event>
<event>
12    6  0.1402540E-007  0.1737856E+04  0.7818608E-02  0.8740063E-01
         -3   -1    0    0    0  501 -0.00000000000E+00  0.00000000000E+00  0.85003013624E+03  0.85003013624E+03  0.00000000000E+00 0.  1.
          4   -1    0    0  501    0  0.00000000000E+00 -0.00000000000E+00 -0.88824647275E+03  0.88824647275E+03  0.00000000000E+00 0. -1.
         24    2    1    2    0    0 -0.35399075309E+03  0.51481409696E+03  0.83942727322E+02  0.63598859278E+03  0.84214612572E+02 0.  0.
        254    2    1    2    0    0  0.35399075309E+03 -0.51481409696E+03 -0.12215906383E+03  0.11022880162E+04  0.89987389456E+03 0.  0.
         23    2    4    4    0    0  0.43546988622E+03 -0.39990241321E+03 -0.44022647924E+03  0.74286751136E+03  0.92178221483E+02 0.  0.
         23    2    4    4    0    0 -0.81479133135E+02 -0.11491168376E+03  0.31806741541E+03  0.35942050485E+03  0.90402844877E+02 0.  0.
          2    1    3    3  502    0 -0.23652246252E+03  0.29810965355E+03  0.18677904143E+02  0.38100013769E+03  0.00000000000E+00 0. -1.
         -1    1    3    3    0  502 -0.11746829057E+03  0.21670444342E+03  0.65264823179E+02  0.25498845509E+03  0.00000000000E+00 0.  1.
         11    1    5    5    0    0  0.34876787790E+03 -0.26551748799E+03 -0.32887668664E+03  0.54799493072E+03  0.00000000000E+00 0. -1.
        -11    1    5    5    0    0  0.86702008328E+02 -0.13438492521E+03 -0.11134979260E+03  0.19487258064E+03  0.00000000000E+00 0.  1.
          1    1    6    6  503    0 -0.21823512814E+02 -0.82189975975E+02  0.10149304135E+03  0.13240957407E+03  0.00000000000E+00 0. -1.
         -1    1    6    6    0  503 -0.59655620321E+02 -0.32721707782E+02  0.21657437406E+03  0.22701093078E+03  0.00000000000E+00 0.  1.
<mgrwt>
<rscale>  0 0.17378565E+04</rscale>
<asrwt>0</asrwt>
<pdfrwt beam="1">  1        4 0.13665330E+00 0.17378565E+04</pdfrwt>
<pdfrwt beam="2">  1       -3 0.13077387E+00 0.17378565E+04</pdfrwt>
<totfact> 0.37763430E-01</totfact>
</mgrwt>
</event>
<event>
12    6  0.1402540E-007  0.2523039E+04  0.7818608E-02  0.8394823E-01
          2   -1    0    0  501    0  0.00000000000E+00  0.00000000000E+00  0.22310496957E+04  0.22310496957E+04  0.00000000000E+00 0. -1.
         -1   -1    0    0    0  501 -0.00000000000E+00 -0.00000000000E+00 -0.71331066804E+03  0.71331066804E+03  0.00000000000E+00 0.  1.
         24    2    1    2    0    0 -0.69209276806E+03 -0.48764292540E+03  0.14787217348E+04  0.17058144934E+04  0.79981840034E+02 0.  0.
        254    2    1    2    0    0  0.69209276806E+03  0.48764292540E+03  0.39017292928E+02  0.12385458704E+04  0.90315308867E+03 0.  0.
         23    2    4    4    0    0  0.68598777276E+03 -0.40963113759E+01  0.18835998101E+03  0.71703312762E+03  0.89783180556E+02 0.  0.
         23    2    4    4    0    0  0.61049953006E+01  0.49173923678E+03 -0.14934268808E+03  0.52151274276E+03  0.88473467296E+02 0.  0.
          2    1    3    3  502    0 -0.50627865953E+03 -0.38086519462E+03  0.11601954678E+04  0.13219038925E+04  0.00000000000E+00 0. -1.
         -1    1    3    3    0  502 -0.18581410853E+03 -0.10677773079E+03  0.31852626699E+03  0.38391060090E+03  0.00000000000E+00 0.  1.
         11    1    5    5    0    0  0.16447020576E+03  0.14279686830E+02  0.82531000793E+02  0.18456902268E+03  0.00000000000E+00 0. -1.
        -11    1    5    5    0    0  0.52151756700E+03 -0.18375998206E+02  0.10582898022E+03  0.53246410494E+03  0.00000000000E+00 0.  1.
          1    1    6    6  503    0 -0.18135029432E+01  0.29533685432E+03 -0.13409949961E+03  0.32436063588E+03  0.00000000000E+00 0. -1.
         -1    1    6    6    0  503  0.79184982438E+01  0.19640238246E+03 -0.15243188472E+02  0.19715210688E+03  0.00000000000E+00 0.  1.
<mgrwt>
<rscale>  0 0.25230391E+04</rscale>
<asrwt>0</asrwt>
<pdfrwt beam="1">  1        2 0.34323841E+00 0.25230391E+04</pdfrwt>
<pdfrwt beam="2">  1       -1 0.10974010E+00 0.25230391E+04</pdfrwt>
<totfact> 0.38539996E+00</totfact>
</mgrwt>
</event>
<event>
12    6  0.1402540E-007  0.1253917E+04  0.7818608E-02  0.9066930E-01
         -1   -1    0    0    0  501 -0.00000000000E+00  0.00000000000E+00  0.67938081237E+03  0.67938081237E+03  0.00000000000E+00 0.  1.
          2   -1    0    0  501    0  0.00000000000E+00 -0.00000000000E+00 -0.57858107266E+03  0.57858107266E+03  0.00000000000E+00 0. -1.
         24    2    1    2    0    0  0.45636991100E+02  0.26407990825E+03 -0.99284042311E+02  0.29698460583E+03  0.80756437178E+02 0.  0.
        254    2    1    2    0    0 -0.45636991100E+02 -0.26407990825E+03  0.20008378202E+03  0.96097727921E+03  0.90090114798E+03 0.  0.
         23    2    4    4    0    0 -0.16441550212E+03  0.29870900407E+03  0.34642963633E+02  0.35585847456E+03  0.95789313282E+02 0.  0.
         23    2    4    4    0    0  0.11877851102E+03 -0.56278891231E+03  0.16544081839E+03  0.60511880465E+03  0.89209914514E+02 0.  0.
          2    1    3    3  502    0  0.49843825204E+02  0.26711688204E+03 -0.10300932769E+03  0.29059724220E+03  0.00000000000E+00 0. -1.
         -1    1    3    3    0  502 -0.42068341041E+01 -0.30369737951E+01  0.37252853769E+01  0.63873636307E+01  0.00000000000E+00 0.  1.
         11    1    5    5    0    0 -0.63095262410E+02  0.45970738432E+02 -0.13843724082E+02  0.79284107027E+02  0.00000000000E+00 0.  1.
        -11    1    5    5    0    0 -0.10132023971E+03  0.25273826563E+03  0.48486687715E+02  0.27657436753E+03  0.00000000000E+00 0. -1.
          3    1    6    6  503    0  0.13121381445E+03 -0.52842681580E+03  0.16363267224E+03  0.56853110397E+03  0.00000000000E+00 0. -1.
         -3    1    6    6    0  503 -0.12435303434E+02 -0.34362096517E+02  0.18081461504E+01  0.36587700680E+02  0.00000000000E+00 0.  1.
<mgrwt>
<rscale>  0 0.12539169E+04</rscale>
<asrwt>0</asrwt>
<pdfrwt beam="1">  1        2 0.89012473E-01 0.12539169E+04</pdfrwt>
<pdfrwt beam="2">  1       -1 0.10452013E+00 0.12539169E+04</pdfrwt>
<totfact> 0.50138968E+01</totfact>
</mgrwt>
</event>
<event>
12    6  0.1402540E-007  0.2702346E+04  0.7818608E-02  0.8334244E-01
          2   -1    0    0  501    0  0.00000000000E+00  0.00000000000E+00  0.11641425207E+04  0.11641425207E+04  0.00000000000E+00 0. -1.
         -1   -1    0    0    0  501 -0.00000000000E+00 -0.00000000000E+00 -0.15682522702E+04  0.15682522702E+04  0.00000000000E+00 0.  1.
         24    2    1    2    0    0 -0.10116193588E+04 -0.64535852112E+03 -0.14417860771E+03  0.12112319224E+04  0.80211913173E+02 0.  0.
        254    2    1    2    0    0  0.10116193588E+04  0.64535852112E+03 -0.25993114184E+03  0.15211628685E+04  0.89805953380E+03 0.  0.
         23    2    4    4    0    0  0.11000394449E+04  0.49307296457E+03 -0.17575122407E+02  0.12088464630E+04  0.88278862266E+02 0.  0.
         23    2    4    4    0    0 -0.88420086087E+02  0.15228555654E+03 -0.24235601944E+03  0.31231640552E+03  0.88295496189E+02 0.  0.
          4    1    3    3  502    0 -0.39406690987E+03 -0.23144799521E+03 -0.19565132853E+02  0.45742726019E+03  0.00000000000E+00 0. -1.
         -3    1    3    3    0  502 -0.61755244892E+03 -0.41391052591E+03 -0.12461347486E+03  0.75380466219E+03  0.00000000000E+00 0.  1.
         11    1    5    5    0    0  0.76353274336E+03  0.30997098736E+03 -0.40648916594E+02  0.82505551184E+03  0.00000000000E+00 0. -1.
        -11    1    5    5    0    0  0.33650670151E+03  0.18310197721E+03  0.23073794186E+02  0.38379095117E+03  0.00000000000E+00 0.  1.
          1    1    6    6  503    0 -0.15611792649E+01  0.27508818058E+02 -0.10111148274E+03  0.10479839833E+03  0.00000000000E+00 0. -1.
         -1    1    6    6    0  503 -0.86858906822E+02  0.12477673849E+03 -0.14124453670E+03  0.20751800719E+03  0.00000000000E+00 0.  1.
<mgrwt>
<rscale>  0 0.27023465E+04</rscale>
<asrwt>0</asrwt>
<pdfrwt beam="1">  1        2 0.17909885E+00 0.27023465E+04</pdfrwt>
<pdfrwt beam="2">  1       -1 0.24126958E+00 0.27023465E+04</pdfrwt>
<totfact> 0.15823409E+00</totfact>
</mgrwt>
</event>
<event>
12    6  0.1402540E-007  0.3144104E+04  0.7818608E-02  0.8203737E-01
          2   -1    0    0  501    0  0.00000000000E+00  0.00000000000E+00  0.20988131689E+04  0.20988131689E+04  0.00000000000E+00 0. -1.
         -1   -1    0    0    0  501 -0.00000000000E+00 -0.00000000000E+00 -0.11774978121E+04  0.11774978121E+04  0.00000000000E+00 0.  1.
         24    2    1    2    0    0 -0.14099709405E+04 -0.20506220931E+03  0.65642774608E+03  0.15706650842E+04  0.77607075209E+02 0.  0.
        254    2    1    2    0    0  0.14099709405E+04  0.20506220931E+03  0.26488761074E+03  0.17056458968E+04  0.89944089095E+03 0.  0.
         23    2    4    4    0    0  0.48012483232E+03 -0.32310657231E+03  0.23821685831E+03  0.63245976742E+03  0.91325648893E+02 0.  0.
         23    2    4    4    0    0  0.92984610815E+03  0.52816878162E+03  0.26670752437E+02  0.10731861294E+04  0.86261767628E+02 0.  0.
          2    1    3    3  502    0 -0.87958301665E+03 -0.91930943721E+02  0.39338543359E+03  0.96792028647E+03  0.00000000000E+00 0. -1.
         -1    1    3    3    0  502 -0.53038792382E+03 -0.11313126559E+03  0.26304231248E+03  0.60274479769E+03  0.00000000000E+00 0.  1.
         11    1    5    5    0    0  0.44528839878E+03 -0.31636377148E+03  0.24065280462E+03  0.59689326212E+03  0.00000000000E+00 0. -1.
        -11    1    5    5    0    0  0.34836433539E+02 -0.67428008302E+01 -0.24359463175E+01  0.35566505299E+02  0.00000000000E+00 0.  1.
          1    1    6    6  503    0  0.59464528348E+03  0.38433381249E+03  0.12193032949E+02  0.70814134369E+03  0.00000000000E+00 0. -1.
         -1    1    6    6    0  503  0.33520082467E+03  0.14383496913E+03  0.14477719489E+02  0.36504478570E+03  0.00000000000E+00 0.  1.
<mgrwt>
<rscale>  0 0.31441043E+04</rscale>
<asrwt>0</asrwt>
<pdfrwt beam="1">  1        2 0.32289433E+00 0.31441043E+04</pdfrwt>
<pdfrwt beam="2">  1       -1 0.18115351E+00 0.31441043E+04</pdfrwt>
<totfact> 0.11559582E+00</totfact>
</mgrwt>
</event>
<event>
12    6  0.1402540E-007  0.1647944E+04  0.7818608E-02  0.8791624E-01
          2   -1    0    0  501    0  0.00000000000E+00  0.00000000000E+00  0.14521248740E+04  0.14521248740E+04  0.00000000000E+00 0. -1.
         -1   -1    0    0    0  501 -0.00000000000E+00 -0.00000000000E+00 -0.46754225337E+03  0.46754225337E+03  0.00000000000E+00 0.  1.
         24    2    1    2    0    0  0.26097982206E+03 -0.50718113926E+03  0.44209917415E+03  0.72335433455E+03  0.49463501490E+02 0.  0.
        254    2    1    2    0    0 -0.26097982206E+03  0.50718113926E+03  0.54248344649E+03  0.11963127928E+04  0.90085117141E+03 0.  0.
         23    2    4    4    0    0  0.21310945215E+03 -0.11511234550E+03  0.23684897048E+03  0.35149242006E+03  0.93717639014E+02 0.  0.
         23    2    4    4    0    0 -0.47408927422E+03  0.62229348476E+03  0.30563447601E+03  0.84482037277E+03  0.91099990212E+02 0.  0.
          4    1    3    3  502    0  0.16963054770E+03 -0.27923156736E+03  0.24202435517E+03  0.40659633473E+03  0.00000000000E+00 0. -1.
         -3    1    3    3    0  502  0.91349274361E+02 -0.22794957190E+03  0.20007481899E+03  0.31675799982E+03  0.00000000000E+00 0.  1.
         11    1    5    5    0    0  0.11915771021E+03 -0.30796352457E+02  0.67809095839E+02  0.14051707621E+03  0.00000000000E+00 0. -1.
        -11    1    5    5    0    0  0.93951741939E+02 -0.84315993041E+02  0.16903987464E+03  0.21097534385E+03  0.00000000000E+00 0.  1.
          4    1    6    6  503    0 -0.68403881015E+02  0.46709120893E+02  0.42311133807E+02  0.93011101254E+02  0.00000000000E+00 0. -1.
         -4    1    6    6    0  503 -0.40568539320E+03  0.57558436387E+03  0.26332334220E+03  0.75180927151E+03  0.00000000000E+00 0.  1.
<mgrwt>
<rscale>  0 0.16479439E+04</rscale>
<asrwt>0</asrwt>
<pdfrwt beam="1">  1        2 0.22340383E+00 0.16479439E+04</pdfrwt>
<pdfrwt beam="2">  1       -1 0.71929578E-01 0.16479439E+04</pdfrwt>
<totfact> 0.28697545E+01</totfact>
</mgrwt>
</event>
<event>
12    6  0.1402540E-007  0.1170101E+04  0.7818608E-02  0.9139437E-01
          2   -1    0    0  501    0  0.00000000000E+00  0.00000000000E+00  0.92672401710E+03  0.92672401710E+03  0.00000000000E+00 0. -1.
         -1   -1    0    0    0  501 -0.00000000000E+00 -0.00000000000E+00 -0.36934842937E+03  0.36934842937E+03  0.00000000000E+00 0.  1.
         24    2    1    2    0    0 -0.27807247542E+02 -0.17587900164E+03 -0.41852292090E+02  0.19960498037E+03  0.79899108891E+02 0.  0.
        254    2    1    2    0    0  0.27807247542E+02  0.17587900164E+03  0.59922787982E+03  0.10964674661E+04  0.90081084920E+03 0.  0.
         23    2    4    4    0    0 -0.24696938666E+03  0.37565905207E+03  0.75560280304E+02  0.46491593222E+03  0.91235227451E+02 0.  0.
         23    2    4    4    0    0  0.27477663420E+03 -0.19978005043E+03  0.52366759952E+03  0.63155153388E+03  0.95996447398E+02 0.  0.
          2    1    3    3  502    0  0.11403524548E+02 -0.13406701846E+03 -0.12294525867E+02  0.13511166188E+03  0.00000000000E+00 0. -1.
         -1    1    3    3    0  502 -0.39210772090E+02 -0.41811983182E+02 -0.29557766222E+02  0.64493318488E+02  0.00000000000E+00 0.  1.
         11    1    5    5    0    0 -0.20657283681E+03  0.36006679860E+03  0.63308490067E+02  0.41991475477E+03  0.00000000000E+00 0. -1.
        -11    1    5    5    0    0 -0.40396549850E+02  0.15592253469E+02  0.12251790237E+02  0.45001177451E+02  0.00000000000E+00 0.  1.
          3    1    6    6  503    0  0.24951201048E+02 -0.62045113850E+02  0.82776834857E+02  0.10641505051E+03  0.00000000000E+00 0. -1.
         -3    1    6    6    0  503  0.24982543315E+03 -0.13773493658E+03  0.44089076466E+03  0.52513648337E+03  0.00000000000E+00 0.  1.
<mgrwt>
<rscale>  0 0.11701010E+04</rscale>
<asrwt>0</asrwt>
<pdfrwt beam="1">  1        2 0.14257292E+00 0.11701010E+04</pdfrwt>
<pdfrwt beam="2">  1       -1 0.56822836E-01 0.11701010E+04</pdfrwt>
<totfact> 0.99485479E+01</totfact>
</mgrwt>
</event>
<event>
12    6  0.1402540E-007  0.1557114E+04  0.7818608E-02  0.8847337E-01
         -1   -1    0    0    0  501 -0.00000000000E+00  0.00000000000E+00  0.50404719872E+03  0.50404719872E+03  0.00000000000E+00 0.  1.
          2   -1    0    0  501    0  0.00000000000E+00 -0.00000000000E+00 -0.12025672431E+04  0.12025672431E+04  0.00000000000E+00 0. -1.
         24    2    1    2    0    0 -0.32518555206E+03  0.26175169061E+03  0.95963574164E+02  0.43530668875E+03  0.77610018061E+02 0.  0.
        254    2    1    2    0    0  0.32518555206E+03 -0.26175169061E+03 -0.79448361851E+03  0.12713077530E+04  0.90042189668E+03 0.  0.
         23    2    4    4    0    0  0.87075412688E+02 -0.19008965807E+03  0.16122319122E+03  0.27927612070E+03  0.91027625498E+02 0.  0.
         23    2    4    4    0    0  0.23811013937E+03 -0.71662032537E+02 -0.95570680974E+03  0.99203163233E+03  0.94442405707E+02 0.  0.
          4    1    3    3  502    0 -0.75325326113E+02  0.45319358378E+02 -0.92717817938E+01  0.88395220094E+02  0.00000000000E+00 0. -1.
         -3    1    3    3    0  502 -0.24986022595E+03  0.21643233223E+03  0.10523535596E+03  0.34691146866E+03  0.00000000000E+00 0.  1.
         11    1    5    5    0    0  0.52818792787E+02 -0.14261462260E+03  0.62341266207E+02  0.16436297917E+03  0.00000000000E+00 0. -1.
        -11    1    5    5    0    0  0.34256619901E+02 -0.47475035470E+02  0.98881925016E+02  0.11491314152E+03  0.00000000000E+00 0.  1.
          4    1    6    6  503    0  0.21869448452E+03 -0.55191973098E+02 -0.92519945365E+03  0.95229588915E+03  0.00000000000E+00 0. -1.
         -4    1    6    6    0  503  0.19415654849E+02 -0.16470059439E+02 -0.30507356088E+02  0.39735743186E+02  0.00000000000E+00 0.  1.
<mgrwt>
<rscale>  0 0.15571135E+04</rscale>
<asrwt>0</asrwt>
<pdfrwt beam="1">  1        2 0.18501034E+00 0.15571135E+04</pdfrwt>
<pdfrwt beam="2">  1       -1 0.77545724E-01 0.15571135E+04</pdfrwt>
<totfact> 0.34510190E+01</totfact>
</mgrwt>
</event>
