<event>
12    6  0.1586493E-007  0.2492749E+04  0.7818608E-02  0.8405573E-01
         -1   -1    0    0    0  501 -0.00000000000E+00  0.00000000000E+00  0.75954666703E+03  0.75954666703E+03  0.00000000000E+00 0.  1.
          2   -1    0    0  501    0  0.00000000000E+00 -0.00000000000E+00 -0.20452330725E+04  0.20452330725E+04  0.00000000000E+00 0. -1.
         24    2    1    2    0    0  0.12170802955E+03  0.78198006205E+03  0.27260639789E+03  0.84063683304E+03  0.77784156438E+02 0.  0.
        254    2    1    2    0    0 -0.12170802955E+03 -0.78198006205E+03 -0.15582928033E+04  0.19641429064E+04  0.89625623244E+03 0.  0.
         23    2    4    4    0    0 -0.38336717530E+02 -0.94847933516E+03 -0.14290196778E+04  0.17180174679E+04  0.91673481542E+02 0.  0.
         23    2    4    4    0    0 -0.83371312017E+02  0.16649927311E+03 -0.12927312547E+03  0.24612543855E+03  0.95882255494E+02 0.  0.
          2    1    3    3  502    0  0.28355605934E+02  0.43199927630E+03  0.15365863900E+03  0.45938915142E+03  0.00000000000E+00 0. -1.
         -1    1    3    3    0  502  0.93352423613E+02  0.34998078576E+03  0.11894775889E+03  0.38124768162E+03  0.00000000000E+00 0.  1.
         11    1    5    5    0    0  0.13580482513E+02 -0.61270112872E+03 -0.88026620705E+03  0.10725929787E+04  0.00000000000E+00 0.  1.
        -11    1    5    5    0    0 -0.51917200043E+02 -0.33577820644E+03 -0.54875347079E+03  0.64542448922E+03  0.00000000000E+00 0. -1.
          3    1    6    6  503    0  0.13789475589E+02  0.73476645701E+02 -0.41441034682E+02  0.85477052219E+02  0.00000000000E+00 0. -1.
         -3    1    6    6    0  503 -0.97160787606E+02  0.93022627405E+02 -0.87832090789E+02  0.16064838633E+03  0.00000000000E+00 0.  1.
<mgrwt>
<rscale>  0 0.24927495E+04</rscale>
<asrwt>0</asrwt>
<pdfrwt beam="1">  1        2 0.31465123E+00 0.24927495E+04</pdfrwt>
<pdfrwt beam="2">  1       -1 0.11685334E+00 0.24927495E+04</pdfrwt>
<totfact> 0.42277838E+00</totfact>
</mgrwt>
</event>
<event>
12    6  0.1586493E-007  0.1193568E+04  0.7818608E-02  0.9118505E-01
         -1   -1    0    0    0  501 -0.00000000000E+00  0.00000000000E+00  0.52948868030E+03  0.52948868030E+03  0.00000000000E+00 0.  1.
          2   -1    0    0  501    0  0.00000000000E+00 -0.00000000000E+00 -0.67263195698E+03  0.67263195698E+03  0.00000000000E+00 0. -1.
         24    2    1    2    0    0 -0.10657552205E+03 -0.72883120521E+01 -0.26138090832E+03  0.29181098478E+03  0.73635658558E+02 0.  0.
        254    2    1    2    0    0  0.10657552205E+03  0.72883120521E+01  0.11823763164E+03  0.91030965250E+03  0.89625446415E+03 0.  0.
         23    2    4    4    0    0 -0.38522483025E+03 -0.51288220352E+02  0.29728710430E+02  0.39926746217E+03  0.86614425660E+02 0.  0.
         23    2    4    4    0    0  0.49180035230E+03  0.58576532404E+02  0.88508921214E+02  0.51104219033E+03  0.89618605701E+02 0.  0.
          4    1    3    3  502    0 -0.11525982619E+03  0.41785955979E+01 -0.23056524456E+03  0.25780345264E+03  0.00000000000E+00 0. -1.
         -3    1    3    3    0  502  0.86843041353E+01 -0.11466907650E+02 -0.30815663757E+02  0.34007532139E+02  0.00000000000E+00 0.  1.
         11    1    5    5    0    0 -0.12555602759E+03 -0.28097516950E+02  0.49411069752E+02  0.13782322133E+03  0.00000000000E+00 0. -1.
        -11    1    5    5    0    0 -0.25966880266E+03 -0.23190703402E+02 -0.19682359322E+02  0.26144424084E+03  0.00000000000E+00 0.  1.
          4    1    6    6  503    0  0.18864808391E+03  0.41124435535E+02 -0.55365570857E+01  0.19315789455E+03  0.00000000000E+00 0. -1.
         -4    1    6    6    0  503  0.30315226839E+03  0.17452096869E+02  0.94045478299E+02  0.31788429578E+03  0.00000000000E+00 0.  1.
<mgrwt>
<rscale>  0 0.11935678E+04</rscale>
<asrwt>0</asrwt>
<pdfrwt beam="1">  1        2 0.10348184E+00 0.11935678E+04</pdfrwt>
<pdfrwt beam="2">  1       -1 0.81459797E-01 0.11935678E+04</pdfrwt>
<totfact> 0.72952104E+01</totfact>
</mgrwt>
</event>
<event>
12    6  0.1586493E-007  0.3684604E+04  0.7818608E-02  0.8071382E-01
         -1   -1    0    0    0  501 -0.00000000000E+00  0.00000000000E+00  0.14179716542E+04  0.14179716542E+04  0.00000000000E+00 0.  1.
          2   -1    0    0  501    0  0.00000000000E+00 -0.00000000000E+00 -0.23936137139E+04  0.23936137139E+04  0.00000000000E+00 0. -1.
         24    2    1    2    0    0  0.14706917859E+04  0.82139026861E+03 -0.59907617308E+02  0.16874651575E+04  0.79582865329E+02 0.  0.
        254    2    1    2    0    0 -0.14706917859E+04 -0.82139026861E+03 -0.91573444243E+03  0.21241202107E+04  0.91416672326E+03 0.  0.
         23    2    4    4    0    0 -0.13315242412E+04 -0.33453042805E+03 -0.81671419594E+03  0.16000316599E+04  0.90619107884E+02 0.  0.
         23    2    4    4    0    0 -0.13916754475E+03 -0.48685984057E+03 -0.99020246495E+02  0.52408855081E+03  0.91998315206E+02 0.  0.
          4    1    3    3  502    0  0.55636764310E+03  0.28065860418E+03 -0.50219640003E+02  0.62516895207E+03  0.00000000000E+00 0. -1.
         -3    1    3    3    0  502  0.91432414282E+03  0.54073166444E+03 -0.96879773046E+01  0.10622962054E+04  0.00000000000E+00 0.  1.
         11    1    5    5    0    0 -0.12849973612E+04 -0.32978958284E+03 -0.80516053433E+03  0.15518578779E+04  0.00000000000E+00 0. -1.
        -11    1    5    5    0    0 -0.46526879949E+02 -0.47408452068E+01 -0.11553661607E+02  0.48173781952E+02  0.00000000000E+00 0.  1.
          3    1    6    6  503    0 -0.41082731748E+02 -0.16295521900E+03  0.10491437624E+02  0.16838130689E+03  0.00000000000E+00 0. -1.
         -3    1    6    6    0  503 -0.98084813000E+02 -0.32390462157E+03 -0.10951168412E+03  0.35570724391E+03  0.00000000000E+00 0.  1.
<mgrwt>
<rscale>  0 0.36846039E+04</rscale>
<asrwt>0</asrwt>
<pdfrwt beam="1">  1        2 0.36824826E+00 0.36846039E+04</pdfrwt>
<pdfrwt beam="2">  1       -1 0.21814949E+00 0.36846039E+04</pdfrwt>
<totfact> 0.41770159E-01</totfact>
</mgrwt>
</event>
<event>
12    6  0.1586493E-007  0.1501976E+04  0.7818608E-02  0.8883140E-01
          2   -1    0    0  501    0  0.00000000000E+00  0.00000000000E+00  0.24516988833E+04  0.24516988833E+04  0.00000000000E+00 0. -1.
         -1   -1    0    0    0  501 -0.00000000000E+00 -0.00000000000E+00 -0.23003771737E+03  0.23003771737E+03  0.00000000000E+00 0.  1.
         24    2    1    2    0    0 -0.16892533109E+03 -0.24866987416E+03  0.13832185755E+04  0.14179730203E+04  0.83554681792E+02 0.  0.
        254    2    1    2    0    0  0.16892533109E+03  0.24866987416E+03  0.83844259049E+03  0.12637635805E+04  0.89651544099E+03 0.  0.
         23    2    4    4    0    0 -0.24613207629E+02 -0.31670505073E+03  0.38980305694E+03  0.51099985472E+03  0.90920455217E+02 0.  0.
         23    2    4    4    0    0  0.19353853872E+03  0.56537492489E+03  0.44863953355E+03  0.75276372573E+03  0.90938572965E+02 0.  0.
          2    1    3    3  502    0 -0.15010077121E+03 -0.16582279062E+03  0.90238535103E+03  0.92969175599E+03  0.00000000000E+00 0. -1.
         -1    1    3    3    0  502 -0.18824559888E+02 -0.82847083542E+02  0.48083322446E+03  0.48828126428E+03  0.00000000000E+00 0.  1.
         11    1    5    5    0    0 -0.29363502668E+02 -0.28734245122E+02  0.34659807343E+02  0.53751040704E+02  0.00000000000E+00 0. -1.
        -11    1    5    5    0    0  0.47502950397E+01 -0.28797080560E+03  0.35514324960E+03  0.45724881401E+03  0.00000000000E+00 0.  1.
          2    1    6    6  503    0  0.96015190419E+02  0.15945962073E+03  0.12003123949E+03  0.22148089282E+03  0.00000000000E+00 0. -1.
         -2    1    6    6    0  503  0.97523348304E+02  0.40591530416E+03  0.32860829406E+03  0.53128283291E+03  0.00000000000E+00 0.  1.
<mgrwt>
<rscale>  0 0.15019763E+04</rscale>
<asrwt>0</asrwt>
<pdfrwt beam="1">  1        2 0.37718443E+00 0.15019763E+04</pdfrwt>
<pdfrwt beam="2">  1       -1 0.35390420E-01 0.15019763E+04</pdfrwt>
<totfact> 0.31145312E+01</totfact>
</mgrwt>
</event>
<event>
12    6  0.1586493E-007  0.1839908E+04  0.7818608E-02  0.8685360E-01
         -1   -1    0    0    0  501 -0.00000000000E+00  0.00000000000E+00  0.43952612758E+03  0.43952612758E+03  0.00000000000E+00 0.  1.
          2   -1    0    0  501    0  0.00000000000E+00 -0.00000000000E+00 -0.19255178793E+04  0.19255178793E+04  0.00000000000E+00 0. -1.
         24    2    1    2    0    0  0.17250230817E+03 -0.17152113050E+03 -0.14328010237E+04  0.14554293844E+04  0.78608999262E+02 0.  0.
        254    2    1    2    0    0 -0.17250230817E+03  0.17152113050E+03 -0.53190727987E+02  0.90961462250E+03  0.87486739760E+03 0.  0.
         23    2    4    4    0    0  0.18133755556E+03  0.14437469196E+03  0.30753560468E+03  0.39542997067E+03  0.89773898355E+02 0.  0.
         23    2    4    4    0    0 -0.35383986373E+03  0.27146438539E+02 -0.36072633266E+03  0.51418465182E+03  0.91229330827E+02 0.  0.
          2    1    3    3  502    0  0.13995349154E+03 -0.16462151246E+03 -0.13283042355E+04  0.13457634875E+04  0.00000000000E+00 0. -1.
         -1    1    3    3    0  502  0.32548816631E+02 -0.68996180360E+01 -0.10449678820E+03  0.10966589688E+03  0.00000000000E+00 0.  1.
         11    1    5    5    0    0  0.10947826880E+03  0.74798268431E+02  0.24171561884E+03  0.27569314952E+03  0.00000000000E+00 0. -1.
        -11    1    5    5    0    0  0.71859286760E+02  0.69576423529E+02  0.65819985841E+02  0.11973682116E+03  0.00000000000E+00 0.  1.
          1    1    6    6  503    0 -0.27679730011E+03  0.57536580320E+02 -0.26355797932E+03  0.38651004112E+03  0.00000000000E+00 0. -1.
         -1    1    6    6    0  503 -0.77042563622E+02 -0.30390141780E+02 -0.97168353348E+02  0.12767461071E+03  0.00000000000E+00 0.  1.
<mgrwt>
<rscale>  0 0.18399081E+04</rscale>
<asrwt>0</asrwt>
<pdfrwt beam="1">  1        2 0.29623351E+00 0.18399081E+04</pdfrwt>
<pdfrwt beam="2">  1       -1 0.67619405E-01 0.18399081E+04</pdfrwt>
<totfact> 0.17444302E+01</totfact>
</mgrwt>
</event>
<event>
12    6  0.1586493E-007  0.1413553E+04  0.7818608E-02  0.8944066E-01
          2   -1    0    0  501    0  0.00000000000E+00  0.00000000000E+00  0.35754303545E+04  0.35754303545E+04  0.00000000000E+00 0. -1.
         -1   -1    0    0    0  501 -0.00000000000E+00 -0.00000000000E+00 -0.13971262569E+03  0.13971262569E+03  0.00000000000E+00 0.  1.
         24    2    1    2    0    0  0.16190505635E+03  0.15971821353E+03  0.19424459321E+04  0.19573633822E+04  0.80324690838E+02 0.  0.
        254    2    1    2    0    0 -0.16190505635E+03 -0.15971821353E+03  0.14932717968E+04  0.17577795980E+04  0.89900239220E+03 0.  0.
         23    2    4    4    0    0 -0.10629451615E+03  0.34336409435E+03  0.37843918312E+03  0.52983686351E+03  0.91178183637E+02 0.  0.
         23    2    4    4    0    0 -0.55610540205E+02 -0.50308230787E+03  0.11148326137E+04  0.12279427345E+04  0.93847014288E+02 0.  0.
          2    1    3    3  502    0  0.70968977482E+02  0.12298091989E+03  0.12402518905E+04  0.12483531770E+04  0.00000000000E+00 0. -1.
         -1    1    3    3    0  502  0.90936078871E+02  0.36737293642E+02  0.70219404154E+03  0.70901020526E+03  0.00000000000E+00 0.  1.
         11    1    5    5    0    0 -0.82487905984E+02  0.32031570342E+03  0.30786496172E+03  0.45187082131E+03  0.00000000000E+00 0. -1.
        -11    1    5    5    0    0 -0.23806610164E+02  0.23048390921E+02  0.70574221400E+02  0.77966042210E+02  0.00000000000E+00 0.  1.
          2    1    6    6  503    0 -0.28536220878E+02 -0.44371400189E+03  0.10213970676E+04  0.11139786358E+04  0.00000000000E+00 0. -1.
         -2    1    6    6    0  503 -0.27074319327E+02 -0.59368305979E+02  0.93435546052E+02  0.11396409868E+03  0.00000000000E+00 0.  1.
<mgrwt>
<rscale>  0 0.14135526E+04</rscale>
<asrwt>0</asrwt>
<pdfrwt beam="1">  1        2 0.55006614E+00 0.14135526E+04</pdfrwt>
<pdfrwt beam="2">  1       -1 0.21494253E-01 0.14135526E+04</pdfrwt>
<totfact> 0.14690136E+01</totfact>
</mgrwt>
</event>
<event>
12    6  0.1586493E-007  0.1421006E+04  0.7818608E-02  0.8938752E-01
          2   -1    0    0  501    0  0.00000000000E+00  0.00000000000E+00  0.10916564661E+04  0.10916564661E+04  0.00000000000E+00 0. -1.
         -1   -1    0    0    0  501 -0.00000000000E+00 -0.00000000000E+00 -0.46242963117E+03  0.46242963117E+03  0.00000000000E+00 0.  1.
         24    2    1    2    0    0 -0.24455818234E+03 -0.32287133740E+02 -0.18508670705E+03  0.31964252849E+03  0.84042211650E+02 0.  0.
        254    2    1    2    0    0  0.24455818234E+03  0.32287133740E+02  0.81431354196E+03  0.12344435688E+04  0.89436749510E+03 0.  0.
         23    2    4    4    0    0  0.27113525065E+03  0.40377378979E+03  0.25713384150E+03  0.55837042523E+03  0.95457434804E+02 0.  0.
         23    2    4    4    0    0 -0.26577068309E+02 -0.37148665605E+03  0.55717970046E+03  0.67607314354E+03  0.88977528816E+02 0.  0.
          4    1    3    3  502    0 -0.20084414896E+03 -0.45280736925E+02 -0.11443436573E+03  0.23555029478E+03  0.00000000000E+00 0. -1.
         -3    1    3    3    0  502 -0.43714033381E+02  0.12993603184E+02 -0.70652341312E+02  0.84092233714E+02  0.00000000000E+00 0.  1.
         11    1    5    5    0    0  0.26497331353E+03  0.37834033573E+03  0.21670018966E+03  0.51020705475E+03  0.00000000000E+00 0. -1.
        -11    1    5    5    0    0  0.61619371251E+01  0.25433454056E+02  0.40433651837E+02  0.48163370472E+02  0.00000000000E+00 0.  1.
          3    1    6    6  503    0 -0.40813538869E+02 -0.27538501156E+03  0.46606907509E+03  0.54288399525E+03  0.00000000000E+00 0. -1.
         -3    1    6    6    0  503  0.14236470560E+02 -0.96101644481E+02  0.91110625370E+02  0.13318914829E+03  0.00000000000E+00 0.  1.
<mgrwt>
<rscale>  0 0.14210057E+04</rscale>
<asrwt>0</asrwt>
<pdfrwt beam="1">  1        2 0.16794715E+00 0.14210057E+04</pdfrwt>
<pdfrwt beam="2">  1       -1 0.71143021E-01 0.14210057E+04</pdfrwt>
<totfact> 0.48770945E+01</totfact>
</mgrwt>
</event>
<event>
12    6  0.1586493E-007  0.2591121E+04  0.7818608E-02  0.8371224E-01
          2   -1    0    0  501    0  0.00000000000E+00  0.00000000000E+00  0.20084228085E+04  0.20084228085E+04  0.00000000000E+00 0. -1.
         -1   -1    0    0    0  501 -0.00000000000E+00 -0.00000000000E+00 -0.83571884294E+03  0.83571884294E+03  0.00000000000E+00 0.  1.
         24    2    1    2    0    0  0.55134050916E+03  0.56677158089E+03  0.14160476753E+04  0.16237899877E+04  0.79350635810E+02 0.  0.
        254    2    1    2    0    0 -0.55134050916E+03 -0.56677158089E+03 -0.24334370978E+03  0.12203516637E+04  0.89712632341E+03 0.  0.
         23    2    4    4    0    0 -0.30702955991E+03  0.14354994689E+03  0.13179091874E+03  0.37619601963E+03  0.96337225496E+02 0.  0.
         23    2    4    4    0    0 -0.24431094925E+03 -0.71032152778E+03 -0.37513462851E+03  0.84415564410E+03  0.87339848938E+02 0.  0.
          2    1    3    3  502    0  0.32017839938E+03  0.28037590100E+03  0.80058210742E+03  0.90667335023E+03  0.00000000000E+00 0. -1.
         -1    1    3    3    0  502  0.23116210978E+03  0.28639567989E+03  0.61546556789E+03  0.71711663746E+03  0.00000000000E+00 0.  1.
         11    1    5    5    0    0 -0.14779816128E+03  0.11219235626E+03  0.40260970969E+02  0.18987460879E+03  0.00000000000E+00 0. -1.
        -11    1    5    5    0    0 -0.15923139863E+03  0.31357590632E+02  0.91529947767E+02  0.18632141084E+03  0.00000000000E+00 0.  1.
          2    1    6    6  503    0 -0.24820954055E+03 -0.65495285696E+03 -0.34115700094E+03  0.77907593991E+03  0.00000000000E+00 0. -1.
         -2    1    6    6    0  503  0.38985912942E+01 -0.55368670821E+02 -0.33977627573E+02  0.65079704195E+02  0.00000000000E+00 0.  1.
<mgrwt>
<rscale>  0 0.25911208E+04</rscale>
<asrwt>0</asrwt>
<pdfrwt beam="1">  1        2 0.30898812E+00 0.25911208E+04</pdfrwt>
<pdfrwt beam="2">  1       -1 0.12857213E+00 0.25911208E+04</pdfrwt>
<totfact> 0.34712692E+00</totfact>
</mgrwt>
</event>
<event>
12    6  0.1586493E-007  0.2467251E+04  0.7818608E-02  0.8414746E-01
         -1   -1    0    0    0  501 -0.00000000000E+00  0.00000000000E+00  0.11158229063E+04  0.11158229063E+04  0.00000000000E+00 0.  1.
          2   -1    0    0  501    0  0.00000000000E+00 -0.00000000000E+00 -0.13638651085E+04  0.13638651085E+04  0.00000000000E+00 0. -1.
         24    2    1    2    0    0  0.46150199005E+03  0.73510167542E+03 -0.72898475421E+03  0.11362203318E+04  0.78862604684E+02 0.  0.
        254    2    1    2    0    0 -0.46150199005E+03 -0.73510167542E+03  0.48094255195E+03  0.13434676830E+04  0.90567163859E+03 0.  0.
         23    2    4    4    0    0 -0.29078595344E+03 -0.86302049615E+03  0.58994200454E+03  0.10890436149E+04  0.92863227501E+02 0.  0.
         23    2    4    4    0    0 -0.17071603661E+03  0.12791882073E+03 -0.10899945258E+03  0.25442406806E+03  0.85694433257E+02 0.  0.
          2    1    3    3  502    0  0.16958419500E+03  0.23367236536E+03 -0.20162245414E+03  0.35215506178E+03  0.00000000000E+00 0. -1.
         -1    1    3    3    0  502  0.29191779506E+03  0.50142931006E+03 -0.52736230007E+03  0.78406526998E+03  0.00000000000E+00 0.  1.
         11    1    5    5    0    0 -0.21029083962E+03 -0.71226189469E+03  0.45176907085E+03  0.86927241831E+03  0.00000000000E+00 0.  1.
        -11    1    5    5    0    0 -0.80495113818E+02 -0.15075860145E+03  0.13817293368E+03  0.21977119662E+03  0.00000000000E+00 0. -1.
          2    1    6    6  503    0 -0.16830348193E+03  0.12265831229E+03 -0.77205465706E+02  0.22210764854E+03  0.00000000000E+00 0.  1.
         -2    1    6    6    0  503 -0.24125546816E+01  0.52605084353E+01 -0.31793986876E+02  0.32316419520E+02  0.00000000000E+00 0. -1.
<mgrwt>
<rscale>  0 0.24672510E+04</rscale>
<asrwt>0</asrwt>
<pdfrwt beam="1">  1        2 0.20982540E+00 0.24672510E+04</pdfrwt>
<pdfrwt beam="2">  1       -1 0.17166506E+00 0.24672510E+04</pdfrwt>
<totfact> 0.37002368E+00</totfact>
</mgrwt>
</event>
<event>
12    6  0.1586493E-007  0.2610224E+04  0.7818608E-02  0.8364737E-01
          2   -1    0    0  501    0  0.00000000000E+00  0.00000000000E+00  0.24742633100E+04  0.24742633100E+04  0.00000000000E+00 0. -1.
         -1   -1    0    0    0  501 -0.00000000000E+00 -0.00000000000E+00 -0.68841385058E+03  0.68841385058E+03  0.00000000000E+00 0.  1.
         24    2    1    2    0    0  0.15477751987E+03  0.79032337116E+03 -0.20545307277E+03  0.83759538983E+03  0.10386510624E+03 0.  0.
        254    2    1    2    0    0 -0.15477751987E+03 -0.79032337116E+03  0.19913025321E+04  0.23250817707E+04  0.89002941204E+03 0.  0.
         23    2    4    4    0    0 -0.40426763452E+03 -0.54406118256E+03  0.67920827826E+03  0.96390118804E+03  0.91360409117E+02 0.  0.
         23    2    4    4    0    0  0.24949011465E+03 -0.24626218861E+03  0.13120942539E+04  0.13611805827E+04  0.91273570874E+02 0.  0.
          4    1    3    3  502    0  0.90486547795E+02  0.43529661038E+03 -0.16626049257E+03  0.47467199805E+03  0.00000000000E+00 0. -1.
         -3    1    3    3    0  502  0.64290972073E+02  0.35502676078E+03 -0.39192580201E+02  0.36292339179E+03  0.00000000000E+00 0.  1.
         11    1    5    5    0    0 -0.23540117970E+03 -0.35476789470E+03  0.37098913213E+03  0.56471843486E+03  0.00000000000E+00 0.  1.
        -11    1    5    5    0    0 -0.16886645482E+03 -0.18929328786E+03  0.30821914613E+03  0.39918275318E+03  0.00000000000E+00 0. -1.
          4    1    6    6  503    0  0.23953099292E+03 -0.23092845216E+03  0.11243138642E+04  0.11725121371E+04  0.00000000000E+00 0. -1.
         -4    1    6    6    0  503  0.99591217323E+01 -0.15333736443E+02  0.18778038971E+03  0.18866844553E+03  0.00000000000E+00 0.  1.
<mgrwt>
<rscale>  0 0.26102238E+04</rscale>
<asrwt>0</asrwt>
<pdfrwt beam="1">  1        2 0.38065589E+00 0.26102238E+04</pdfrwt>
<pdfrwt beam="2">  1       -1 0.10590982E+00 0.26102238E+04</pdfrwt>
<totfact> 0.30204927E+00</totfact>
</mgrwt>
</event>
<event>
12    6  0.1586493E-007  0.1272732E+04  0.7818608E-02  0.9051473E-01
          2   -1    0    0  501    0  0.00000000000E+00  0.00000000000E+00  0.10670490465E+04  0.10670490465E+04  0.00000000000E+00 0. -1.
         -1   -1    0    0    0  501 -0.00000000000E+00 -0.00000000000E+00 -0.37951538458E+03  0.37951538458E+03  0.00000000000E+00 0.  1.
         24    2    1    2    0    0 -0.10463194967E+03 -0.12782987412E+03 -0.11911777652E+03  0.22035873060E+03  0.84146324102E+02 0.  0.
        254    2    1    2    0    0  0.10463194967E+03  0.12782987412E+03  0.80665143841E+03  0.12262057004E+04  0.90862839220E+03 0.  0.
         23    2    4    4    0    0 -0.36499270042E+03  0.21908084268E+03  0.40779378540E+03  0.59654480872E+03  0.91399400468E+02 0.  0.
         23    2    4    4    0    0  0.46962465009E+03 -0.91250968563E+02  0.39885765301E+03  0.62966089173E+03  0.92257032109E+02 0.  0.
          2    1    3    3  502    0 -0.16228605619E+02 -0.35977800575E+02  0.80632713205E+01  0.40283819567E+02  0.00000000000E+00 0. -1.
         -1    1    3    3    0  502 -0.88403344049E+02 -0.91852073544E+02 -0.12718104784E+03  0.18007491103E+03  0.00000000000E+00 0.  1.
         11    1    5    5    0    0 -0.22007567998E+03  0.18257740351E+03  0.26700877687E+03  0.39123075047E+03  0.00000000000E+00 0.  1.
        -11    1    5    5    0    0 -0.14491702044E+03  0.36503439168E+02  0.14078500853E+03  0.20531405824E+03  0.00000000000E+00 0. -1.
          2    1    6    6  503    0  0.22229575812E+03 -0.77934725069E+01  0.14483881877E+03  0.26543252573E+03  0.00000000000E+00 0. -1.
         -2    1    6    6    0  503  0.24732889197E+03 -0.83457496056E+02  0.25401883424E+03  0.36422836600E+03  0.00000000000E+00 0.  1.
<mgrwt>
<rscale>  0 0.12727318E+04</rscale>
<asrwt>0</asrwt>
<pdfrwt beam="1">  1        2 0.16416139E+00 0.12727318E+04</pdfrwt>
<pdfrwt beam="2">  1       -1 0.58386983E-01 0.12727318E+04</pdfrwt>
<totfact> 0.76027752E+01</totfact>
</mgrwt>
</event>
<event>
12    6  0.1586493E-007  0.1298499E+04  0.7818608E-02  0.9030756E-01
         -1   -1    0    0    0  501 -0.00000000000E+00  0.00000000000E+00  0.45650002064E+03  0.45650002064E+03  0.00000000000E+00 0.  1.
          2   -1    0    0  501    0  0.00000000000E+00 -0.00000000000E+00 -0.92338404855E+03  0.92338404855E+03  0.00000000000E+00 0. -1.
         24    2    1    2    0    0 -0.10831749675E+03  0.20631927519E+03 -0.40812025953E+03  0.47766712814E+03  0.85460023694E+02 0.  0.
        254    2    1    2    0    0  0.10831749675E+03 -0.20631927519E+03 -0.58763768372E+02  0.90221694105E+03  0.86962170214E+03 0.  0.
         23    2    4    4    0    0  0.17410994083E+03  0.14365682029E+03 -0.35432614714E+03  0.43017366974E+03  0.92470611977E+02 0.  0.
         23    2    4    4    0    0 -0.65792444082E+02 -0.34997609548E+03  0.29556237876E+03  0.47204327131E+03  0.93036644117E+02 0.  0.
          2    1    3    3  502    0 -0.11418986941E+03  0.20969832926E+03 -0.40513644462E+03  0.47026402619E+03  0.00000000000E+00 0. -1.
         -1    1    3    3    0  502  0.58723726610E+01 -0.33790540709E+01 -0.29838149163E+01  0.74031019538E+01  0.00000000000E+00 0.  1.
         11    1    5    5    0    0  0.58371608141E+02  0.51813574969E+02 -0.20827888557E+03  0.22242298749E+03  0.00000000000E+00 0.  1.
        -11    1    5    5    0    0  0.11573833269E+03  0.91843245319E+02 -0.14604726156E+03  0.20775068225E+03  0.00000000000E+00 0. -1.
          1    1    6    6  503    0 -0.18228687493E+02 -0.30252522636E+02  0.19749430743E+01  0.35375140618E+02  0.00000000000E+00 0. -1.
         -1    1    6    6    0  503 -0.47563756589E+02 -0.31972357284E+03  0.29358743569E+03  0.43666813070E+03  0.00000000000E+00 0.  1.
<mgrwt>
<rscale>  0 0.12984989E+04</rscale>
<asrwt>0</asrwt>
<pdfrwt beam="1">  1        2 0.14205908E+00 0.12984989E+04</pdfrwt>
<pdfrwt beam="2">  1       -1 0.70230773E-01 0.12984989E+04</pdfrwt>
<totfact> 0.64838349E+01</totfact>
</mgrwt>
</event>
<event>
12    6  0.1586493E-007  0.5327466E+04  0.7818608E-02  0.7779886E-01
          2   -1    0    0  501    0  0.00000000000E+00  0.00000000000E+00  0.24415459550E+04  0.24415459550E+04  0.00000000000E+00 0. -1.
         -1   -1    0    0    0  501 -0.00000000000E+00 -0.00000000000E+00 -0.29061399112E+04  0.29061399112E+04  0.00000000000E+00 0.  1.
         24    2    1    2    0    0 -0.11596488684E+04 -0.47390633803E+03 -0.24967536711E+04  0.27945414221E+04  0.79436457672E+02 0.  0.
        254    2    1    2    0    0  0.11596488684E+04  0.47390633803E+03  0.20321597149E+04  0.25531444441E+04  0.90526279629E+03 0.  0.
         23    2    4    4    0    0  0.71896714221E+03  0.70374840321E+03  0.15770467881E+04  0.18731095678E+04  0.96370714254E+02 0.  0.
         23    2    4    4    0    0  0.44068172615E+03 -0.22984206518E+03  0.45511292679E+03  0.68003487626E+03  0.91059860069E+02 0.  0.
          4    1    3    3  502    0 -0.94485374098E+02 -0.35224046357E+02 -0.15724670604E+03  0.18680135417E+03  0.00000000000E+00 0. -1.
         -1    1    3    3    0  502 -0.10651634943E+04 -0.43868229167E+03 -0.23395069650E+04  0.26077400679E+04  0.00000000000E+00 0.  1.
         11    1    5    5    0    0  0.68340790507E+03  0.64239427878E+03  0.14926791294E+04  0.17628975460E+04  0.00000000000E+00 0. -1.
        -11    1    5    5    0    0  0.35559237147E+02  0.61354124425E+02  0.84367658662E+02  0.11021202184E+03  0.00000000000E+00 0.  1.
          2    1    6    6  503    0  0.25614780970E+03 -0.17514260407E+03  0.24737209297E+03  0.39683697478E+03  0.00000000000E+00 0. -1.
         -2    1    6    6    0  503  0.18453391645E+03 -0.54699461102E+02  0.20774083382E+03  0.28319790148E+03  0.00000000000E+00 0.  1.
<mgrwt>
<rscale>  0 0.53274662E+04</rscale>
<asrwt>0</asrwt>
<pdfrwt beam="1">  1        2 0.37562246E+00 0.53274662E+04</pdfrwt>
<pdfrwt beam="2">  1       -1 0.44709844E+00 0.53274662E+04</pdfrwt>
<totfact> 0.10326927E-02</totfact>
</mgrwt>
</event>
<event>
12    6  0.1586493E-007  0.1723406E+04  0.7818608E-02  0.8748127E-01
         -1   -1    0    0    0  501 -0.00000000000E+00  0.00000000000E+00  0.38530816510E+03  0.38530816510E+03  0.00000000000E+00 0.  1.
          2   -1    0    0  501    0  0.00000000000E+00 -0.00000000000E+00 -0.19271121776E+04  0.19271121776E+04  0.00000000000E+00 0. -1.
         24    2    1    2    0    0  0.76566141443E+01  0.62192329374E+03 -0.71032339489E+03  0.94730665634E+03  0.77352238374E+02 0.  0.
        254    2    1    2    0    0 -0.76566141443E+01 -0.62192329374E+03 -0.83148061758E+03  0.13651136863E+04  0.88618742496E+03 0.  0.
         23    2    4    4    0    0 -0.32724340417E+03 -0.62049728840E+03 -0.37504288418E+03  0.80084826811E+03  0.92712744950E+02 0.  0.
         23    2    4    4    0    0  0.31958679003E+03 -0.14260053414E+01 -0.45643773340E+03  0.56426541822E+03  0.89007347334E+02 0.  0.
          2    1    3    3  502    0  0.12136105198E+02  0.60312136788E+03 -0.66396190929E+03  0.89707752532E+03  0.00000000000E+00 0. -1.
         -1    1    3    3    0  502 -0.44794910537E+01  0.18801925863E+02 -0.46361485606E+02  0.50229131028E+02  0.00000000000E+00 0.  1.
         11    1    5    5    0    0 -0.16260635049E+03 -0.38451831662E+03 -0.18953051354E+03  0.45849424925E+03  0.00000000000E+00 0.  1.
        -11    1    5    5    0    0 -0.16463705368E+03 -0.23597897178E+03 -0.18551237063E+03  0.34235401886E+03  0.00000000000E+00 0. -1.
          4    1    6    6  503    0  0.21196754914E+02 -0.24568930452E+01 -0.85936400842E+02  0.88546054299E+02  0.00000000000E+00 0.  1.
         -4    1    6    6    0  503  0.29839003511E+03  0.10308877038E+01 -0.37050133256E+03  0.47571936392E+03  0.00000000000E+00 0. -1.
<mgrwt>
<rscale>  0 0.17234060E+04</rscale>
<asrwt>0</asrwt>
<pdfrwt beam="1">  1        2 0.29647880E+00 0.17234060E+04</pdfrwt>
<pdfrwt beam="2">  1       -1 0.59278178E-01 0.17234060E+04</pdfrwt>
<totfact> 0.22890597E+01</totfact>
</mgrwt>
</event>
<event>
12    6  0.1586493E-007  0.2382943E+04  0.7818608E-02  0.8445917E-01
          2   -1    0    0  501    0  0.00000000000E+00  0.00000000000E+00  0.28053577569E+04  0.28053577569E+04  0.00000000000E+00 0. -1.
         -1   -1    0    0    0  501 -0.00000000000E+00 -0.00000000000E+00 -0.50603319166E+03  0.50603319166E+03  0.00000000000E+00 0.  1.
         24    2    1    2    0    0  0.65158676765E+03  0.77236204545E+03  0.78559311874E+03  0.12824049553E+04  0.79356639486E+02 0.  0.
        254    2    1    2    0    0 -0.65158676765E+03 -0.77236204545E+03  0.15137314465E+04  0.20289859932E+04  0.89682374158E+03 0.  0.
         23    2    4    4    0    0 -0.39275537591E+03 -0.76144491381E+03  0.15274921185E+04  0.17537174020E+04  0.90760187967E+02 0.  0.
         23    2    4    4    0    0 -0.25883139175E+03 -0.10917131650E+02 -0.13760672039E+02  0.27526859124E+03  0.92035689325E+02 0.  0.
          4    1    3    3  502    0  0.11382786852E+03  0.15060402318E+03  0.11102015128E+03  0.21900645981E+03  0.00000000000E+00 0. -1.
         -3    1    3    3    0  502  0.53775889913E+03  0.62175802228E+03  0.67457296747E+03  0.10633984955E+04  0.00000000000E+00 0.  1.
         11    1    5    5    0    0 -0.24983952245E+03 -0.57210444905E+03  0.10973732727E+04  0.12625178760E+04  0.00000000000E+00 0.  1.
        -11    1    5    5    0    0 -0.14291585346E+03 -0.18934046475E+03  0.43011884577E+03  0.49119952590E+03  0.00000000000E+00 0. -1.
          3    1    6    6  503    0 -0.16280895484E+02  0.24327832130E+02 -0.68974942041E+01  0.30074680384E+02  0.00000000000E+00 0. -1.
         -3    1    6    6    0  503 -0.24255049626E+03 -0.35244963780E+02 -0.68631778344E+01  0.24519391085E+03  0.00000000000E+00 0.  1.
<mgrwt>
<rscale>  0 0.23829428E+04</rscale>
<asrwt>0</asrwt>
<pdfrwt beam="1">  1        2 0.43159349E+00 0.23829428E+04</pdfrwt>
<pdfrwt beam="2">  1       -1 0.77851262E-01 0.23829428E+04</pdfrwt>
<totfact> 0.38864761E+00</totfact>
</mgrwt>
</event>
<event>
12    6  0.1586493E-007  0.1727369E+04  0.7818608E-02  0.8745907E-01
          2   -1    0    0  501    0  0.00000000000E+00  0.00000000000E+00  0.87907126217E+03  0.87907126217E+03  0.00000000000E+00 0. -1.
         -1   -1    0    0    0  501 -0.00000000000E+00 -0.00000000000E+00 -0.84856726898E+03  0.84856726898E+03  0.00000000000E+00 0.  1.
         24    2    1    2    0    0  0.29586099590E+03  0.23219360276E+03  0.53899483422E+03  0.66214442177E+03  0.80450021145E+02 0.  0.
        254    2    1    2    0    0 -0.29586099590E+03 -0.23219360276E+03 -0.50849084103E+03  0.10654941094E+04  0.85747720883E+03 0.  0.
         23    2    4    4    0    0 -0.46580992508E+03 -0.41231925231E+03 -0.19968880358E+03  0.65961767366E+03  0.90740316310E+02 0.  0.
         23    2    4    4    0    0  0.16994892917E+03  0.18012564955E+03 -0.30880203745E+03  0.40587643573E+03  0.89716746435E+02 0.  0.
          2    1    3    3  502    0  0.12756491981E+03  0.13676606721E+03  0.21675527440E+03  0.28628764362E+03  0.00000000000E+00 0. -1.
         -1    1    3    3    0  502  0.16829607609E+03  0.95427535543E+02  0.32223955982E+03  0.37585677815E+03  0.00000000000E+00 0.  1.
         11    1    5    5    0    0 -0.93637493277E+02 -0.13346528781E+03 -0.39521100280E+02  0.16775839938E+03  0.00000000000E+00 0. -1.
        -11    1    5    5    0    0 -0.37217243180E+03 -0.27885396450E+03 -0.16016770330E+03  0.49185927428E+03  0.00000000000E+00 0.  1.
          4    1    6    6  503    0  0.17080608452E+03  0.14716894934E+03 -0.29188119529E+03  0.36881980739E+03  0.00000000000E+00 0.  1.
         -4    1    6    6    0  503 -0.85715534723E+00  0.32956700217E+02 -0.16920842163E+02  0.37056628341E+02  0.00000000000E+00 0. -1.
<mgrwt>
<rscale>  0 0.17273692E+04</rscale>
<asrwt>0</asrwt>
<pdfrwt beam="1">  1        2 0.13524173E+00 0.17273692E+04</pdfrwt>
<pdfrwt beam="2">  1       -1 0.13054881E+00 0.17273692E+04</pdfrwt>
<totfact> 0.16478690E+01</totfact>
</mgrwt>
</event>
<event>
12    6  0.1586493E-007  0.1395883E+04  0.7818608E-02  0.8956804E-01
          2   -1    0    0  501    0  0.00000000000E+00  0.00000000000E+00  0.65022318276E+03  0.65022318276E+03  0.00000000000E+00 0. -1.
         -1   -1    0    0    0  501 -0.00000000000E+00 -0.00000000000E+00 -0.74916224126E+03  0.74916224126E+03  0.00000000000E+00 0.  1.
         24    2    1    2    0    0 -0.29121959392E+03 -0.13797513250E+02  0.25295300281E+03  0.39435726723E+03  0.80828270632E+02 0.  0.
        254    2    1    2    0    0  0.29121959392E+03  0.13797513250E+02 -0.35189206131E+03  0.10050281568E+04  0.89512811925E+03 0.  0.
         23    2    4    4    0    0  0.22022755914E+03 -0.40683077052E+03 -0.48458503802E+02  0.47381860997E+03  0.90246301366E+02 0.  0.
         23    2    4    4    0    0  0.70992034775E+02  0.42062828377E+03 -0.30343355751E+03  0.53120954683E+03  0.90242100524E+02 0.  0.
          2    1    3    3  502    0 -0.14656893876E+03 -0.38815639321E+01  0.74606504812E+02  0.16451033678E+03  0.00000000000E+00 0. -1.
         -1    1    3    3    0  502 -0.14465065516E+03 -0.99159493175E+01  0.17834649800E+03  0.22984693045E+03  0.00000000000E+00 0.  1.
         11    1    5    5    0    0  0.13505585511E+03 -0.27401415336E+03  0.97471685982E+01  0.30564496976E+03  0.00000000000E+00 0.  1.
        -11    1    5    5    0    0  0.85171704028E+02 -0.13281661716E+03 -0.58205672400E+02  0.16817364021E+03  0.00000000000E+00 0. -1.
          3    1    6    6  503    0  0.58699424396E+02  0.40590851490E+03 -0.26510891149E+03  0.48835446127E+03  0.00000000000E+00 0. -1.
         -3    1    6    6    0  503  0.12292610378E+02  0.14719768874E+02 -0.38324646018E+02  0.42855085556E+02  0.00000000000E+00 0.  1.
<mgrwt>
<rscale>  0 0.13958835E+04</rscale>
<asrwt>0</asrwt>
<pdfrwt beam="1">  1        2 0.10003434E+00 0.13958835E+04</pdfrwt>
<pdfrwt beam="2">  1       -1 0.11525573E+00 0.13958835E+04</pdfrwt>
<totfact> 0.34144778E+01</totfact>
</mgrwt>
</event>
<event>
12    6  0.1586493E-007  0.1383366E+04  0.7818608E-02  0.8965948E-01
         -1   -1    0    0    0  501 -0.00000000000E+00  0.00000000000E+00  0.20341290858E+03  0.20341290858E+03  0.00000000000E+00 0.  1.
          2   -1    0    0  501    0  0.00000000000E+00 -0.00000000000E+00 -0.23519921456E+04  0.23519921456E+04  0.00000000000E+00 0. -1.
         24    2    1    2    0    0 -0.31174919753E+03  0.21789370537E+03 -0.75742764531E+03  0.85137662908E+03  0.80500296003E+02 0.  0.
        254    2    1    2    0    0  0.31174919753E+03 -0.21789370537E+03 -0.13911515917E+04  0.17040284251E+04  0.90760392981E+03 0.  0.
         23    2    4    4    0    0  0.56789346324E+03 -0.16800150707E+03 -0.53416364348E+03  0.80360098207E+03  0.98571032271E+02 0.  0.
         23    2    4    4    0    0 -0.25614426570E+03 -0.49892198305E+02 -0.85698794823E+03  0.90042744302E+03  0.90786124682E+02 0.  0.
          4    1    3    3  502    0 -0.27957294247E+02  0.46627065914E+02 -0.74166387484E+02  0.91958396081E+02  0.00000000000E+00 0. -1.
         -3    1    3    3    0  502 -0.28379190329E+03  0.17126663946E+03 -0.68326125783E+03  0.75941823300E+03  0.00000000000E+00 0.  1.
         11    1    5    5    0    0  0.37000039557E+02  0.65801227150E+01 -0.13938188835E+02  0.40082091390E+02  0.00000000000E+00 0.  1.
        -11    1    5    5    0    0  0.53089342368E+03 -0.17458162978E+03 -0.52022545464E+03  0.76351889068E+03  0.00000000000E+00 0. -1.
          1    1    6    6  503    0 -0.20672880287E+03 -0.93046849388E+00 -0.63901744175E+03  0.67162560595E+03  0.00000000000E+00 0. -1.
         -1    1    6    6    0  503 -0.49415462835E+02 -0.48961729811E+02 -0.21797050648E+03  0.22880183707E+03  0.00000000000E+00 0.  1.
<mgrwt>
<rscale>  0 0.13833663E+04</rscale>
<asrwt>0</asrwt>
<pdfrwt beam="1">  1        2 0.36184494E+00 0.13833663E+04</pdfrwt>
<pdfrwt beam="2">  1       -1 0.31294294E-01 0.13833663E+04</pdfrwt>
<totfact> 0.44637822E+01</totfact>
</mgrwt>
</event>
<event>
12    6  0.1586493E-007  0.1526479E+04  0.7818608E-02  0.8867033E-01
         -1   -1    0    0    0  501 -0.00000000000E+00  0.00000000000E+00  0.10028882178E+04  0.10028882178E+04  0.00000000000E+00 0.  1.
          2   -1    0    0  501    0  0.00000000000E+00 -0.00000000000E+00 -0.58085712303E+03  0.58085712303E+03  0.00000000000E+00 0. -1.
         24    2    1    2    0    0  0.14896101404E+03  0.10431025047E+03 -0.35067470190E+03  0.40354143162E+03  0.82479866753E+02 0.  0.
        254    2    1    2    0    0 -0.14896101404E+03 -0.10431025047E+03  0.77270579664E+03  0.11802039092E+04  0.87334815910E+03 0.  0.
         23    2    4    4    0    0 -0.20144322685E+03 -0.59733109691E+02  0.94565763357E+03  0.97302103151E+03  0.91401038252E+02 0.  0.
         23    2    4    4    0    0  0.52482212816E+02 -0.44577140781E+02 -0.17295183693E+03  0.20718287766E+03  0.90944503703E+02 0.  0.
          4    1    3    3  502    0  0.14011866460E+03  0.56551453727E+02 -0.26720509716E+03  0.30696884376E+03  0.00000000000E+00 0. -1.
         -3    1    3    3    0  502  0.88423494344E+01  0.47758796745E+02 -0.83469604740E+02  0.96572587857E+02  0.00000000000E+00 0.  1.
         11    1    5    5    0    0 -0.77655480719E+02 -0.15212632660E+02  0.18717337765E+03  0.20321336368E+03  0.00000000000E+00 0. -1.
        -11    1    5    5    0    0 -0.12378774613E+03 -0.44520477031E+02  0.75848425593E+03  0.76980766783E+03  0.00000000000E+00 0.  1.
          1    1    6    6  503    0  0.41859325385E+02 -0.10146347718E+02 -0.15681004185E+02  0.45837161626E+02  0.00000000000E+00 0. -1.
         -1    1    6    6    0  503  0.10622887430E+02 -0.34430793063E+02 -0.15727083275E+03  0.16134571603E+03  0.00000000000E+00 0.  1.
<mgrwt>
<rscale>  0 0.15264793E+04</rscale>
<asrwt>0</asrwt>
<pdfrwt beam="1">  1        2 0.89362635E-01 0.15264793E+04</pdfrwt>
<pdfrwt beam="2">  1       -1 0.15429049E+00 0.15264793E+04</pdfrwt>
<totfact> 0.18366752E+01</totfact>
</mgrwt>
</event>
<event>
12    6  0.1586493E-007  0.2019133E+04  0.7818608E-02  0.8597727E-01
          2   -1    0    0  501    0  0.00000000000E+00  0.00000000000E+00  0.37449367524E+03  0.37449367524E+03  0.00000000000E+00 0. -1.
         -1   -1    0    0    0  501 -0.00000000000E+00 -0.00000000000E+00 -0.27216074589E+04  0.27216074589E+04  0.00000000000E+00 0.  1.
         24    2    1    2    0    0  0.41657215549E+03 -0.28062623141E+03 -0.19078756241E+04  0.19745177362E+04  0.80296020149E+02 0.  0.
        254    2    1    2    0    0 -0.41657215549E+03  0.28062623141E+03 -0.43923815954E+03  0.11215833980E+04  0.90151856071E+03 0.  0.
         23    2    4    4    0    0 -0.23979633216E+03 -0.38140305515E+02  0.23506452926E+03  0.34978697974E+03  0.90214380571E+02 0.  0.
         23    2    4    4    0    0 -0.17677582334E+03  0.31876653693E+03 -0.67430268880E+03  0.77179641823E+03  0.90132115694E+02 0.  0.
          4    1    3    3  502    0  0.40486444609E+03 -0.28573918464E+03 -0.18473822197E+04  0.19126900343E+04  0.00000000000E+00 0. -1.
         -3    1    3    3    0  502  0.11707709406E+02  0.51129532234E+01 -0.60493404371E+02  0.61827701903E+02  0.00000000000E+00 0.  1.
         11    1    5    5    0    0 -0.12883102014E+03 -0.51514803545E+02  0.17359440240E+03  0.22223011335E+03  0.00000000000E+00 0.  1.
        -11    1    5    5    0    0 -0.11096531202E+03  0.13374498031E+02  0.61470126862E+02  0.12755686640E+03  0.00000000000E+00 0. -1.
          3    1    6    6  503    0 -0.28240386278E+02  0.91651257968E+02 -0.25395576557E+03  0.27146086895E+03  0.00000000000E+00 0. -1.
         -3    1    6    6    0  503 -0.14853543706E+03  0.22711527896E+03 -0.42034692323E+03  0.50033554928E+03  0.00000000000E+00 0.  1.
<mgrwt>
<rscale>  0 0.20191333E+04</rscale>
<asrwt>0</asrwt>
<pdfrwt beam="1">  1        2 0.57614413E-01 0.20191333E+04</pdfrwt>
<pdfrwt beam="2">  1       -1 0.41870883E+00 0.20191333E+04</pdfrwt>
<totfact> 0.48403644E-01</totfact>
</mgrwt>
</event>
<event>
12    6  0.1586493E-007  0.1365857E+04  0.7818608E-02  0.8978910E-01
         -1   -1    0    0    0  501 -0.00000000000E+00  0.00000000000E+00  0.41314256821E+03  0.41314256821E+03  0.00000000000E+00 0.  1.
          2   -1    0    0  501    0  0.00000000000E+00 -0.00000000000E+00 -0.11288875957E+04  0.11288875957E+04  0.00000000000E+00 0. -1.
         24    2    1    2    0    0 -0.20691200175E+03 -0.29570862157E+02 -0.61947824701E+03  0.66132741312E+03  0.99567245988E+02 0.  0.
        254    2    1    2    0    0  0.20691200175E+03  0.29570862157E+02 -0.96266780477E+02  0.88070275079E+03  0.85010765781E+03 0.  0.
         23    2    4    4    0    0 -0.39132848434E+02  0.39443329178E+03  0.48445864818E+02  0.40844904667E+03  0.85875610128E+02 0.  0.
         23    2    4    4    0    0  0.24604485019E+03 -0.36486242963E+03 -0.14471264529E+03  0.47225370412E+03  0.91755928919E+02 0.  0.
          4    1    3    3  502    0 -0.11957995486E+03 -0.64801546988E+02 -0.40030484331E+03  0.42277958048E+03  0.00000000000E+00 0. -1.
         -3    1    3    3    0  502 -0.87332046897E+02  0.35230684832E+02 -0.21917340370E+03  0.23854783264E+03  0.00000000000E+00 0.  1.
         11    1    5    5    0    0 -0.98480626224E+01  0.21093144575E+03  0.67409825414E+02  0.22165997317E+03  0.00000000000E+00 0. -1.
        -11    1    5    5    0    0 -0.29284785811E+02  0.18350184603E+03 -0.18963960596E+02  0.18678907350E+03  0.00000000000E+00 0.  1.
          1    1    6    6  503    0  0.13960313389E+03 -0.21585292762E+03 -0.13126597411E+03  0.28863866219E+03  0.00000000000E+00 0. -1.
         -1    1    6    6    0  503  0.10644171630E+03 -0.14900950201E+03 -0.13446671188E+02  0.18361504193E+03  0.00000000000E+00 0.  1.
<mgrwt>
<rscale>  0 0.13658573E+04</rscale>
<asrwt>0</asrwt>
<pdfrwt beam="1">  1        2 0.17367501E+00 0.13658573E+04</pdfrwt>
<pdfrwt beam="2">  1       -1 0.63560396E-01 0.13658573E+04</pdfrwt>
<totfact> 0.58418955E+01</totfact>
</mgrwt>
</event>
<event>
12    6  0.1586493E-007  0.1435983E+04  0.7818608E-02  0.8928176E-01
          2   -1    0    0  501    0  0.00000000000E+00  0.00000000000E+00  0.23740282875E+04  0.23740282875E+04  0.00000000000E+00 0. -1.
         -1   -1    0    0    0  501 -0.00000000000E+00 -0.00000000000E+00 -0.21714657459E+03  0.21714657459E+03  0.00000000000E+00 0.  1.
         24    2    1    2    0    0  0.41870164161E+03  0.96905133101E+02  0.51755057843E+03  0.67730187494E+03  0.78597449401E+02 0.  0.
        254    2    1    2    0    0 -0.41870164161E+03 -0.96905133101E+02  0.16393311345E+04  0.19138729872E+04  0.88927024745E+03 0.  0.
         23    2    4    4    0    0 -0.50269604168E+02 -0.38807423545E+03  0.11951689280E+04  0.12609486605E+04  0.91837424774E+02 0.  0.
         23    2    4    4    0    0 -0.36843203744E+03  0.29116910234E+03  0.44416220650E+03  0.65292432669E+03  0.92241521765E+02 0.  0.
          2    1    3    3  502    0  0.14167913148E+03  0.51224948157E+02  0.23371474017E+03  0.27806393398E+03  0.00000000000E+00 0. -1.
         -1    1    3    3    0  502  0.27702251013E+03  0.45680184944E+02  0.28383583827E+03  0.39923794096E+03  0.00000000000E+00 0.  1.
         11    1    5    5    0    0  0.24117888719E+02 -0.11569549752E+03  0.30616538764E+03  0.32818343238E+03  0.00000000000E+00 0. -1.
        -11    1    5    5    0    0 -0.74387492887E+02 -0.27237873793E+03  0.88900354035E+03  0.93276522809E+03  0.00000000000E+00 0.  1.
          3    1    6    6  503    0 -0.99892126601E+02  0.30898744104E+02  0.93668609610E+02  0.14038154355E+03  0.00000000000E+00 0. -1.
         -3    1    6    6    0  503 -0.26853991084E+03  0.26027035824E+03  0.35049359689E+03  0.51254278314E+03  0.00000000000E+00 0.  1.
<mgrwt>
<rscale>  0 0.14359834E+04</rscale>
<asrwt>0</asrwt>
<pdfrwt beam="1">  1        2 0.36523510E+00 0.14359834E+04</pdfrwt>
<pdfrwt beam="2">  1       -1 0.33407167E-01 0.14359834E+04</pdfrwt>
<totfact> 0.38456862E+01</totfact>
</mgrwt>
</event>
<event>
12    6  0.1586493E-007  0.1573759E+04  0.7818608E-02  0.8836833E-01
         -1   -1    0    0    0  501 -0.00000000000E+00  0.00000000000E+00  0.69427515181E+03  0.69427515181E+03  0.00000000000E+00 0.  1.
          2   -1    0    0  501    0  0.00000000000E+00 -0.00000000000E+00 -0.89183552866E+03  0.89183552866E+03  0.00000000000E+00 0. -1.
         24    2    1    2    0    0  0.71759041424E+02 -0.22891961429E+03 -0.53612019247E+03  0.59531564806E+03  0.97068585169E+02 0.  0.
        254    2    1    2    0    0 -0.71759041424E+02  0.22891961429E+03  0.33855981561E+03  0.99079503241E+03  0.89972134446E+03 0.  0.
         23    2    4    4    0    0 -0.19613540333E+03 -0.26089393528E+03 -0.56792635916E+02  0.34222801695E+03  0.85789685760E+02 0.  0.
         23    2    4    4    0    0  0.12437636191E+03  0.48981354957E+03  0.39535245153E+03  0.64856701547E+03  0.94598202287E+02 0.  0.
          2    1    3    3  502    0  0.90901448809E+02 -0.21262733437E+03 -0.50409323551E+03  0.55460206167E+03  0.00000000000E+00 0. -1.
         -1    1    3    3    0  502 -0.19142407385E+02 -0.16292279920E+02 -0.32026956953E+02  0.40713586396E+02  0.00000000000E+00 0.  1.
         11    1    5    5    0    0 -0.71037838382E+02 -0.70070385770E+02 -0.55236290601E+02  0.11404946840E+03  0.00000000000E+00 0. -1.
        -11    1    5    5    0    0 -0.12509756495E+03 -0.19082354951E+03 -0.15563453149E+01  0.22817854854E+03  0.00000000000E+00 0.  1.
          2    1    6    6  503    0  0.61826547868E+01  0.21278172701E+03  0.16909402787E+03  0.27185856402E+03  0.00000000000E+00 0. -1.
         -2    1    6    6    0  503  0.11819370712E+03  0.27703182256E+03  0.22625842366E+03  0.37670845144E+03  0.00000000000E+00 0.  1.
<mgrwt>
<rscale>  0 0.15737589E+04</rscale>
<asrwt>0</asrwt>
<pdfrwt beam="1">  1        2 0.13720547E+00 0.15737589E+04</pdfrwt>
<pdfrwt beam="2">  1       -1 0.10681156E+00 0.15737589E+04</pdfrwt>
<totfact> 0.26647174E+01</totfact>
</mgrwt>
</event>
<event>
12    6  0.1586493E-007  0.1371490E+04  0.7818608E-02  0.8974718E-01
          2   -1    0    0  501    0  0.00000000000E+00  0.00000000000E+00  0.25215879544E+04  0.25215879544E+04  0.00000000000E+00 0. -1.
         -1   -1    0    0    0  501 -0.00000000000E+00 -0.00000000000E+00 -0.18648799101E+03  0.18648799101E+03  0.00000000000E+00 0.  1.
         24    2    1    2    0    0 -0.95153968895E+02 -0.22753893009E+03  0.91634542369E+02  0.27728793441E+03  0.87541228642E+02 0.  0.
        254    2    1    2    0    0  0.95153968895E+02  0.22753893009E+03  0.22434654210E+04  0.24307880110E+04  0.90264334962E+03 0.  0.
         23    2    4    4    0    0  0.29118121726E+03  0.26473213300E+03  0.21573071052E+04  0.21949681512E+04  0.95087513081E+02 0.  0.
         23    2    4    4    0    0 -0.19602724837E+03 -0.37193202909E+02  0.86158315766E+02  0.23581985974E+03  0.91529964646E+02 0.  0.
          4    1    3    3  502    0  0.83219231865E+01 -0.13217564283E+02 -0.99519295220E+01  0.18520240612E+02  0.00000000000E+00 0. -1.
         -3    1    3    3    0  502 -0.10347589208E+03 -0.21432136581E+03  0.10158647189E+03  0.25876769380E+03  0.00000000000E+00 0.  1.
         11    1    5    5    0    0  0.16215993731E+03  0.90403153590E+02  0.87891921078E+03  0.89831372834E+03  0.00000000000E+00 0. -1.
        -11    1    5    5    0    0  0.12902127995E+03  0.17432897941E+03  0.12783878945E+04  0.12966544229E+04  0.00000000000E+00 0.  1.
          4    1    6    6  503    0 -0.16018807515E+03 -0.23349407417E+02  0.10507772766E+03  0.19299415301E+03  0.00000000000E+00 0. -1.
         -4    1    6    6    0  503 -0.35839173212E+02 -0.13843795492E+02 -0.18919411893E+02  0.42825706725E+02  0.00000000000E+00 0.  1.
<mgrwt>
<rscale>  0 0.13714895E+04</rscale>
<asrwt>0</asrwt>
<pdfrwt beam="1">  1        2 0.38793658E+00 0.13714895E+04</pdfrwt>
<pdfrwt beam="2">  1       -1 0.28690462E-01 0.13714895E+04</pdfrwt>
<totfact> 0.41625293E+01</totfact>
</mgrwt>
</event>
<event>
12    6  0.1586493E-007  0.1730531E+04  0.7818608E-02  0.8744141E-01
          2   -1    0    0  501    0  0.00000000000E+00  0.00000000000E+00  0.26865358110E+04  0.26865358110E+04  0.00000000000E+00 0. -1.
         -1   -1    0    0    0  501 -0.00000000000E+00 -0.00000000000E+00 -0.27868016558E+03  0.27868016558E+03  0.00000000000E+00 0.  1.
         24    2    1    2    0    0  0.44802546946E+03  0.43373618827E+03  0.10421872132E+04  0.12170675378E+04  0.79027222645E+02 0.  0.
        254    2    1    2    0    0 -0.44802546946E+03 -0.43373618827E+03  0.13656684323E+04  0.17481484388E+04  0.89561085017E+03 0.  0.
         23    2    4    4    0    0 -0.24983764957E+03  0.18731594913E+03  0.85361651705E+03  0.91348637481E+03  0.91049892041E+02 0.  0.
         23    2    4    4    0    0 -0.19818781989E+03 -0.62105213740E+03  0.51205191522E+03  0.83466206401E+03  0.97362353608E+02 0.  0.
          4    1    3    3  502    0  0.42966317332E+02  0.65308251804E+02  0.95277752711E+02  0.12324415743E+03  0.00000000000E+00 0. -1.
         -3    1    3    3    0  502  0.40505915213E+03  0.36842793647E+03  0.94690946049E+03  0.10938233804E+04  0.00000000000E+00 0.  1.
         11    1    5    5    0    0 -0.10086634607E+03  0.40837271205E+02  0.20557578281E+03  0.23260074155E+03  0.00000000000E+00 0. -1.
        -11    1    5    5    0    0 -0.14897130350E+03  0.14647867792E+03  0.64804073424E+03  0.68088563326E+03  0.00000000000E+00 0.  1.
          2    1    6    6  503    0 -0.12857883960E+03 -0.25541832794E+03  0.24514435681E+03  0.37665208869E+03  0.00000000000E+00 0. -1.
         -2    1    6    6    0  503 -0.69608980289E+02 -0.36563380945E+03  0.26690755841E+03  0.45800997532E+03  0.00000000000E+00 0.  1.
<mgrwt>
<rscale>  0 0.17305308E+04</rscale>
<asrwt>0</asrwt>
<pdfrwt beam="1">  1        2 0.41331318E+00 0.17305308E+04</pdfrwt>
<pdfrwt beam="2">  1       -1 0.42873873E-01 0.17305308E+04</pdfrwt>
<totfact> 0.15707660E+01</totfact>
</mgrwt>
</event>
<event>
12    6  0.1586493E-007  0.1016842E+04  0.7818608E-02  0.9290263E-01
         -1   -1    0    0    0  501 -0.00000000000E+00  0.00000000000E+00  0.87492255160E+02  0.87492255160E+02  0.00000000000E+00 0.  1.
          2   -1    0    0  501    0  0.00000000000E+00 -0.00000000000E+00 -0.29544539888E+04  0.29544539888E+04  0.00000000000E+00 0. -1.
         24    2    1    2    0    0 -0.63195887051E+02 -0.59097835076E+02 -0.26540307305E+03  0.29035831336E+03  0.79892957790E+02 0.  0.
        254    2    1    2    0    0  0.63195887051E+02  0.59097835076E+02 -0.26015586606E+04  0.27515879306E+04  0.89198789290E+03 0.  0.
         23    2    4    4    0    0  0.38171508229E+02 -0.12098965349E+03 -0.25313530766E+04  0.25361751081E+04  0.91324806052E+02 0.  0.
         23    2    4    4    0    0  0.25024378822E+02  0.18008748856E+03 -0.70205584037E+02  0.21541282255E+03  0.91739506303E+02 0.  0.
          4    1    3    3  502    0 -0.19013787056E+02 -0.49887213539E+02 -0.21982776527E+03  0.22621782546E+03  0.00000000000E+00 0. -1.
         -3    1    3    3    0  502 -0.44182099995E+02 -0.92106215375E+01 -0.45575307778E+02  0.64140487901E+02  0.00000000000E+00 0.  1.
         11    1    5    5    0    0  0.24487172745E+02 -0.28802601436E+01 -0.16450730616E+03  0.16634473634E+03  0.00000000000E+00 0.  1.
        -11    1    5    5    0    0  0.13684335484E+02 -0.11810939334E+03 -0.23668457704E+04  0.23698303718E+04  0.00000000000E+00 0. -1.
          4    1    6    6  503    0 -0.91984222003E+01  0.80052712068E+02  0.12025890361E+02  0.81471895273E+02  0.00000000000E+00 0. -1.
         -4    1    6    6    0  503  0.34222801022E+02  0.10003477650E+03 -0.82231474398E+02  0.13394092728E+03  0.00000000000E+00 0.  1.
<mgrwt>
<rscale>  0 0.10168419E+04</rscale>
<asrwt>0</asrwt>
<pdfrwt beam="1">  1        2 0.45453129E+00 0.10168419E+04</pdfrwt>
<pdfrwt beam="2">  1       -1 0.13460350E-01 0.10168419E+04</pdfrwt>
<totfact> 0.84708284E+01</totfact>
</mgrwt>
</event>
<event>
12    6  0.1586493E-007  0.1714920E+04  0.7818608E-02  0.8752900E-01
         -1   -1    0    0    0  501 -0.00000000000E+00  0.00000000000E+00  0.69064624458E+03  0.69064624458E+03  0.00000000000E+00 0.  1.
          2   -1    0    0  501    0  0.00000000000E+00 -0.00000000000E+00 -0.10645648596E+04  0.10645648596E+04  0.00000000000E+00 0. -1.
         24    2    1    2    0    0  0.25383197606E+03 -0.33095358165E+03  0.31098112052E+03  0.52569548271E+03  0.75402506216E+02 0.  0.
        254    2    1    2    0    0 -0.25383197606E+03  0.33095358165E+03 -0.68489973555E+03  0.12295156215E+04  0.93201935089E+03 0.  0.
         23    2    4    4    0    0 -0.29878097918E+03 -0.13178401106E+03 -0.67519701687E+03  0.75562997426E+03  0.91915979626E+02 0.  0.
         23    2    4    4    0    0  0.44949003123E+02  0.46273759271E+03 -0.97027186778E+01  0.47388564723E+03  0.91252240028E+02 0.  0.
          2    1    3    3  502    0  0.18416406930E+02 -0.52933336453E+02  0.20203019714E+02  0.59575701069E+02  0.00000000000E+00 0. -1.
         -1    1    3    3    0  502  0.23541556913E+03 -0.27802024520E+03  0.29077810081E+03  0.46611978164E+03  0.00000000000E+00 0.  1.
         11    1    5    5    0    0 -0.18447945672E+03 -0.11130345354E+03 -0.51057794360E+03  0.55417593344E+03  0.00000000000E+00 0.  1.
        -11    1    5    5    0    0 -0.11430152246E+03 -0.20480557523E+02 -0.16461907327E+03  0.20145404081E+03  0.00000000000E+00 0. -1.
          1    1    6    6  503    0  0.69995563443E+02  0.37480265621E+03 -0.20409851008E+02  0.38182845890E+03  0.00000000000E+00 0. -1.
         -1    1    6    6    0  503 -0.25046560320E+02  0.87934936497E+02  0.10707132330E+02  0.92057188330E+02  0.00000000000E+00 0.  1.
<mgrwt>
<rscale>  0 0.17149201E+04</rscale>
<asrwt>0</asrwt>
<pdfrwt beam="1">  1        2 0.16377921E+00 0.17149201E+04</pdfrwt>
<pdfrwt beam="2">  1       -1 0.10625327E+00 0.17149201E+04</pdfrwt>
<totfact> 0.20580583E+01</totfact>
</mgrwt>
</event>
<event>
12    6  0.1586493E-007  0.1999892E+04  0.7818608E-02  0.8606671E-01
          2   -1    0    0  501    0  0.00000000000E+00  0.00000000000E+00  0.15683325862E+04  0.15683325862E+04  0.00000000000E+00 0. -1.
         -1   -1    0    0    0  501 -0.00000000000E+00 -0.00000000000E+00 -0.63755080554E+03  0.63755080554E+03  0.00000000000E+00 0.  1.
         24    2    1    2    0    0 -0.43668567017E+03 -0.66851544516E+03  0.29833102888E+03  0.85618315678E+03  0.80255343875E+02 0.  0.
        254    2    1    2    0    0  0.43668567017E+03  0.66851544516E+03  0.63245075183E+03  0.13497002350E+04  0.88548828109E+03 0.  0.
         23    2    4    4    0    0 -0.47751298630E+02  0.16197363685E+03  0.61264406134E+03  0.64259494908E+03  0.95288389298E+02 0.  0.
         23    2    4    4    0    0  0.48443696880E+03  0.50654180831E+03  0.19806690490E+02  0.70710528593E+03  0.91333455546E+02 0.  0.
          4    1    3    3  502    0 -0.37143406598E+03 -0.51386107113E+03  0.22203152595E+03  0.67179942268E+03  0.00000000000E+00 0. -1.
         -3    1    3    3    0  502 -0.65251604181E+02 -0.15465437402E+03  0.76299502925E+02  0.18438373410E+03  0.00000000000E+00 0.  1.
         11    1    5    5    0    0 -0.35036858279E+02  0.12482175079E+03  0.29113448867E+03  0.31869631532E+03  0.00000000000E+00 0.  1.
        -11    1    5    5    0    0 -0.12714440351E+02  0.37151886061E+02  0.32150957267E+03  0.32389863376E+03  0.00000000000E+00 0. -1.
          4    1    6    6  503    0  0.16109810412E+01  0.34046596870E+01 -0.84001008142E+01  0.92059036052E+01  0.00000000000E+00 0. -1.
         -4    1    6    6    0  503  0.48282598775E+03  0.50313714862E+03  0.28206791304E+02  0.69789938232E+03  0.00000000000E+00 0.  1.
<mgrwt>
<rscale>  0 0.19998917E+04</rscale>
<asrwt>0</asrwt>
<pdfrwt beam="1">  1        2 0.24128193E+00 0.19998917E+04</pdfrwt>
<pdfrwt beam="2">  1       -1 0.98084740E-01 0.19998917E+04</pdfrwt>
<totfact> 0.12248072E+01</totfact>
</mgrwt>
</event>
<event>
12    6  0.1586493E-007  0.3061689E+04  0.7818608E-02  0.8226331E-01
          2   -1    0    0  501    0  0.00000000000E+00  0.00000000000E+00  0.15921376091E+04  0.15921376091E+04  0.00000000000E+00 0. -1.
         -1   -1    0    0    0  501 -0.00000000000E+00 -0.00000000000E+00 -0.14719107294E+04  0.14719107294E+04  0.00000000000E+00 0.  1.
         24    2    1    2    0    0 -0.60676376124E+03  0.11458482239E+04  0.58486792277E+03  0.14246544692E+04  0.80246218039E+02 0.  0.
        254    2    1    2    0    0  0.60676376124E+03 -0.11458482239E+04 -0.46464104304E+03  0.16393938693E+04  0.88915158756E+03 0.  0.
         23    2    4    4    0    0  0.79349715717E+03 -0.79944345311E+03 -0.49490823853E+03  0.12337781858E+04  0.92341074037E+02 0.  0.
         23    2    4    4    0    0 -0.18673339593E+03 -0.34640477075E+03  0.30267195491E+02  0.40561568351E+03  0.93500552035E+02 0.  0.
          4    1    3    3  502    0 -0.51727031986E+03  0.93763788396E+03  0.50894014751E+03  0.11856447440E+04  0.00000000000E+00 0. -1.
         -3    1    3    3    0  502 -0.89493441384E+02  0.20821033990E+03  0.75927775267E+02  0.23900972522E+03  0.00000000000E+00 0.  1.
         11    1    5    5    0    0  0.77677357146E+03 -0.79593829096E+03 -0.48087211608E+03  0.12116653566E+04  0.00000000000E+00 0. -1.
        -11    1    5    5    0    0  0.16723585712E+02 -0.35051621440E+01 -0.14036122451E+02  0.22112829177E+02  0.00000000000E+00 0.  1.
          1    1    6    6  503    0 -0.15308024692E+03 -0.18770381901E+03  0.15202373796E+02  0.24268786091E+03  0.00000000000E+00 0. -1.
         -1    1    6    6    0  503 -0.33653149014E+02 -0.15870095174E+03  0.15064821695E+02  0.16292782260E+03  0.00000000000E+00 0.  1.
<mgrwt>
<rscale>  0 0.30616887E+04</rscale>
<asrwt>0</asrwt>
<pdfrwt beam="1">  1        2 0.24494425E+00 0.30616887E+04</pdfrwt>
<pdfrwt beam="2">  1       -1 0.22644780E+00 0.30616887E+04</pdfrwt>
<totfact> 0.10886298E+00</totfact>
</mgrwt>
</event>
<event>
12    6  0.1586493E-007  0.1042148E+04  0.7818608E-02  0.9263488E-01
          2   -1    0    0  501    0  0.00000000000E+00  0.00000000000E+00  0.22145113216E+04  0.22145113216E+04  0.00000000000E+00 0. -1.
         -1   -1    0    0    0  501 -0.00000000000E+00 -0.00000000000E+00 -0.12260866058E+03  0.12260866058E+03  0.00000000000E+00 0.  1.
         24    2    1    2    0    0  0.21114233636E+02 -0.17998933184E+02  0.20478142961E+02  0.86819723111E+02  0.79677710334E+02 0.  0.
        254    2    1    2    0    0 -0.21114233636E+02  0.17998933184E+02  0.20714245181E+04  0.22503002591E+04  0.87879573819E+03 0.  0.
         23    2    4    4    0    0  0.46492379261E+02  0.29886517291E+03  0.24884895561E+03  0.40273119190E+03  0.93726609421E+02 0.  0.
         23    2    4    4    0    0 -0.67606612897E+02 -0.28086623972E+03  0.18225755624E+04  0.18475690672E+04  0.90957563666E+02 0.  0.
          4    1    3    3  502    0  0.43775743451E+02  0.27006152667E+01  0.31726547443E+02  0.54131163392E+02  0.00000000000E+00 0. -1.
         -3    1    3    3    0  502 -0.22661509815E+02 -0.20699548450E+02 -0.11248404482E+02  0.32688559719E+02  0.00000000000E+00 0.  1.
         11    1    5    5    0    0 -0.18771675731E+02  0.17858601009E+03  0.13352390643E+03  0.22377214393E+03  0.00000000000E+00 0. -1.
        -11    1    5    5    0    0  0.65264054992E+02  0.12027916281E+03  0.11532504919E+03  0.17895904797E+03  0.00000000000E+00 0.  1.
          2    1    6    6  503    0  0.23429745615E+01 -0.95740373359E+02  0.40060202957E+03  0.41189039163E+03  0.00000000000E+00 0. -1.
         -2    1    6    6    0  503 -0.69949587459E+02 -0.18512586636E+03  0.14219735329E+04  0.14356786755E+04  0.00000000000E+00 0.  1.
<mgrwt>
<rscale>  0 0.10421483E+04</rscale>
<asrwt>0</asrwt>
<pdfrwt beam="1">  1        2 0.34069402E+00 0.10421483E+04</pdfrwt>
<pdfrwt beam="2">  1       -1 0.18862872E-01 0.10421483E+04</pdfrwt>
<totfact> 0.13046345E+02</totfact>
</mgrwt>
</event>
<event>
12    6  0.1586493E-007  0.1908309E+04  0.7818608E-02  0.8650731E-01
          2   -1    0    0  501    0  0.00000000000E+00  0.00000000000E+00  0.16252956842E+04  0.16252956842E+04  0.00000000000E+00 0. -1.
         -1   -1    0    0    0  501 -0.00000000000E+00 -0.00000000000E+00 -0.56015109878E+03  0.56015109878E+03  0.00000000000E+00 0.  1.
         24    2    1    2    0    0 -0.24717693318E+03  0.12859008003E+03  0.11995678676E+04  0.12340378435E+04  0.79085303531E+02 0.  0.
        254    2    1    2    0    0  0.24717693318E+03 -0.12859008003E+03 -0.13442328213E+03  0.95140893952E+03  0.89970967898E+03 0.  0.
         23    2    4    4    0    0  0.17148597734E+03 -0.30441920756E+03 -0.44733266383E+03  0.57494024264E+03  0.91494678105E+02 0.  0.
         23    2    4    4    0    0  0.75690955842E+02  0.17582912752E+03  0.31290938170E+03  0.37646869688E+03  0.84684093524E+02 0.  0.
          4    1    3    3  502    0 -0.24274874526E+03  0.11384292222E+03  0.10504636201E+04  0.10841406650E+04  0.00000000000E+00 0. -1.
         -3    1    3    3    0  502 -0.44281879134E+01  0.14747157812E+02  0.14910424749E+03  0.14989717853E+03  0.00000000000E+00 0.  1.
         11    1    5    5    0    0  0.18106611774E+03 -0.29672627159E+03 -0.43957940696E+03  0.56041187913E+03  0.00000000000E+00 0. -1.
        -11    1    5    5    0    0 -0.95801404095E+01 -0.76929359739E+01 -0.77532568667E+01  0.14528363507E+02  0.00000000000E+00 0.  1.
          1    1    6    6  503    0  0.38852350426E+01  0.92656308019E+02  0.19115430706E+03  0.21246236272E+03  0.00000000000E+00 0. -1.
         -1    1    6    6    0  503  0.71805720799E+02  0.83172819506E+02  0.12175507464E+03  0.16400633416E+03  0.00000000000E+00 0.  1.
<mgrwt>
<rscale>  0 0.19083094E+04</rscale>
<asrwt>0</asrwt>
<pdfrwt beam="1">  1        2 0.25004549E+00 0.19083094E+04</pdfrwt>
<pdfrwt beam="2">  1       -1 0.86177093E-01 0.19083094E+04</pdfrwt>
<totfact> 0.15291560E+01</totfact>
</mgrwt>
</event>
<event>
12    6  0.1586493E-007  0.2149851E+04  0.7818608E-02  0.8539596E-01
          2   -1    0    0  501    0  0.00000000000E+00  0.00000000000E+00  0.14562610743E+04  0.14562610743E+04  0.00000000000E+00 0. -1.
         -1   -1    0    0    0  501 -0.00000000000E+00 -0.00000000000E+00 -0.79344610119E+03  0.79344610119E+03  0.00000000000E+00 0.  1.
         24    2    1    2    0    0 -0.11932078350E+03  0.45193934296E+03 -0.51448390436E+03  0.69992200293E+03  0.81917661358E+02 0.  0.
        254    2    1    2    0    0  0.11932078350E+03 -0.45193934296E+03  0.11772988775E+04  0.15497851725E+04  0.89292486531E+03 0.  0.
         23    2    4    4    0    0 -0.17315177458E+03 -0.60056556658E+03  0.94907441580E+03  0.11398211212E+04  0.88257605356E+02 0.  0.
         23    2    4    4    0    0  0.29247255808E+03  0.14862622362E+03  0.22822446166E+03  0.40996405131E+03  0.91401131750E+02 0.  0.
          4    1    3    3  502    0 -0.25982178377E+02  0.33319772543E+02 -0.73387709386E+02  0.84681974023E+02  0.00000000000E+00 0. -1.
         -3    1    3    3    0  502 -0.93338605127E+02  0.41861957042E+03 -0.44109619498E+03  0.61524002890E+03  0.00000000000E+00 0.  1.
         11    1    5    5    0    0 -0.13507743122E+03 -0.52596540977E+03  0.77108621188E+03  0.94311158982E+03  0.00000000000E+00 0. -1.
        -11    1    5    5    0    0 -0.38074343356E+02 -0.74600156810E+02  0.17798820392E+03  0.19670953142E+03  0.00000000000E+00 0.  1.
          2    1    6    6  503    0  0.14663946893E+03  0.67029391208E+02  0.16662900596E+03  0.23186482864E+03  0.00000000000E+00 0.  1.
         -2    1    6    6    0  503  0.14583308915E+03  0.81596832412E+02  0.61595455703E+02  0.17809922267E+03  0.00000000000E+00 0. -1.
<mgrwt>
<rscale>  0 0.21498509E+04</rscale>
<asrwt>0</asrwt>
<pdfrwt beam="1">  1        2 0.22404016E+00 0.21498509E+04</pdfrwt>
<pdfrwt beam="2">  1       -1 0.12206863E+00 0.21498509E+04</pdfrwt>
<totfact> 0.83423608E+00</totfact>
</mgrwt>
</event>
<event>
12    6  0.1586493E-007  0.1821088E+04  0.7818608E-02  0.8695165E-01
         -1   -1    0    0    0  501 -0.00000000000E+00  0.00000000000E+00  0.30363341348E+03  0.30363341348E+03  0.00000000000E+00 0.  1.
          2   -1    0    0  501    0  0.00000000000E+00 -0.00000000000E+00 -0.27305638195E+04  0.27305638195E+04  0.00000000000E+00 0. -1.
         24    2    1    2    0    0 -0.68592634073E+03  0.82475747598E+02 -0.10716675895E+04  0.12775200505E+04  0.79302352623E+02 0.  0.
        254    2    1    2    0    0  0.68592634073E+03 -0.82475747598E+02 -0.13552628164E+04  0.17566771824E+04  0.87856714474E+03 0.  0.
         23    2    4    4    0    0 -0.19109838215E+03  0.57899238693E+02 -0.33305509475E+03  0.39997724774E+03  0.95839392070E+02 0.  0.
         23    2    4    4    0    0  0.87702472288E+03 -0.14037498629E+03 -0.10222077217E+04  0.13566999347E+04  0.82756179202E+02 0.  0.
          4    1    3    3  502    0 -0.64638207767E+03  0.72037937864E+02 -0.10361149880E+04  0.12233288696E+04  0.00000000000E+00 0. -1.
         -3    1    3    3    0  502 -0.39544263060E+02  0.10437809734E+02 -0.35552601560E+02  0.54191180931E+02  0.00000000000E+00 0.  1.
         11    1    5    5    0    0 -0.32364300369E+02 -0.11353529510E+02 -0.12322428619E+03  0.12790846445E+03  0.00000000000E+00 0.  1.
        -11    1    5    5    0    0 -0.15873408178E+03  0.69252768202E+02 -0.20983080856E+03  0.27206878329E+03  0.00000000000E+00 0. -1.
          2    1    6    6  503    0  0.55901154300E+03 -0.12878298561E+03 -0.64526091207E+03  0.86338902427E+03  0.00000000000E+00 0. -1.
         -2    1    6    6    0  503  0.31801317989E+03 -0.11592000681E+02 -0.37694680963E+03  0.49331091043E+03  0.00000000000E+00 0.  1.
<mgrwt>
<rscale>  0 0.18210880E+04</rscale>
<asrwt>0</asrwt>
<pdfrwt beam="1">  1        2 0.42008676E+00 0.18210880E+04</pdfrwt>
<pdfrwt beam="2">  1       -1 0.46712831E-01 0.18210880E+04</pdfrwt>
<totfact> 0.12500427E+01</totfact>
</mgrwt>
</event>
<event>
12    6  0.1586493E-007  0.1596617E+04  0.7818608E-02  0.8822629E-01
          2   -1    0    0  501    0  0.00000000000E+00  0.00000000000E+00  0.26113405156E+04  0.26113405156E+04  0.00000000000E+00 0. -1.
         -1   -1    0    0    0  501 -0.00000000000E+00 -0.00000000000E+00 -0.24404949510E+03  0.24404949510E+03  0.00000000000E+00 0.  1.
         24    2    1    2    0    0 -0.38647578303E+03  0.34530302453E+03  0.53449773503E+03  0.74875414171E+03  0.79669482048E+02 0.  0.
        254    2    1    2    0    0  0.38647578303E+03 -0.34530302453E+03  0.18327932854E+04  0.21066358690E+04  0.90010318721E+03 0.  0.
         23    2    4    4    0    0  0.31732234803E+02  0.12323487005E+03 -0.20689851622E+02  0.16013140626E+03  0.94974888204E+02 0.  0.
         23    2    4    4    0    0  0.35474354822E+03 -0.46853789458E+03  0.18534831371E+04  0.19465044627E+04  0.90050765028E+02 0.  0.
          2    1    3    3  502    0 -0.71244308303E+02  0.90873774338E+02  0.15810827941E+03  0.19578565409E+03  0.00000000000E+00 0. -1.
         -1    1    3    3    0  502 -0.31523147472E+03  0.25442925019E+03  0.37638945561E+03  0.55296848763E+03  0.00000000000E+00 0.  1.
         11    1    5    5    0    0 -0.70094110935E+01 -0.23258753294E+01  0.21011221761E+02  0.22271348855E+02  0.00000000000E+00 0. -1.
        -11    1    5    5    0    0  0.38741645897E+02  0.12556074538E+03 -0.41701073382E+02  0.13786005741E+03  0.00000000000E+00 0.  1.
          2    1    6    6  503    0  0.13011842252E+03 -0.11184601441E+03  0.59933580848E+03  0.62341298202E+03  0.00000000000E+00 0. -1.
         -2    1    6    6    0  503  0.22462512570E+03 -0.35669188017E+03  0.12541473286E+04  0.13230914807E+04  0.00000000000E+00 0.  1.
<mgrwt>
<rscale>  0 0.15966168E+04</rscale>
<asrwt>0</asrwt>
<pdfrwt beam="1">  1        2 0.40174467E+00 0.15966168E+04</pdfrwt>
<pdfrwt beam="2">  1       -1 0.37546078E-01 0.15966168E+04</pdfrwt>
<totfact> 0.22441756E+01</totfact>
</mgrwt>
</event>
<event>
12    6  0.1586493E-007  0.1899972E+04  0.7818608E-02  0.8654871E-01
          2   -1    0    0  501    0  0.00000000000E+00  0.00000000000E+00  0.20778700580E+04  0.20778700580E+04  0.00000000000E+00 0. -1.
         -1   -1    0    0    0  501 -0.00000000000E+00 -0.00000000000E+00 -0.43432597018E+03  0.43432597018E+03  0.00000000000E+00 0.  1.
         24    2    1    2    0    0 -0.62250250630E+03  0.39106428391E+03  0.65294158233E+03  0.98642516858E+03  0.79128116219E+02 0.  0.
        254    2    1    2    0    0  0.62250250630E+03 -0.39106428391E+03  0.99060250545E+03  0.15257708596E+04  0.89791021132E+03 0.  0.
         23    2    4    4    0    0  0.70875528709E+03 -0.21419401295E+02  0.40671679197E+03  0.82234805258E+03  0.89693494644E+02 0.  0.
         23    2    4    4    0    0 -0.86252780789E+02 -0.36964488261E+03  0.58388571348E+03  0.70342280699E+03  0.99016349885E+02 0.  0.
          2    1    3    3  502    0 -0.49952632337E+02  0.19498170740E+02  0.25808935561E+02  0.59510883832E+02  0.00000000000E+00 0. -1.
         -1    1    3    3    0  502 -0.57254987396E+03  0.37156611317E+03  0.62713264677E+03  0.92691428475E+03  0.00000000000E+00 0.  1.
         11    1    5    5    0    0  0.43119022077E+03  0.29873269919E+02  0.25644500591E+03  0.50257483005E+03  0.00000000000E+00 0. -1.
        -11    1    5    5    0    0  0.27756506632E+03 -0.51292671214E+02  0.15027178606E+03  0.31977322253E+03  0.00000000000E+00 0.  1.
          1    1    6    6  503    0 -0.82601882174E+02 -0.30666745082E+03  0.41116591900E+03  0.51954346235E+03  0.00000000000E+00 0. -1.
         -1    1    6    6    0  503 -0.36508986150E+01 -0.62977431799E+02  0.17271979448E+03  0.18387934463E+03  0.00000000000E+00 0.  1.
<mgrwt>
<rscale>  0 0.18999715E+04</rscale>
<asrwt>0</asrwt>
<pdfrwt beam="1">  1        2 0.31967231E+00 0.18999715E+04</pdfrwt>
<pdfrwt beam="2">  1       -1 0.66819381E-01 0.18999715E+04</pdfrwt>
<totfact> 0.14629626E+01</totfact>
</mgrwt>
</event>
<event>
12    6  0.1586493E-007  0.1903558E+04  0.7818608E-02  0.8653087E-01
          2   -1    0    0  501    0  0.00000000000E+00  0.00000000000E+00  0.13642454288E+04  0.13642454288E+04  0.00000000000E+00 0. -1.
         -1   -1    0    0    0  501 -0.00000000000E+00 -0.00000000000E+00 -0.66401796692E+03  0.66401796692E+03  0.00000000000E+00 0.  1.
         24    2    1    2    0    0  0.48054899856E+03 -0.38038153098E+03  0.83405961733E+03  0.10381305608E+04  0.80263110054E+02 0.  0.
        254    2    1    2    0    0 -0.48054899856E+03  0.38038153098E+03 -0.13383215543E+03  0.99013283496E+03  0.76605126194E+03 0.  0.
         23    2    4    4    0    0 -0.19428550299E+03 -0.93370803903E+02 -0.32182945265E+03  0.39793967778E+03  0.91196638462E+02 0.  0.
         23    2    4    4    0    0 -0.28626349557E+03  0.47375233489E+03  0.18799729723E+03  0.59219315718E+03  0.94666192187E+02 0.  0.
          4    1    3    3  502    0  0.32261331903E+03 -0.21466648875E+03  0.56071694523E+03  0.68158972093E+03  0.00000000000E+00 0. -1.
         -3    1    3    3    0  502  0.15793567953E+03 -0.16571504224E+03  0.27334267211E+03  0.35654083986E+03  0.00000000000E+00 0.  1.
         11    1    5    5    0    0  0.91289051959E+01 -0.96798234531E+01 -0.11643776814E+02  0.17680877542E+02  0.00000000000E+00 0. -1.
        -11    1    5    5    0    0 -0.20341440818E+03 -0.83690980450E+02 -0.31018567584E+03  0.38025880024E+03  0.00000000000E+00 0.  1.
          4    1    6    6  503    0 -0.18833998834E+03  0.32861984568E+03  0.82038361108E+02  0.38754773497E+03  0.00000000000E+00 0. -1.
         -4    1    6    6    0  503 -0.97923507231E+02  0.14513248920E+03  0.10595893612E+03  0.20464542221E+03  0.00000000000E+00 0.  1.
<mgrwt>
<rscale>  0 0.19035582E+04</rscale>
<asrwt>0</asrwt>
<pdfrwt beam="1">  1        2 0.20988391E+00 0.19035582E+04</pdfrwt>
<pdfrwt beam="2">  1       -1 0.10215661E+00 0.19035582E+04</pdfrwt>
<totfact> 0.14692411E+01</totfact>
</mgrwt>
</event>
<event>
12    6  0.1586493E-007  0.2758873E+04  0.7818608E-02  0.8316151E-01
         -1   -1    0    0    0  501 -0.00000000000E+00  0.00000000000E+00  0.60054738218E+03  0.60054738218E+03  0.00000000000E+00 0.  1.
          2   -1    0    0  501    0  0.00000000000E+00 -0.00000000000E+00 -0.31685186404E+04  0.31685186404E+04  0.00000000000E+00 0. -1.
         24    2    1    2    0    0 -0.18517735683E+03 -0.12183361627E+04 -0.11171556350E+04  0.16650180349E+04  0.74931201980E+02 0.  0.
        254    2    1    2    0    0  0.18517735683E+03  0.12183361627E+04 -0.14508156232E+04  0.21040479876E+04  0.89639182437E+03 0.  0.
         23    2    4    4    0    0  0.30796486295E+02  0.11241013789E+04 -0.70317748654E+03  0.13295911891E+04  0.93818009454E+02 0.  0.
         23    2    4    4    0    0  0.15438087053E+03  0.94234783793E+02 -0.74763813670E+03  0.77445679854E+03  0.90038334565E+02 0.  0.
          4    1    3    3  502    0 -0.17336076051E+02 -0.29837294732E+03 -0.24898063887E+03  0.38899654723E+03  0.00000000000E+00 0. -1.
         -1    1    3    3    0  502 -0.16784128078E+03 -0.91996321540E+03 -0.86817499612E+03  0.12760214877E+04  0.00000000000E+00 0.  1.
         11    1    5    5    0    0  0.20913068756E+01 -0.87582637873E+00  0.54215616906E+00  0.23312163360E+01  0.00000000000E+00 0. -1.
        -11    1    5    5    0    0  0.28705179420E+02  0.11249772053E+04 -0.70371964271E+03  0.13272599728E+04  0.00000000000E+00 0.  1.
          3    1    6    6  503    0  0.71923468654E+02  0.40428842488E+00 -0.19404827437E+03  0.20694898304E+03  0.00000000000E+00 0. -1.
         -3    1    6    6    0  503  0.82457401881E+02  0.93830495368E+02 -0.55358986233E+03  0.56750781551E+03  0.00000000000E+00 0.  1.
<mgrwt>
<rscale>  0 0.27588734E+04</rscale>
<asrwt>0</asrwt>
<pdfrwt beam="1">  1        2 0.48746441E+00 0.27588734E+04</pdfrwt>
<pdfrwt beam="2">  1       -1 0.92391905E-01 0.27588734E+04</pdfrwt>
<totfact> 0.15369207E+00</totfact>
</mgrwt>
</event>
<event>
12    6  0.1586493E-007  0.5062404E+04  0.7818608E-02  0.7818952E-01
          2   -1    0    0  501    0  0.00000000000E+00  0.00000000000E+00  0.33019908664E+04  0.33019908664E+04  0.00000000000E+00 0. -1.
         -1   -1    0    0    0  501 -0.00000000000E+00 -0.00000000000E+00 -0.19403392364E+04  0.19403392364E+04  0.00000000000E+00 0.  1.
         24    2    1    2    0    0  0.86029802928E+03 -0.20079366042E+04  0.18041652875E+04  0.28346495810E+04  0.91124952838E+02 0.  0.
        254    2    1    2    0    0 -0.86029802928E+03  0.20079366042E+04 -0.44251365745E+03  0.24076805217E+04  0.91059598737E+03 0.  0.
         23    2    4    4    0    0  0.21873539804E+02 -0.57830245232E+02 -0.63008129033E+02  0.12776124085E+03  0.92358655968E+02 0.  0.
         23    2    4    4    0    0 -0.88217156908E+03  0.20657668494E+04 -0.37950552842E+03  0.22799192809E+04  0.91586723434E+02 0.  0.
          4    1    3    3  502    0  0.59997578487E+03 -0.13844248326E+04  0.11915437578E+04  0.19225970941E+04  0.00000000000E+00 0. -1.
         -3    1    3    3    0  502  0.26032224441E+03 -0.62351177152E+03  0.61262152968E+03  0.91205248686E+03  0.00000000000E+00 0.  1.
         11    1    5    5    0    0  0.43884016864E+02 -0.40244404283E+02 -0.76156723586E+02  0.96670913721E+02  0.00000000000E+00 0. -1.
        -11    1    5    5    0    0 -0.22010477061E+02 -0.17585840949E+02  0.13148594553E+02  0.31090327130E+02  0.00000000000E+00 0.  1.
          4    1    6    6  503    0 -0.71131840992E+03  0.15805541509E+04 -0.27330859536E+03  0.17546574858E+04  0.00000000000E+00 0. -1.
         -4    1    6    6    0  503 -0.17085315916E+03  0.48521269847E+03 -0.10619693306E+03  0.52526179505E+03  0.00000000000E+00 0.  1.
<mgrwt>
<rscale>  0 0.50624036E+04</rscale>
<asrwt>0</asrwt>
<pdfrwt beam="1">  1        2 0.50799859E+00 0.50624036E+04</pdfrwt>
<pdfrwt beam="2">  1       -1 0.29851373E+00 0.50624036E+04</pdfrwt>
<totfact> 0.30823129E-02</totfact>
</mgrwt>
</event>
<event>
12    6  0.1586493E-007  0.1488237E+04  0.7818608E-02  0.8892313E-01
          2   -1    0    0  501    0  0.00000000000E+00  0.00000000000E+00  0.54171710437E+03  0.54171710437E+03  0.00000000000E+00 0. -1.
         -1   -1    0    0    0  501 -0.00000000000E+00 -0.00000000000E+00 -0.10221429093E+04  0.10221429093E+04  0.00000000000E+00 0.  1.
         24    2    1    2    0    0  0.41115668299E+03 -0.51375414777E+02 -0.38190705417E+03  0.56898136655E+03  0.78724495889E+02 0.  0.
        254    2    1    2    0    0 -0.41115668299E+03  0.51375414777E+02 -0.98518750801E+02  0.99487864716E+03  0.89910418034E+03 0.  0.
         23    2    4    4    0    0 -0.25350397008E+03  0.12723546836E+03 -0.47992709395E+03  0.56496553336E+03  0.91667393989E+02 0.  0.
         23    2    4    4    0    0 -0.15765271291E+03 -0.75860053586E+02  0.38140834315E+03  0.42991311381E+03  0.93508478659E+02 0.  0.
          2    1    3    3  502    0  0.18301238721E+02 -0.12394904532E+02 -0.39748557539E+01  0.22458149419E+02  0.00000000000E+00 0. -1.
         -1    1    3    3    0  502  0.39285544427E+03 -0.38980510245E+02 -0.37793219841E+03  0.54652321713E+03  0.00000000000E+00 0.  1.
         11    1    5    5    0    0 -0.25776612847E+03  0.12346300863E+03 -0.48067260831E+03  0.55922504224E+03  0.00000000000E+00 0. -1.
        -11    1    5    5    0    0  0.42621583960E+01  0.37724597278E+01  0.74551436173E+00  0.57404911161E+01  0.00000000000E+00 0.  1.
          4    1    6    6  503    0 -0.12081579899E+03 -0.48694139088E+02  0.35245086230E+03  0.37575149608E+03  0.00000000000E+00 0. -1.
         -4    1    6    6    0  503 -0.36836913926E+02 -0.27165914498E+02  0.28957480843E+02  0.54161617728E+02  0.00000000000E+00 0.  1.
<mgrwt>
<rscale>  0 0.14882369E+04</rscale>
<asrwt>0</asrwt>
<pdfrwt beam="1">  1        2 0.83341093E-01 0.14882369E+04</pdfrwt>
<pdfrwt beam="2">  1       -1 0.15725276E+00 0.14882369E+04</pdfrwt>
<totfact> 0.19000025E+01</totfact>
</mgrwt>
</event>
<event>
12    6  0.1586493E-007  0.1243378E+04  0.7818608E-02  0.9075713E-01
         -1   -1    0    0    0  501 -0.00000000000E+00  0.00000000000E+00  0.43645890865E+03  0.43645890865E+03  0.00000000000E+00 0.  1.
          2   -1    0    0  501    0  0.00000000000E+00 -0.00000000000E+00 -0.88552978094E+03  0.88552978094E+03  0.00000000000E+00 0. -1.
         24    2    1    2    0    0 -0.30824078947E+03  0.20200844606E+00 -0.64782502622E+02  0.32463581242E+03  0.78607970054E+02 0.  0.
        254    2    1    2    0    0  0.30824078947E+03 -0.20200844606E+00 -0.38428836966E+03  0.99735287718E+03  0.86719247313E+03 0.  0.
         23    2    4    4    0    0 -0.17845218594E+03  0.22589572807E+02 -0.45307805504E+03  0.49631047108E+03  0.93214206424E+02 0.  0.
         23    2    4    4    0    0  0.48669297541E+03 -0.22791581253E+02  0.68789685379E+02  0.50104240609E+03  0.94456145400E+02 0.  0.
          4    1    3    3  502    0 -0.90106876801E+02  0.21112638319E+02 -0.49540132570E+02  0.10497246057E+03  0.00000000000E+00 0. -1.
         -3    1    3    3    0  502 -0.21813391267E+03 -0.20910629873E+02 -0.15242370052E+02  0.21966335184E+03  0.00000000000E+00 0.  1.
         11    1    5    5    0    0  0.71621655089E+00 -0.35750273384E+01 -0.94861970944E+02  0.94932014189E+02  0.00000000000E+00 0. -1.
        -11    1    5    5    0    0 -0.17916840249E+03  0.26164600146E+02 -0.35821608410E+03  0.40137845689E+03  0.00000000000E+00 0.  1.
          4    1    6    6  503    0  0.17510665186E+03 -0.11166679245E+02  0.70865119780E+02  0.18923239535E+03  0.00000000000E+00 0. -1.
         -4    1    6    6    0  503  0.31158632355E+03 -0.11624902009E+02 -0.20754344010E+01  0.31181001074E+03  0.00000000000E+00 0.  1.
<mgrwt>
<rscale>  0 0.12433782E+04</rscale>
<asrwt>0</asrwt>
<pdfrwt beam="1">  1        2 0.13623535E+00 0.12433782E+04</pdfrwt>
<pdfrwt beam="2">  1       -1 0.67147525E-01 0.12433782E+04</pdfrwt>
<totfact> 0.75683073E+01</totfact>
</mgrwt>
</event>
<event>
12    6  0.1586493E-007  0.1181410E+04  0.7818608E-02  0.9129285E-01
          2   -1    0    0  501    0  0.00000000000E+00  0.00000000000E+00  0.92759122768E+03  0.92759122768E+03  0.00000000000E+00 0. -1.
         -1   -1    0    0    0  501 -0.00000000000E+00 -0.00000000000E+00 -0.37617063798E+03  0.37617063798E+03  0.00000000000E+00 0.  1.
         24    2    1    2    0    0 -0.90580610658E+01  0.31034953920E+03  0.60837998305E+02  0.32615217288E+03  0.79215483856E+02 0.  0.
        254    2    1    2    0    0  0.90580610658E+01 -0.31034953920E+03  0.49058259139E+03  0.97760969279E+03  0.78654341743E+03 0.  0.
         23    2    4    4    0    0  0.27717448155E+03 -0.37327336978E+03  0.49682378860E+03  0.68678159885E+03  0.93147119073E+02 0.  0.
         23    2    4    4    0    0 -0.26811642049E+03  0.62923830576E+02 -0.62411972133E+01  0.29082809393E+03  0.93253441167E+02 0.  0.
          2    1    3    3  502    0 -0.33591275133E+02  0.10479322296E+03  0.43783889129E+02  0.11843573064E+03  0.00000000000E+00 0. -1.
         -1    1    3    3    0  502  0.24533214067E+02  0.20555631623E+03  0.17054109176E+02  0.20771644224E+03  0.00000000000E+00 0.  1.
         11    1    5    5    0    0  0.23772497719E+03 -0.33451269994E+03  0.38824971707E+03  0.56493340670E+03  0.00000000000E+00 0.  1.
        -11    1    5    5    0    0  0.39449504359E+02 -0.38760669831E+02  0.10857407154E+03  0.12184819215E+03  0.00000000000E+00 0. -1.
          3    1    6    6  503    0 -0.85210531769E+02  0.41158469794E+01 -0.42498469271E+02  0.95309468633E+02  0.00000000000E+00 0. -1.
         -3    1    6    6    0  503 -0.18290588872E+03  0.58807983597E+02  0.36257272058E+02  0.19551862530E+03  0.00000000000E+00 0.  1.
<mgrwt>
<rscale>  0 0.11814103E+04</rscale>
<asrwt>0</asrwt>
<pdfrwt beam="1">  1        2 0.14270634E+00 0.11814103E+04</pdfrwt>
<pdfrwt beam="2">  1       -1 0.57872406E-01 0.11814103E+04</pdfrwt>
<totfact> 0.95784161E+01</totfact>
</mgrwt>
</event>
<event>
12    6  0.1586493E-007  0.1435714E+04  0.7818608E-02  0.8928365E-01
          2   -1    0    0  501    0  0.00000000000E+00  0.00000000000E+00  0.30507715788E+04  0.30507715788E+04  0.00000000000E+00 0. -1.
         -1   -1    0    0    0  501 -0.00000000000E+00 -0.00000000000E+00 -0.16891414339E+03  0.16891414339E+03  0.00000000000E+00 0.  1.
         24    2    1    2    0    0  0.10959753654E+03 -0.39491071613E+03  0.10295392372E+04  0.11116630401E+04  0.88755732875E+02 0.  0.
        254    2    1    2    0    0 -0.10959753654E+03  0.39491071613E+03  0.18523181983E+04  0.21080226821E+04  0.91908151271E+03 0.  0.
         23    2    4    4    0    0 -0.48534852083E+03  0.32319144201E+03  0.13171208404E+04  0.14434304278E+04  0.93103150496E+02 0.  0.
         23    2    4    4    0    0  0.37575098429E+03  0.71719274119E+02  0.53519735786E+03  0.66459225438E+03  0.94415021313E+02 0.  0.
          4    1    3    3  502    0  0.90382424971E+02 -0.32133272478E+03  0.91676939757E+03  0.97564841571E+03  0.00000000000E+00 0. -1.
         -1    1    3    3    0  502  0.19215111568E+02 -0.73577991354E+02  0.11276983960E+03  0.13601462439E+03  0.00000000000E+00 0.  1.
         11    1    5    5    0    0 -0.20871078904E+03  0.17212339409E+03  0.70039536488E+03  0.75082642695E+03  0.00000000000E+00 0. -1.
        -11    1    5    5    0    0 -0.27663773180E+03  0.15106804793E+03  0.61672547553E+03  0.69260400080E+03  0.00000000000E+00 0.  1.
          4    1    6    6  503    0  0.10486684680E+03 -0.54429734233E+01  0.92773043845E+02  0.14011966023E+03  0.00000000000E+00 0. -1.
         -4    1    6    6    0  503  0.27088413749E+03  0.77162247543E+02  0.44242431401E+03  0.52447259415E+03  0.00000000000E+00 0.  1.
<mgrwt>
<rscale>  0 0.14357137E+04</rscale>
<asrwt>0</asrwt>
<pdfrwt beam="1">  1        2 0.46934943E+00 0.14357137E+04</pdfrwt>
<pdfrwt beam="2">  1       -1 0.25986794E-01 0.14357137E+04</pdfrwt>
<totfact> 0.23646475E+01</totfact>
</mgrwt>
</event>
<event>
12    6  0.1586493E-007  0.1830787E+04  0.7818608E-02  0.8690097E-01
         -1   -1    0    0    0  501 -0.00000000000E+00  0.00000000000E+00  0.74754747476E+03  0.74754747476E+03  0.00000000000E+00 0.  1.
          2   -1    0    0  501    0  0.00000000000E+00 -0.00000000000E+00 -0.11209253759E+04  0.11209253759E+04  0.00000000000E+00 0. -1.
         24    2    1    2    0    0  0.21471350789E+03  0.14815260459E+02 -0.81603291071E+03  0.84769001854E+03  0.79669779420E+02 0.  0.
        254    2    1    2    0    0 -0.21471350789E+03 -0.14815260459E+02  0.44265500954E+03  0.10207828322E+04  0.89427778153E+03 0.  0.
         23    2    4    4    0    0 -0.49837115834E+03  0.76314634068E+02  0.43118852447E+02  0.51403284388E+03  0.90403508263E+02 0.  0.
         23    2    4    4    0    0  0.28365765045E+03 -0.91129894528E+02  0.39953615709E+03  0.50674998827E+03  0.91652001922E+02 0.  0.
          2    1    3    3  502    0  0.20171858002E+03 -0.71361906336E+01 -0.68161386428E+03  0.71087183846E+03  0.00000000000E+00 0. -1.
         -1    1    3    3    0  502  0.12994927871E+02  0.21951451093E+02 -0.13441904644E+03  0.13681818008E+03  0.00000000000E+00 0.  1.
         11    1    5    5    0    0 -0.31582188715E+03  0.75581320363E+02  0.61663539175E+02  0.33054257283E+03  0.00000000000E+00 0.  1.
        -11    1    5    5    0    0 -0.18254927119E+03  0.73331370525E+00 -0.18544686728E+02  0.18349027104E+03  0.00000000000E+00 0. -1.
          2    1    6    6  503    0  0.28912711962E+03 -0.90305114248E+02  0.39933310251E+03  0.50121495560E+03  0.00000000000E+00 0.  1.
         -2    1    6    6    0  503 -0.54694691706E+01 -0.82478027935E+00  0.20305458314E+00  0.55350326721E+01  0.00000000000E+00 0. -1.
<mgrwt>
<rscale>  0 0.18307866E+04</rscale>
<asrwt>0</asrwt>
<pdfrwt beam="1">  1        2 0.17245006E+00 0.18307866E+04</pdfrwt>
<pdfrwt beam="2">  1       -1 0.11500730E+00 0.18307866E+04</pdfrwt>
<totfact> 0.15591363E+01</totfact>
</mgrwt>
</event>
<event>
12    6  0.1586493E-007  0.1532320E+04  0.7818608E-02  0.8863240E-01
          2   -1    0    0  501    0  0.00000000000E+00  0.00000000000E+00  0.74704878404E+03  0.74704878404E+03  0.00000000000E+00 0. -1.
         -1   -1    0    0    0  501 -0.00000000000E+00 -0.00000000000E+00 -0.78576018231E+03  0.78576018231E+03  0.00000000000E+00 0.  1.
         24    2    1    2    0    0 -0.42589687242E+03  0.15502924529E+03  0.19366676682E+03  0.49910503793E+03  0.78592680817E+02 0.  0.
        254    2    1    2    0    0  0.42589687242E+03 -0.15502924529E+03 -0.23237816509E+03  0.10337039284E+04  0.89951208285E+03 0.  0.
         23    2    4    4    0    0  0.14299453989E+03 -0.34348932435E+03 -0.47213043684E+03  0.60806558146E+03  0.91674683412E+02 0.  0.
         23    2    4    4    0    0  0.28290233253E+03  0.18846007906E+03  0.23975227175E+03  0.42563834696E+03  0.90199331741E+02 0.  0.
          2    1    3    3  502    0 -0.25613739880E+03  0.55982148259E+02  0.12897981850E+03  0.29219199436E+03  0.00000000000E+00 0. -1.
         -1    1    3    3    0  502 -0.16975947362E+03  0.99047097034E+02  0.64686948326E+02  0.20691304357E+03  0.00000000000E+00 0.  1.
         11    1    5    5    0    0  0.37376756275E+02 -0.78179500907E+02 -0.17879730509E+03  0.19868953817E+03  0.00000000000E+00 0.  1.
        -11    1    5    5    0    0  0.10561778362E+03 -0.26530982344E+03 -0.29333313175E+03  0.40937604328E+03  0.00000000000E+00 0. -1.
          2    1    6    6  503    0  0.13241062638E+03  0.12552463209E+03  0.86889893655E+02  0.20208627083E+03  0.00000000000E+00 0. -1.
         -2    1    6    6    0  503  0.15049170615E+03  0.62935446967E+02  0.15286237810E+03  0.22355207613E+03  0.00000000000E+00 0.  1.
<mgrwt>
<rscale>  0 0.15323201E+04</rscale>
<asrwt>0</asrwt>
<pdfrwt beam="1">  1        2 0.11493058E+00 0.15323201E+04</pdfrwt>
<pdfrwt beam="2">  1       -1 0.12088618E+00 0.15323201E+04</pdfrwt>
<totfact> 0.25230163E+01</totfact>
</mgrwt>
</event>
<event>
12    6  0.1586493E-007  0.2240569E+04  0.7818608E-02  0.8501730E-01
          2   -1    0    0  501    0  0.00000000000E+00  0.00000000000E+00  0.62826690129E+03  0.62826690129E+03  0.00000000000E+00 0. -1.
         -1   -1    0    0    0  501 -0.00000000000E+00 -0.00000000000E+00 -0.19976181945E+04  0.19976181945E+04  0.00000000000E+00 0.  1.
         24    2    1    2    0    0 -0.19226073401E+03  0.27642330715E+03 -0.16000332707E+04  0.16371403874E+04  0.82147101525E+02 0.  0.
        254    2    1    2    0    0  0.19226073401E+03 -0.27642330715E+03  0.23068197745E+03  0.98874470837E+03  0.90057086841E+03 0.  0.
         23    2    4    4    0    0  0.47237724529E+03  0.18467444265E+02  0.29869375675E+03  0.56631062285E+03  0.89489959591E+02 0.  0.
         23    2    4    4    0    0 -0.28011651128E+03 -0.29489075141E+03 -0.68011779294E+02  0.42243408552E+03  0.91646818413E+02 0.  0.
          4    1    3    3  502    0 -0.45397820853E+02  0.43932419730E+02 -0.46490519672E+03  0.46917785709E+03  0.00000000000E+00 0. -1.
         -3    1    3    3    0  502 -0.14686291315E+03  0.23249088742E+03 -0.11351280739E+04  0.11679625303E+04  0.00000000000E+00 0.  1.
         11    1    5    5    0    0  0.12134842599E+03  0.34994549079E+02  0.10975995977E+03  0.16732396040E+03  0.00000000000E+00 0.  1.
        -11    1    5    5    0    0  0.35102881930E+03 -0.16527104814E+02  0.18893379698E+03  0.39898666245E+03  0.00000000000E+00 0. -1.
          2    1    6    6  503    0 -0.14265138836E+03 -0.94468243829E+02 -0.41359292000E+01  0.17114547497E+03  0.00000000000E+00 0. -1.
         -2    1    6    6    0  503 -0.13746512292E+03 -0.20042250758E+03 -0.63875850094E+02  0.25128861055E+03  0.00000000000E+00 0.  1.
<mgrwt>
<rscale>  0 0.22405690E+04</rscale>
<asrwt>0</asrwt>
<pdfrwt beam="1">  1        2 0.96656447E-01 0.22405690E+04</pdfrwt>
<pdfrwt beam="2">  1       -1 0.30732588E+00 0.22405690E+04</pdfrwt>
<totfact> 0.14436690E+00</totfact>
</mgrwt>
</event>
<event>
12    6  0.1586493E-007  0.2009075E+04  0.7818608E-02  0.8602389E-01
         -1   -1    0    0    0  501 -0.00000000000E+00  0.00000000000E+00  0.50145085042E+03  0.50145085042E+03  0.00000000000E+00 0.  1.
          2   -1    0    0  501    0  0.00000000000E+00 -0.00000000000E+00 -0.20123521431E+04  0.20123521431E+04  0.00000000000E+00 0. -1.
         24    2    1    2    0    0  0.10688759617E+03  0.47753770884E+03 -0.13996413409E+04  0.14848518447E+04  0.79510352475E+02 0.  0.
        254    2    1    2    0    0 -0.10688759617E+03 -0.47753770884E+03 -0.11125995185E+03  0.10289511488E+04  0.89827304768E+03 0.  0.
         23    2    4    4    0    0 -0.56267248948E+02 -0.45196510716E+03 -0.46598292903E+03  0.65786276105E+03  0.90580686896E+02 0.  0.
         23    2    4    4    0    0 -0.50620347221E+02 -0.25572601687E+02  0.35472297718E+03  0.37108838777E+03  0.93068917944E+02 0.  0.
          2    1    3    3  502    0  0.18128530082E+02  0.60033107996E+02 -0.11268776759E+03  0.12896181847E+03  0.00000000000E+00 0. -1.
         -1    1    3    3    0  502  0.88759066088E+02  0.41750460085E+03 -0.12869535733E+04  0.13558900263E+04  0.00000000000E+00 0.  1.
         11    1    5    5    0    0 -0.74265209031E+02 -0.24035355492E+03 -0.26678923584E+03  0.36669012666E+03  0.00000000000E+00 0.  1.
        -11    1    5    5    0    0  0.17997960083E+02 -0.21161155224E+03 -0.19919369319E+03  0.29117263439E+03  0.00000000000E+00 0. -1.
          2    1    6    6  503    0 -0.72974918343E+02  0.17457812297E+01  0.25790990796E+03  0.26804086831E+03  0.00000000000E+00 0. -1.
         -2    1    6    6    0  503  0.22354571121E+02 -0.27318382917E+02  0.96813069221E+02  0.10304751946E+03  0.00000000000E+00 0.  1.
<mgrwt>
<rscale>  0 0.20090751E+04</rscale>
<asrwt>0</asrwt>
<pdfrwt beam="1">  1        2 0.30959264E+00 0.20090751E+04</pdfrwt>
<pdfrwt beam="2">  1       -1 0.77146284E-01 0.20090751E+04</pdfrwt>
<totfact> 0.11711225E+01</totfact>
</mgrwt>
</event>
<event>
12    6  0.1586493E-007  0.1465694E+04  0.7818608E-02  0.8907592E-01
         -1   -1    0    0    0  501 -0.00000000000E+00  0.00000000000E+00  0.31031773176E+03  0.31031773176E+03  0.00000000000E+00 0.  1.
          2   -1    0    0  501    0  0.00000000000E+00 -0.00000000000E+00 -0.17306920061E+04  0.17306920061E+04  0.00000000000E+00 0. -1.
         24    2    1    2    0    0 -0.40888424273E+03  0.24653659543E+03 -0.78578649462E+03  0.92350043271E+03  0.86174342276E+02 0.  0.
        254    2    1    2    0    0  0.40888424273E+03 -0.24653659543E+03 -0.63458777975E+03  0.11175093052E+04  0.78623074228E+03 0.  0.
         23    2    4    4    0    0  0.56272013880E+03 -0.82448647543E+02 -0.65633862080E+03  0.87319525343E+03  0.90762499734E+02 0.  0.
         23    2    4    4    0    0 -0.15383589608E+03 -0.16408794788E+03  0.21750841047E+02  0.24431405175E+03  0.92875826957E+02 0.  0.
          4    1    3    3  502    0 -0.12240702119E+03  0.49049710180E+02 -0.28108094415E+03  0.31047681084E+03  0.00000000000E+00 0. -1.
         -3    1    3    3    0  502 -0.28647722154E+03  0.19748688525E+03 -0.50470555047E+03  0.61302362187E+03  0.00000000000E+00 0.  1.
         11    1    5    5    0    0  0.15328045204E+03 -0.55238695067E+02 -0.15004731124E+03  0.22149583748E+03  0.00000000000E+00 0. -1.
        -11    1    5    5    0    0  0.40943968676E+03 -0.27209952476E+02 -0.50629130956E+03  0.65169941595E+03  0.00000000000E+00 0.  1.
          1    1    6    6  503    0 -0.95010950179E+01  0.10059166099E+02 -0.83092946616E+01  0.16140074564E+02  0.00000000000E+00 0. -1.
         -1    1    6    6    0  503 -0.14433480106E+03 -0.17414711398E+03  0.30060135709E+02  0.22817397718E+03  0.00000000000E+00 0.  1.
<mgrwt>
<rscale>  0 0.14656936E+04</rscale>
<asrwt>0</asrwt>
<pdfrwt beam="1">  1        2 0.26626031E+00 0.14656936E+04</pdfrwt>
<pdfrwt beam="2">  1       -1 0.47741190E-01 0.14656936E+04</pdfrwt>
<totfact> 0.45594437E+01</totfact>
</mgrwt>
</event>
<event>
12    6  0.1586493E-007  0.1179553E+04  0.7818608E-02  0.9130944E-01
         -1   -1    0    0    0  501 -0.00000000000E+00  0.00000000000E+00  0.12038584732E+04  0.12038584732E+04  0.00000000000E+00 0.  1.
          2   -1    0    0  501    0  0.00000000000E+00 -0.00000000000E+00 -0.28893471041E+03  0.28893471041E+03  0.00000000000E+00 0. -1.
         24    2    1    2    0    0  0.91138062100E+02 -0.17725796420E+03  0.35583769695E+03  0.41511599733E+03  0.77293547145E+02 0.  0.
        254    2    1    2    0    0 -0.91138062100E+02  0.17725796420E+03  0.55908606583E+03  0.10776771863E+04  0.89949116537E+03 0.  0.
         23    2    4    4    0    0 -0.31819794813E+03  0.43689762776E+03  0.23758960618E+03  0.59756685588E+03  0.92238034199E+02 0.  0.
         23    2    4    4    0    0  0.22705988603E+03 -0.25963966355E+03  0.32149645965E+03  0.48011033039E+03  0.90426815952E+02 0.  0.
          2    1    3    3  502    0  0.17432281745E+02  0.32477002865E+01  0.19543099856E+02  0.26388724031E+02  0.00000000000E+00 0. -1.
         -1    1    3    3    0  502  0.73705780355E+02 -0.18050566449E+03  0.33629459710E+03  0.38872727330E+03  0.00000000000E+00 0.  1.
         11    1    5    5    0    0 -0.17561178725E+03  0.19283603349E+03  0.15363192398E+03  0.30270117889E+03  0.00000000000E+00 0.  1.
        -11    1    5    5    0    0 -0.14258616088E+03  0.24406159427E+03  0.83957682194E+02  0.29486567700E+03  0.00000000000E+00 0. -1.
          3    1    6    6  503    0  0.11999421949E+03 -0.19200659269E+03  0.23758364383E+03  0.32819374181E+03  0.00000000000E+00 0. -1.
         -3    1    6    6    0  503  0.10706566654E+03 -0.67633070861E+02  0.83912815819E+02  0.15191658858E+03  0.00000000000E+00 0.  1.
<mgrwt>
<rscale>  0 0.11795533E+04</rscale>
<asrwt>0</asrwt>
<pdfrwt beam="1">  1        2 0.44451495E-01 0.11795533E+04</pdfrwt>
<pdfrwt beam="2">  1       -1 0.18520899E+00 0.11795533E+04</pdfrwt>
<totfact> 0.24767036E+01</totfact>
</mgrwt>
</event>
<event>
12    6  0.1586493E-007  0.1434494E+04  0.7818608E-02  0.8929221E-01
         -1   -1    0    0    0  501 -0.00000000000E+00  0.00000000000E+00  0.61766421626E+03  0.61766421626E+03  0.00000000000E+00 0.  1.
          2   -1    0    0  501    0  0.00000000000E+00 -0.00000000000E+00 -0.83288553626E+03  0.83288553626E+03  0.00000000000E+00 0. -1.
         24    2    1    2    0    0  0.27603154841E+03  0.16097647532E+03  0.23479405400E+03  0.40424230481E+03  0.78592314407E+02 0.  0.
        254    2    1    2    0    0 -0.27603154841E+03 -0.16097647532E+03 -0.45001537399E+03  0.10463074477E+04  0.88889740520E+03 0.  0.
         23    2    4    4    0    0  0.28202114951E+03 -0.17821580123E+03 -0.30890141259E+03  0.46334739236E+03  0.89296823754E+02 0.  0.
         23    2    4    4    0    0 -0.55805269791E+03  0.17239325908E+02 -0.14111396140E+03  0.58296005534E+03  0.90605010995E+02 0.  0.
          2    1    3    3  502    0  0.13060185520E+02 -0.89044004569E+01  0.84844054331E+01  0.17939953425E+02  0.00000000000E+00 0. -1.
         -1    1    3    3    0  502  0.26297136289E+03  0.16988087578E+03  0.22630964857E+03  0.38630235139E+03  0.00000000000E+00 0.  1.
         11    1    5    5    0    0  0.20234212867E+03 -0.17142378742E+03 -0.24377543468E+03  0.36021509474E+03  0.00000000000E+00 0.  1.
        -11    1    5    5    0    0  0.79679020839E+02 -0.67920138068E+01 -0.65125977909E+02  0.10313229762E+03  0.00000000000E+00 0. -1.
          1    1    6    6  503    0 -0.12776433826E+03  0.20315434814E+02  0.23027490387E+01  0.12938989789E+03  0.00000000000E+00 0. -1.
         -1    1    6    6    0  503 -0.43028835965E+03 -0.30761089060E+01 -0.14341671044E+03  0.45357015745E+03  0.00000000000E+00 0.  1.
<mgrwt>
<rscale>  0 0.14344945E+04</rscale>
<asrwt>0</asrwt>
<pdfrwt beam="1">  1        2 0.12813624E+00 0.14344945E+04</pdfrwt>
<pdfrwt beam="2">  1       -1 0.95025264E-01 0.14344945E+04</pdfrwt>
<totfact> 0.38715672E+01</totfact>
</mgrwt>
</event>
<event>
12    6  0.1586493E-007  0.1847801E+04  0.7818608E-02  0.8681284E-01
          2   -1    0    0  501    0  0.00000000000E+00  0.00000000000E+00  0.23199428474E+04  0.23199428474E+04  0.00000000000E+00 0. -1.
         -1   -1    0    0    0  501 -0.00000000000E+00 -0.00000000000E+00 -0.36793673937E+03  0.36793673937E+03  0.00000000000E+00 0.  1.
         24    2    1    2    0    0 -0.32773731124E+03  0.34624436626E+03 -0.14552660740E+01  0.48377587399E+03  0.82097942157E+02 0.  0.
        254    2    1    2    0    0  0.32773731124E+03 -0.34624436626E+03  0.19534613741E+04  0.22041037128E+04  0.90264330174E+03 0.  0.
         23    2    4    4    0    0  0.61060094668E+02 -0.56672353312E+03  0.16004377287E+04  0.17014945672E+04  0.93695999980E+02 0.  0.
         23    2    4    4    0    0  0.26667721658E+03  0.22047916686E+03  0.35302364536E+03  0.50260914559E+03  0.90898064811E+02 0.  0.
          2    1    3    3  502    0 -0.25774085425E+02  0.31271630237E+02  0.23286441333E+02  0.46738385585E+02  0.00000000000E+00 0. -1.
         -3    1    3    3    0  502 -0.30196322582E+03  0.31497273603E+03 -0.24741707407E+02  0.43703748841E+03  0.00000000000E+00 0.  1.
         11    1    5    5    0    0  0.15966900243E+02 -0.46491249428E+02  0.22409619313E+03  0.22942424011E+03  0.00000000000E+00 0. -1.
        -11    1    5    5    0    0  0.45093194425E+02 -0.52023228369E+03  0.13763415356E+04  0.14720703271E+04  0.00000000000E+00 0.  1.
          3    1    6    6  503    0  0.71671771667E+02  0.31132983966E+02  0.12695163792E+03  0.14907321662E+03  0.00000000000E+00 0. -1.
         -3    1    6    6    0  503  0.19500544491E+03  0.18934618289E+03  0.22607200744E+03  0.35353592896E+03  0.00000000000E+00 0.  1.
<mgrwt>
<rscale>  0 0.18478011E+04</rscale>
<asrwt>0</asrwt>
<pdfrwt beam="1">  1        2 0.35691428E+00 0.18478011E+04</pdfrwt>
<pdfrwt beam="2">  1       -1 0.56605654E-01 0.18478011E+04</pdfrwt>
<totfact> 0.14946938E+01</totfact>
</mgrwt>
</event>
<event>
12    6  0.1586493E-007  0.1374113E+04  0.7818608E-02  0.8972773E-01
         -1   -1    0    0    0  501 -0.00000000000E+00  0.00000000000E+00  0.40342780204E+03  0.40342780204E+03  0.00000000000E+00 0.  1.
          2   -1    0    0  501    0  0.00000000000E+00 -0.00000000000E+00 -0.11700900089E+04  0.11700900089E+04  0.00000000000E+00 0. -1.
         24    2    1    2    0    0 -0.12124537141E+03 -0.68405886697E+02 -0.64170457855E+03  0.66151533853E+03  0.80236971245E+02 0.  0.
        254    2    1    2    0    0  0.12124537141E+03  0.68405886697E+02 -0.12495762826E+03  0.91200247237E+03  0.89261094286E+03 0.  0.
         23    2    4    4    0    0  0.37781082562E+03  0.31229709053E+03  0.60511353005E+02  0.50223243500E+03  0.91133430852E+02 0.  0.
         23    2    4    4    0    0 -0.25656545421E+03 -0.24389120383E+03 -0.18546898127E+03  0.40977003737E+03  0.90575873793E+02 0.  0.
          2    1    3    3  502    0 -0.94123924360E+02 -0.58045257317E+02 -0.60341010766E+03  0.61345930840E+03  0.00000000000E+00 0. -1.
         -1    1    3    3    0  502 -0.27121447049E+02 -0.10360629380E+02 -0.38294470887E+02  0.48056030129E+02  0.00000000000E+00 0.  1.
         11    1    5    5    0    0  0.44960839189E+02  0.67064289927E+02  0.35032261176E+02  0.88013381750E+02  0.00000000000E+00 0.  1.
        -11    1    5    5    0    0  0.33284998643E+03  0.24523280060E+03  0.25479091829E+02  0.41421905325E+03  0.00000000000E+00 0. -1.
          2    1    6    6  503    0 -0.44238395797E+02 -0.30428115468E+02  0.43163565127E+01  0.53865915078E+02  0.00000000000E+00 0. -1.
         -2    1    6    6    0  503 -0.21232705841E+03 -0.21346308836E+03 -0.18978533778E+03  0.35590412229E+03  0.00000000000E+00 0.  1.
<mgrwt>
<rscale>  0 0.13741133E+04</rscale>
<asrwt>0</asrwt>
<pdfrwt beam="1">  1        2 0.18001385E+00 0.13741133E+04</pdfrwt>
<pdfrwt beam="2">  1       -1 0.62065816E-01 0.13741133E+04</pdfrwt>
<totfact> 0.57796663E+01</totfact>
</mgrwt>
</event>
<event>
12    6  0.1586493E-007  0.1456768E+04  0.7818608E-02  0.8913722E-01
         -1   -1    0    0    0  501 -0.00000000000E+00  0.00000000000E+00  0.42749425426E+03  0.42749425426E+03  0.00000000000E+00 0.  1.
          2   -1    0    0  501    0  0.00000000000E+00 -0.00000000000E+00 -0.12410538843E+04  0.12410538843E+04  0.00000000000E+00 0. -1.
         24    2    1    2    0    0  0.11013936192E+03  0.74281853817E+02  0.23474574401E+03  0.28140438012E+03  0.80214636875E+02 0.  0.
        254    2    1    2    0    0 -0.11013936192E+03 -0.74281853817E+02 -0.10483053741E+04  0.13871437585E+04  0.89865186613E+03 0.  0.
         23    2    4    4    0    0 -0.20010750202E+03 -0.21807526828E+03  0.13820665569E+02  0.30763201140E+03  0.82744236303E+02 0.  0.
         23    2    4    4    0    0  0.89968140100E+02  0.14379341446E+03 -0.10621260397E+04  0.10795117471E+04  0.91994976454E+02 0.  0.
          2    1    3    3  502    0 -0.25661076554E+01  0.76537615301E+01 -0.40801243964E+01  0.90450201298E+01  0.00000000000E+00 0. -1.
         -3    1    3    3    0  502  0.11270546957E+03  0.66628092287E+02  0.23882586841E+03  0.27235935999E+03  0.00000000000E+00 0.  1.
         11    1    5    5    0    0 -0.19228924165E+03 -0.20141073494E+03  0.33752408050E+02  0.28050073379E+03  0.00000000000E+00 0. -1.
        -11    1    5    5    0    0 -0.78182603625E+01 -0.16664533339E+02 -0.19931742482E+02  0.27131277612E+02  0.00000000000E+00 0.  1.
          2    1    6    6  503    0  0.52345090204E+02  0.23280608339E+02 -0.50614858104E+03  0.50938038958E+03  0.00000000000E+00 0. -1.
         -2    1    6    6    0  503  0.37623049895E+02  0.12051280612E+03 -0.55597745862E+03  0.57013135751E+03  0.00000000000E+00 0.  1.
<mgrwt>
<rscale>  0 0.14567682E+04</rscale>
<asrwt>0</asrwt>
<pdfrwt beam="1">  1        2 0.19093137E+00 0.14567682E+04</pdfrwt>
<pdfrwt beam="2">  1       -1 0.65768347E-01 0.14567682E+04</pdfrwt>
<totfact> 0.46367000E+01</totfact>
</mgrwt>
</event>
<event>
12    6  0.1586493E-007  0.2248250E+04  0.7818608E-02  0.8498610E-01
          2   -1    0    0  501    0  0.00000000000E+00  0.00000000000E+00  0.19268609487E+04  0.19268609487E+04  0.00000000000E+00 0. -1.
         -1   -1    0    0    0  501 -0.00000000000E+00 -0.00000000000E+00 -0.65581110344E+03  0.65581110344E+03  0.00000000000E+00 0.  1.
         24    2    1    2    0    0 -0.69567986333E+03 -0.26159071068E+03  0.11807317761E+04  0.13973724316E+04  0.78243295573E+02 0.  0.
        254    2    1    2    0    0  0.69567986333E+03  0.26159071068E+03  0.90318069204E+02  0.11852996206E+04  0.91890024749E+03 0.  0.
         23    2    4    4    0    0  0.25995626141E+03  0.34050586208E+03 -0.34425288117E+03  0.55775169935E+03  0.95159928412E+02 0.  0.
         23    2    4    4    0    0  0.43572360191E+03 -0.78915151405E+02  0.43457095037E+03  0.62754792125E+03  0.94243430411E+02 0.  0.
          4    1    3    3  502    0 -0.61521171249E+03 -0.24508616654E+03  0.10075762821E+04  0.12057207987E+04  0.00000000000E+00 0. -1.
         -3    1    3    3    0  502 -0.80468150840E+02 -0.16504544137E+02  0.17315549401E+03  0.19165163287E+03  0.00000000000E+00 0.  1.
         11    1    5    5    0    0  0.11890884939E+02  0.33889925238E+02 -0.27013779042E+01  0.36016907417E+02  0.00000000000E+00 0. -1.
        -11    1    5    5    0    0  0.24806537648E+03  0.30661593684E+03 -0.34155150327E+03  0.52173479193E+03  0.00000000000E+00 0.  1.
          1    1    6    6  503    0  0.22337328325E+03 -0.84401781941E+02  0.20423583373E+03  0.31421578612E+03  0.00000000000E+00 0. -1.
         -1    1    6    6    0  503  0.21235031866E+03  0.54866305368E+01  0.23033511664E+03  0.31333213514E+03  0.00000000000E+00 0.  1.
<mgrwt>
<rscale>  0 0.22482498E+04</rscale>
<asrwt>0</asrwt>
<pdfrwt beam="1">  1        2 0.29644014E+00 0.22482498E+04</pdfrwt>
<pdfrwt beam="2">  1       -1 0.10089402E+00 0.22482498E+04</pdfrwt>
<totfact> 0.71001182E+00</totfact>
</mgrwt>
</event>
<event>
12    6  0.1586493E-007  0.1580446E+04  0.7818608E-02  0.8832652E-01
         -1   -1    0    0    0  501 -0.00000000000E+00  0.00000000000E+00  0.44969851720E+03  0.44969851720E+03  0.00000000000E+00 0.  1.
          2   -1    0    0  501    0  0.00000000000E+00 -0.00000000000E+00 -0.13886014622E+04  0.13886014622E+04  0.00000000000E+00 0. -1.
         24    2    1    2    0    0 -0.63456908339E+02  0.48440430929E+03 -0.54039828845E+03  0.73222996291E+03  0.73865379852E+02 0.  0.
        254    2    1    2    0    0  0.63456908339E+02 -0.48440430929E+03 -0.39850465655E+03  0.11060700165E+04  0.90879624010E+03 0.  0.
         23    2    4    4    0    0 -0.50698524178E+02  0.24453983141E+03 -0.20771953127E+03  0.33852769627E+03  0.95307544149E+02 0.  0.
         23    2    4    4    0    0  0.11415543252E+03 -0.72894414070E+03 -0.19078512528E+03  0.76754232023E+03  0.91275551347E+02 0.  0.
          4    1    3    3  502    0 -0.79635100502E+02  0.43073669670E+03 -0.48024212164E+03  0.65000642036E+03  0.00000000000E+00 0. -1.
         -3    1    3    3    0  502  0.16178192163E+02  0.53667612593E+02 -0.60156166811E+02  0.82223542545E+02  0.00000000000E+00 0.  1.
         11    1    5    5    0    0 -0.31943892243E+02  0.12970414558E+03 -0.50218827576E+02  0.14270777230E+03  0.00000000000E+00 0.  1.
        -11    1    5    5    0    0 -0.18754631934E+02  0.11483568583E+03 -0.15750070369E+03  0.19581992397E+03  0.00000000000E+00 0. -1.
          4    1    6    6  503    0  0.68542559634E+02 -0.37553030342E+03 -0.14465737316E+03  0.40822401556E+03  0.00000000000E+00 0.  1.
         -4    1    6    6    0  503  0.45612872883E+02 -0.35341383728E+03 -0.46127752122E+02  0.35931830467E+03  0.00000000000E+00 0. -1.
<mgrwt>
<rscale>  0 0.15804455E+04</rscale>
<asrwt>0</asrwt>
<pdfrwt beam="1">  1        2 0.21363100E+00 0.15804455E+04</pdfrwt>
<pdfrwt beam="2">  1       -1 0.69184386E-01 0.15804455E+04</pdfrwt>
<totfact> 0.33984312E+01</totfact>
</mgrwt>
</event>
<event>
12    6  0.1586493E-007  0.1814027E+04  0.7818608E-02  0.8698875E-01
          2   -1    0    0  501    0  0.00000000000E+00  0.00000000000E+00  0.25864622945E+04  0.25864622945E+04  0.00000000000E+00 0. -1.
         -1   -1    0    0    0  501 -0.00000000000E+00 -0.00000000000E+00 -0.31806913748E+03  0.31806913748E+03  0.00000000000E+00 0.  1.
         24    2    1    2    0    0  0.83619844821E+02 -0.62040727294E+03  0.12668706123E+04  0.14153637415E+04  0.79974431345E+02 0.  0.
        254    2    1    2    0    0 -0.83619844821E+02  0.62040727294E+03  0.10015225448E+04  0.14891676906E+04  0.90701463058E+03 0.  0.
         23    2    4    4    0    0  0.38987640131E+01  0.36878338555E+03 -0.63327750735E+02  0.38756183606E+03  0.10088303594E+03 0.  0.
         23    2    4    4    0    0 -0.87518608834E+02  0.25162388739E+03  0.10648502955E+04  0.11016058545E+04  0.93033430256E+02 0.  0.
          4    1    3    3  502    0  0.98421691502E+02 -0.56335690929E+03  0.11602439734E+04  0.12935315669E+04  0.00000000000E+00 0. -1.
         -3    1    3    3    0  502 -0.14801846682E+02 -0.57050363658E+02  0.10662663883E+03  0.12183217460E+03  0.00000000000E+00 0.  1.
         11    1    5    5    0    0 -0.31198979095E+02  0.31301032287E+03 -0.37520754644E+02  0.31679117025E+03  0.00000000000E+00 0.  1.
        -11    1    5    5    0    0  0.35097743108E+02  0.55773062680E+02 -0.25806996092E+02  0.70770665811E+02  0.00000000000E+00 0. -1.
          3    1    6    6  503    0 -0.10696097018E+03  0.21338716590E+03  0.87528465177E+03  0.90724745981E+03  0.00000000000E+00 0. -1.
         -3    1    6    6    0  503  0.19442361345E+02  0.38236721496E+02  0.18956564378E+03  0.19435839469E+03  0.00000000000E+00 0.  1.
<mgrwt>
<rscale>  0 0.18140274E+04</rscale>
<asrwt>0</asrwt>
<pdfrwt beam="1">  1        2 0.39791726E+00 0.18140274E+04</pdfrwt>
<pdfrwt beam="2">  1       -1 0.48933715E-01 0.18140274E+04</pdfrwt>
<totfact> 0.13937077E+01</totfact>
</mgrwt>
</event>
<event>
12    6  0.1586493E-007  0.1832401E+04  0.7818608E-02  0.8689256E-01
         -1   -1    0    0    0  501 -0.00000000000E+00  0.00000000000E+00  0.13466294408E+04  0.13466294408E+04  0.00000000000E+00 0.  1.
          2   -1    0    0  501    0  0.00000000000E+00 -0.00000000000E+00 -0.62335146776E+03  0.62335146776E+03  0.00000000000E+00 0. -1.
         24    2    1    2    0    0 -0.51186729951E+03  0.41970303358E+03  0.48265015559E+03  0.82318074275E+03  0.80725422513E+02 0.  0.
        254    2    1    2    0    0  0.51186729951E+03 -0.41970303358E+03  0.24062781742E+03  0.11468001658E+04  0.90503596891E+03 0.  0.
         23    2    4    4    0    0 -0.46299339236E+02  0.16413944697E+03 -0.14918187058E+03  0.24485743601E+03  0.92814581806E+02 0.  0.
         23    2    4    4    0    0  0.55816663874E+03 -0.58384248056E+03  0.38980968801E+03  0.90194272977E+03  0.95535627997E+02 0.  0.
          4    1    3    3  502    0 -0.84275692912E+02  0.56000214458E+02  0.10966039118E+03  0.14921064918E+03  0.00000000000E+00 0. -1.
         -3    1    3    3    0  502 -0.42759160660E+03  0.36370281913E+03  0.37298976440E+03  0.67397009357E+03  0.00000000000E+00 0.  1.
         11    1    5    5    0    0 -0.62034878678E+02  0.15309244335E+03 -0.15311535738E+03  0.22523306828E+03  0.00000000000E+00 0. -1.
        -11    1    5    5    0    0  0.15735539441E+02  0.11047003618E+02  0.39334867947E+01  0.19624367730E+02  0.00000000000E+00 0.  1.
          1    1    6    6  503    0  0.54244450057E+03 -0.54382523814E+03  0.38337617406E+03  0.85846911224E+03  0.00000000000E+00 0. -1.
         -1    1    6    6    0  503  0.15722138173E+02 -0.40017242416E+02  0.64335139431E+01  0.43473617528E+02  0.00000000000E+00 0.  1.
<mgrwt>
<rscale>  0 0.18324011E+04</rscale>
<asrwt>0</asrwt>
<pdfrwt beam="1">  1        2 0.95900226E-01 0.18324011E+04</pdfrwt>
<pdfrwt beam="2">  1       -1 0.20717376E+00 0.18324011E+04</pdfrwt>
<totfact> 0.68405563E+00</totfact>
</mgrwt>
</event>
<event>
12    6  0.1586493E-007  0.2600217E+04  0.7818608E-02  0.8368128E-01
         -1   -1    0    0    0  501 -0.00000000000E+00  0.00000000000E+00  0.15940082968E+04  0.15940082968E+04  0.00000000000E+00 0.  1.
          2   -1    0    0  501    0  0.00000000000E+00 -0.00000000000E+00 -0.10603970119E+04  0.10603970119E+04  0.00000000000E+00 0. -1.
         24    2    1    2    0    0 -0.92722127365E+03 -0.64981950161E+03  0.89175935226E+02  0.11385853358E+04  0.80122059357E+02 0.  0.
        254    2    1    2    0    0  0.92722127365E+03  0.64981950161E+03  0.44443534965E+03  0.15158199729E+04  0.90453454070E+03 0.  0.
         23    2    4    4    0    0  0.43984188903E+03  0.78163410500E+03  0.12158557935E+03  0.90963821283E+03  0.90806738082E+02 0.  0.
         23    2    4    4    0    0  0.48737938463E+03 -0.13181460340E+03  0.32284977030E+03  0.60618176010E+03  0.91162480577E+02 0.  0.
          2    1    3    3  502    0 -0.65771176239E+03 -0.44741075058E+03  0.27514481733E+02  0.79593855845E+03  0.00000000000E+00 0. -1.
         -3    1    3    3    0  502 -0.26950951127E+03 -0.20240875102E+03  0.61661453492E+02  0.34264677731E+03  0.00000000000E+00 0.  1.
         11    1    5    5    0    0  0.19101823490E+02  0.52748864032E+02  0.28434865654E+02  0.62895658849E+02  0.00000000000E+00 0. -1.
        -11    1    5    5    0    0  0.42074006554E+03  0.72888524097E+03  0.93150713695E+02  0.84674255398E+03  0.00000000000E+00 0.  1.
          4    1    6    6  503    0  0.22384832178E+03 -0.14307698910E+02  0.14975938015E+03  0.26970475219E+03  0.00000000000E+00 0. -1.
         -4    1    6    6    0  503  0.26353106284E+03 -0.11750690449E+03  0.17309039015E+03  0.33647700791E+03  0.00000000000E+00 0.  1.
<mgrwt>
<rscale>  0 0.26002166E+04</rscale>
<asrwt>0</asrwt>
<pdfrwt beam="1">  1        2 0.16313800E+00 0.26002166E+04</pdfrwt>
<pdfrwt beam="2">  1       -1 0.24523205E+00 0.26002166E+04</pdfrwt>
<totfact> 0.17415883E+00</totfact>
</mgrwt>
</event>
<event>
12    6  0.1586493E-007  0.1512310E+04  0.7818608E-02  0.8876308E-01
         -1   -1    0    0    0  501 -0.00000000000E+00  0.00000000000E+00  0.34760130054E+03  0.34760130054E+03  0.00000000000E+00 0.  1.
          2   -1    0    0  501    0  0.00000000000E+00 -0.00000000000E+00 -0.16449035470E+04  0.16449035470E+04  0.00000000000E+00 0. -1.
         24    2    1    2    0    0  0.31795211725E+01 -0.41939386489E+03 -0.75590133395E+03  0.86817465493E+03  0.80243887798E+02 0.  0.
        254    2    1    2    0    0 -0.31795211725E+01  0.41939386489E+03 -0.54140091248E+03  0.11243301926E+04  0.89168498397E+03 0.  0.
         23    2    4    4    0    0 -0.23175650228E+03  0.55188465158E+03 -0.58446542053E+03  0.84069757876E+03  0.82974973042E+02 0.  0.
         23    2    4    4    0    0  0.22857698111E+03 -0.13249078669E+03  0.43064508043E+02  0.28363261381E+03  0.93763867849E+02 0.  0.
          4    1    3    3  502    0 -0.10849799923E+01 -0.42199410205E+03 -0.74799204218E+03  0.85882029232E+03  0.00000000000E+00 0. -1.
         -3    1    3    3    0  502  0.42645011648E+01  0.26002371533E+01 -0.79092917728E+01  0.93543626071E+01  0.00000000000E+00 0.  1.
         11    1    5    5    0    0 -0.20024545136E+03  0.38196100106E+03 -0.42709410443E+03  0.60696113645E+03  0.00000000000E+00 0.  1.
        -11    1    5    5    0    0 -0.31511050919E+02  0.16992365052E+03 -0.15737131609E+03  0.23373644231E+03  0.00000000000E+00 0. -1.
          4    1    6    6  503    0  0.13471252278E+03 -0.12778400771E+03  0.19200869209E+02  0.18666785957E+03  0.00000000000E+00 0.  1.
         -4    1    6    6    0  503  0.93864458328E+02 -0.47067789792E+01  0.23863638834E+02  0.96964754236E+02  0.00000000000E+00 0. -1.
<mgrwt>
<rscale>  0 0.15123103E+04</rscale>
<asrwt>0</asrwt>
<pdfrwt beam="1">  1        2 0.25306208E+00 0.15123103E+04</pdfrwt>
<pdfrwt beam="2">  1       -1 0.53477124E-01 0.15123103E+04</pdfrwt>
<totfact> 0.40835533E+01</totfact>
</mgrwt>
</event>
<event>
12    6  0.1586493E-007  0.2341827E+04  0.7818608E-02  0.8461610E-01
         -1   -1    0    0    0  501 -0.00000000000E+00  0.00000000000E+00  0.64688948987E+03  0.64688948987E+03  0.00000000000E+00 0.  1.
          2   -1    0    0  501    0  0.00000000000E+00 -0.00000000000E+00 -0.21194317149E+04  0.21194317149E+04  0.00000000000E+00 0. -1.
         24    2    1    2    0    0 -0.47554835522E+03  0.39495137536E+03  0.29351262577E+03  0.68900317925E+03  0.80267630344E+02 0.  0.
        254    2    1    2    0    0  0.47554835522E+03 -0.39495137536E+03 -0.17660548508E+04  0.20773180255E+04  0.90231237164E+03 0.  0.
         23    2    4    4    0    0 -0.22400057858E+03 -0.28969954143E+03 -0.53798832550E+03  0.65708168290E+03  0.90679744829E+02 0.  0.
         23    2    4    4    0    0  0.69954893380E+03 -0.10525183393E+03 -0.12280665253E+04  0.14202363426E+04  0.92071814254E+02 0.  0.
          2    1    3    3  502    0 -0.82210780513E+02  0.11068531910E+03  0.58178862134E+02  0.14964836215E+03  0.00000000000E+00 0. -1.
         -1    1    3    3    0  502 -0.39333757471E+03  0.28426605627E+03  0.23533376363E+03  0.53935481710E+03  0.00000000000E+00 0.  1.
         11    1    5    5    0    0 -0.13106367778E+03 -0.17624004506E+03 -0.39665437707E+03  0.45340151738E+03  0.00000000000E+00 0. -1.
        -11    1    5    5    0    0 -0.92936900799E+02 -0.11345949637E+03 -0.14133394843E+03  0.20368016552E+03  0.00000000000E+00 0.  1.
          3    1    6    6  503    0  0.26309720147E+03 -0.23356437256E+02 -0.37755826407E+03  0.46077749875E+03  0.00000000000E+00 0. -1.
         -3    1    6    6    0  503  0.43645173233E+03 -0.81895396677E+02 -0.85050826118E+03  0.95945884382E+03  0.00000000000E+00 0.  1.
<mgrwt>
<rscale>  0 0.23418267E+04</rscale>
<asrwt>0</asrwt>
<pdfrwt beam="1">  1        2 0.32606642E+00 0.23418267E+04</pdfrwt>
<pdfrwt beam="2">  1       -1 0.99521458E-01 0.23418267E+04</pdfrwt>
<totfact> 0.56770130E+00</totfact>
</mgrwt>
</event>
<event>
12    6  0.1586493E-007  0.2616506E+04  0.7818608E-02  0.8362616E-01
         -1   -1    0    0    0  501 -0.00000000000E+00  0.00000000000E+00  0.94127669256E+03  0.94127669256E+03  0.00000000000E+00 0.  1.
          2   -1    0    0  501    0  0.00000000000E+00 -0.00000000000E+00 -0.18183028221E+04  0.18183028221E+04  0.00000000000E+00 0. -1.
         24    2    1    2    0    0 -0.52292251786E+03  0.82255157569E+03 -0.10807789428E+04  0.14578679488E+04  0.85186728023E+02 0.  0.
        254    2    1    2    0    0  0.52292251786E+03 -0.82255157569E+03  0.20375281319E+03  0.13017115659E+04  0.83839056386E+03 0.  0.
         23    2    4    4    0    0  0.90754900159E+01 -0.60998740640E+03 -0.15213354427E+03  0.63512270144E+03  0.89828893512E+02 0.  0.
         23    2    4    4    0    0  0.51384702784E+03 -0.21256416929E+03  0.35588635747E+03  0.66658886446E+03  0.91996308071E+02 0.  0.
          2    1    3    3  502    0 -0.48457313726E+03  0.72742513592E+03 -0.93850470831E+03  0.12824778911E+04  0.00000000000E+00 0. -1.
         -1    1    3    3    0  502 -0.38349380599E+02  0.95126439764E+02 -0.14227423445E+03  0.17539005765E+03  0.00000000000E+00 0.  1.
         11    1    5    5    0    0 -0.29497389489E+02 -0.80365206979E+02 -0.21364745363E+02  0.88233297705E+02  0.00000000000E+00 0. -1.
        -11    1    5    5    0    0  0.38572879505E+02 -0.52962219942E+03 -0.13076879891E+03  0.54688940374E+03  0.00000000000E+00 0.  1.
          1    1    6    6  503    0  0.20534979660E+02 -0.31577522496E+02  0.31142329389E+02  0.48874021692E+02  0.00000000000E+00 0. -1.
         -1    1    6    6    0  503  0.49331204818E+03 -0.18098664679E+03  0.32474402808E+03  0.61771484277E+03  0.00000000000E+00 0.  1.
<mgrwt>
<rscale>  0 0.26165061E+04</rscale>
<asrwt>0</asrwt>
<pdfrwt beam="1">  1        2 0.27973889E+00 0.26165061E+04</pdfrwt>
<pdfrwt beam="2">  1       -1 0.14481180E+00 0.26165061E+04</pdfrwt>
<totfact> 0.32492620E+00</totfact>
</mgrwt>
</event>
<event>
12    6  0.1586493E-007  0.1488066E+04  0.7818608E-02  0.8892428E-01
          2   -1    0    0  501    0  0.00000000000E+00  0.00000000000E+00  0.23194005225E+04  0.23194005225E+04  0.00000000000E+00 0. -1.
         -1   -1    0    0    0  501 -0.00000000000E+00 -0.00000000000E+00 -0.23867588045E+03  0.23867588045E+03  0.00000000000E+00 0.  1.
         24    2    1    2    0    0  0.16721561583E+03  0.41317686170E+03  0.93248155060E+03  0.10367519770E+04  0.81588224164E+02 0.  0.
        254    2    1    2    0    0 -0.16721561583E+03 -0.41317686170E+03  0.11482430915E+04  0.15213244260E+04  0.89291076309E+03 0.  0.
         23    2    4    4    0    0  0.24640809669E+03 -0.33373095067E+03  0.17852712620E+03  0.46038592845E+03  0.89386636457E+02 0.  0.
         23    2    4    4    0    0 -0.41362371252E+03 -0.79445911031E+02  0.96971596527E+03  0.10609384976E+04  0.88573212454E+02 0.  0.
          4    1    3    3  502    0  0.17353722782E+03  0.36086459147E+03  0.82720925822E+03  0.91902860657E+03  0.00000000000E+00 0. -1.
         -3    1    3    3    0  502 -0.63216119898E+01  0.52312270228E+02  0.10527229238E+03  0.11772337040E+03  0.00000000000E+00 0.  1.
         11    1    5    5    0    0  0.11540001526E+03 -0.21999017761E+03  0.12923398254E+03  0.28002547029E+03  0.00000000000E+00 0. -1.
        -11    1    5    5    0    0  0.13100808143E+03 -0.11374077305E+03  0.49293143661E+02  0.18036045816E+03  0.00000000000E+00 0.  1.
          1    1    6    6  503    0 -0.29809518645E+03 -0.42442135199E+02  0.77605267133E+03  0.83241805825E+03  0.00000000000E+00 0. -1.
         -1    1    6    6    0  503 -0.11552852607E+03 -0.37003775831E+02  0.19366329394E+03  0.22852043930E+03  0.00000000000E+00 0.  1.
<mgrwt>
<rscale>  0 0.14880658E+04</rscale>
<asrwt>0</asrwt>
<pdfrwt beam="1">  1        2 0.35683083E+00 0.14880658E+04</pdfrwt>
<pdfrwt beam="2">  1       -1 0.36719368E-01 0.14880658E+04</pdfrwt>
<totfact> 0.34709617E+01</totfact>
</mgrwt>
</event>
<event>
12    6  0.1586493E-007  0.2263314E+04  0.7818608E-02  0.8492528E-01
         -1   -1    0    0    0  501 -0.00000000000E+00  0.00000000000E+00  0.11087563839E+04  0.11087563839E+04  0.00000000000E+00 0.  1.
          2   -1    0    0  501    0  0.00000000000E+00 -0.00000000000E+00 -0.11550304760E+04  0.11550304760E+04  0.00000000000E+00 0. -1.
         24    2    1    2    0    0  0.31242284017E+03 -0.14926312478E+03 -0.90790441736E+03  0.97482517083E+03  0.78141993475E+02 0.  0.
        254    2    1    2    0    0 -0.31242284017E+03  0.14926312478E+03  0.86163032535E+03  0.12889616891E+04  0.89393954316E+03 0.  0.
         23    2    4    4    0    0  0.10513545903E+03 -0.23228892756E+03  0.21608017561E+02  0.27214884846E+03  0.92663254214E+02 0.  0.
         23    2    4    4    0    0 -0.41755829920E+03  0.38155205235E+03  0.84002230779E+03  0.10168128406E+04  0.91290598354E+02 0.  0.
          4    1    3    3  502    0  0.74762502644E+02 -0.40931257575E+02 -0.14206252863E+03  0.16567003859E+03  0.00000000000E+00 0. -1.
         -3    1    3    3    0  502  0.23766033753E+03 -0.10833186721E+03 -0.76584188873E+03  0.80915513224E+03  0.00000000000E+00 0.  1.
         11    1    5    5    0    0  0.37764480843E+01 -0.49786658828E+02 -0.28456603519E+02  0.57469567958E+02  0.00000000000E+00 0. -1.
        -11    1    5    5    0    0  0.10135901095E+03 -0.18250226873E+03  0.50064621080E+02  0.21467928050E+03  0.00000000000E+00 0.  1.
          3    1    6    6  503    0 -0.10142835002E+02 -0.48079477705E+01  0.20933205476E+02  0.23752737845E+02  0.00000000000E+00 0. -1.
         -3    1    6    6    0  503 -0.40741546420E+03  0.38636000012E+03  0.81908910231E+03  0.99306010276E+03  0.00000000000E+00 0.  1.
<mgrwt>
<rscale>  0 0.22633139E+04</rscale>
<asrwt>0</asrwt>
<pdfrwt beam="1">  1        2 0.17769700E+00 0.22633139E+04</pdfrwt>
<pdfrwt beam="2">  1       -1 0.17057791E+00 0.22633139E+04</pdfrwt>
<totfact> 0.50926438E+00</totfact>
</mgrwt>
</event>
<event>
12    6  0.1586493E-007  0.2544382E+04  0.7818608E-02  0.8387343E-01
          2   -1    0    0  501    0  0.00000000000E+00  0.00000000000E+00  0.21879192158E+04  0.21879192158E+04  0.00000000000E+00 0. -1.
         -1   -1    0    0    0  501 -0.00000000000E+00 -0.00000000000E+00 -0.73973014653E+03  0.73973014653E+03  0.00000000000E+00 0.  1.
         24    2    1    2    0    0  0.76027983385E+03  0.72563062839E+03  0.21553925540E+03  0.10754996154E+04  0.75345985552E+02 0.  0.
        254    2    1    2    0    0 -0.76027983385E+03 -0.72563062839E+03  0.12326498139E+04  0.18521497469E+04  0.89803557099E+03 0.  0.
         23    2    4    4    0    0 -0.16980119130E+03 -0.75636049239E+03  0.62880448730E+03  0.10022297398E+04  0.90309074968E+02 0.  0.
         23    2    4    4    0    0 -0.59047864255E+03  0.30729864004E+02  0.60384532662E+03  0.84992000717E+03  0.90141490289E+02 0.  0.
          2    1    3    3  502    0  0.58421279660E+02  0.32193181576E+02  0.20319680902E+02  0.69730454531E+02  0.00000000000E+00 0. -1.
         -1    1    3    3    0  502  0.70185855419E+03  0.69343744681E+03  0.19521957450E+03  0.10057691609E+04  0.00000000000E+00 0.  1.
         11    1    5    5    0    0 -0.71328566126E+02 -0.38032964482E+03  0.25845276295E+03  0.46533453960E+03  0.00000000000E+00 0.  1.
        -11    1    5    5    0    0 -0.98472625174E+02 -0.37603084757E+03  0.37035172435E+03  0.53689520017E+03  0.00000000000E+00 0. -1.
          4    1    6    6  503    0 -0.13756789898E+03  0.45371971315E+02  0.13950160410E+03  0.20110753381E+03  0.00000000000E+00 0.  1.
         -4    1    6    6    0  503 -0.45291074357E+03 -0.14642107311E+02  0.46434372252E+03  0.64881247336E+03  0.00000000000E+00 0. -1.
<mgrwt>
<rscale>  0 0.25443819E+04</rscale>
<asrwt>0</asrwt>
<pdfrwt beam="1">  1        2 0.33660295E+00 0.25443819E+04</pdfrwt>
<pdfrwt beam="2">  1       -1 0.11380464E+00 0.25443819E+04</pdfrwt>
<totfact> 0.37313729E+00</totfact>
</mgrwt>
</event>
<event>
12    6  0.1586493E-007  0.2404493E+04  0.7818608E-02  0.8437824E-01
          2   -1    0    0  501    0  0.00000000000E+00  0.00000000000E+00  0.18483707189E+04  0.18483707189E+04  0.00000000000E+00 0. -1.
         -1   -1    0    0    0  501 -0.00000000000E+00 -0.00000000000E+00 -0.78198391703E+03  0.78198391703E+03  0.00000000000E+00 0.  1.
         24    2    1    2    0    0  0.30956971581E+03  0.27839730392E+03 -0.57143708211E+03  0.71148376482E+03  0.79563440221E+02 0.  0.
        254    2    1    2    0    0 -0.30956971581E+03 -0.27839730392E+03  0.16378238840E+04  0.19188708711E+04  0.90898838126E+03 0.  0.
         23    2    4    4    0    0 -0.24743756856E+03 -0.42614638870E+03  0.16588367177E+04  0.17329001115E+04  0.91528385129E+02 0.  0.
         23    2    4    4    0    0 -0.62132147246E+02  0.14774908478E+03 -0.21012833758E+02  0.18597075963E+03  0.91942310622E+02 0.  0.
          2    1    3    3  502    0  0.45439369070E+02  0.63366180177E+02 -0.66865720648E+02  0.10271822452E+03  0.00000000000E+00 0. -1.
         -1    1    3    3    0  502  0.26413034674E+03  0.21503112375E+03 -0.50457136146E+03  0.60876554030E+03  0.00000000000E+00 0.  1.
         11    1    5    5    0    0 -0.16650009146E+03 -0.34932400052E+03  0.13568962718E+04  0.14109985932E+04  0.00000000000E+00 0.  1.
        -11    1    5    5    0    0 -0.80937477104E+02 -0.76822388182E+02  0.30194044598E+03  0.32190151824E+03  0.00000000000E+00 0. -1.
          3    1    6    6  503    0  0.16621138916E+02  0.70773790039E+02 -0.21617148283E+02  0.75845189137E+02  0.00000000000E+00 0. -1.
         -3    1    6    6    0  503 -0.78753286162E+02  0.76975294739E+02  0.60431452552E+00  0.11012557050E+03  0.00000000000E+00 0.  1.
<mgrwt>
<rscale>  0 0.24044926E+04</rscale>
<asrwt>0</asrwt>
<pdfrwt beam="1">  1        2 0.28436472E+00 0.24044926E+04</pdfrwt>
<pdfrwt beam="2">  1       -1 0.12030522E+00 0.24044926E+04</pdfrwt>
<totfact> 0.51060434E+00</totfact>
</mgrwt>
</event>
<event>
12    6  0.1586493E-007  0.1325843E+04  0.7818608E-02  0.9009319E-01
         -1   -1    0    0    0  501 -0.00000000000E+00  0.00000000000E+00  0.40759435900E+03  0.40759435900E+03  0.00000000000E+00 0.  1.
          2   -1    0    0  501    0  0.00000000000E+00 -0.00000000000E+00 -0.10781923915E+04  0.10781923915E+04  0.00000000000E+00 0. -1.
         24    2    1    2    0    0  0.29850597909E+03 -0.20696068509E+03 -0.27921654635E+03  0.46517558599E+03  0.80547509726E+02 0.  0.
        254    2    1    2    0    0 -0.29850597909E+03  0.20696068509E+03 -0.39138148616E+03  0.10206111645E+04  0.86978683407E+03 0.  0.
         23    2    4    4    0    0 -0.54674531599E+03  0.30391401203E+03 -0.15027892496E+03  0.64955952048E+03  0.89719831143E+02 0.  0.
         23    2    4    4    0    0  0.24823933690E+03 -0.96953326947E+02 -0.24110256120E+03  0.37105164404E+03  0.92337216427E+02 0.  0.
          4    1    3    3  502    0  0.22114751152E+03 -0.16203758561E+03 -0.25011071412E+03  0.37110344962E+03  0.00000000000E+00 0. -1.
         -3    1    3    3    0  502  0.77358467570E+02 -0.44923099474E+02 -0.29105832222E+02  0.94072136365E+02  0.00000000000E+00 0.  1.
         11    1    5    5    0    0  0.17880232723E+00 -0.41867278493E+01 -0.13010023580E+01  0.43878545432E+01  0.00000000000E+00 0. -1.
        -11    1    5    5    0    0 -0.54692411831E+03  0.30810073988E+03 -0.14897792260E+03  0.64517166594E+03  0.00000000000E+00 0.  1.
          1    1    6    6  503    0  0.25911483279E+02 -0.20859925393E+02  0.15025009590E+01  0.33298633038E+02  0.00000000000E+00 0. -1.
         -1    1    6    6    0  503  0.22232785362E+03 -0.76093401554E+02 -0.24260506216E+03  0.33775301100E+03  0.00000000000E+00 0.  1.
<mgrwt>
<rscale>  0 0.13258433E+04</rscale>
<asrwt>0</asrwt>
<pdfrwt beam="1">  1        2 0.16587575E+00 0.13258433E+04</pdfrwt>
<pdfrwt beam="2">  1       -1 0.62706825E-01 0.13258433E+04</pdfrwt>
<totfact> 0.64699266E+01</totfact>
</mgrwt>
</event>
<event>
12    6  0.1586493E-007  0.1631714E+04  0.7818608E-02  0.8801298E-01
          2   -1    0    0  501    0  0.00000000000E+00  0.00000000000E+00  0.99429095151E+03  0.99429095151E+03  0.00000000000E+00 0. -1.
         -1   -1    0    0    0  501 -0.00000000000E+00 -0.00000000000E+00 -0.66944477901E+03  0.66944477901E+03  0.00000000000E+00 0.  1.
         24    2    1    2    0    0  0.39572914051E+03 -0.38075821170E+03 -0.24486972196E+02  0.55541343274E+03  0.79410962941E+02 0.  0.
        254    2    1    2    0    0 -0.39572914051E+03  0.38075821170E+03  0.34933314470E+03  0.11083222978E+04  0.89708767762E+03 0.  0.
         23    2    4    4    0    0 -0.13459031917E+03 -0.25939265316E+02 -0.27116848522E+03  0.31681971747E+03  0.89749576611E+02 0.  0.
         23    2    4    4    0    0 -0.26113882135E+03  0.40669747701E+03  0.62050162992E+03  0.79150258031E+03  0.88643894737E+02 0.  0.
          4    1    3    3  502    0  0.13995107086E+03 -0.17325676642E+03  0.17400060514E+02  0.22339868274E+03  0.00000000000E+00 0. -1.
         -3    1    3    3    0  502  0.25577806965E+03 -0.20750144528E+03 -0.41887032711E+02  0.33201475000E+03  0.00000000000E+00 0.  1.
         11    1    5    5    0    0 -0.77830934800E+02  0.17889171599E+02 -0.81761676847E+02  0.11429194492E+03  0.00000000000E+00 0. -1.
        -11    1    5    5    0    0 -0.56759384366E+02 -0.43828436915E+02 -0.18940680838E+03  0.20252777255E+03  0.00000000000E+00 0.  1.
          1    1    6    6  503    0 -0.44953869042E+02  0.14076844467E+03  0.20926473693E+03  0.25618027926E+03  0.00000000000E+00 0. -1.
         -1    1    6    6    0  503 -0.21618495231E+03  0.26592903234E+03  0.41123689299E+03  0.53532230104E+03  0.00000000000E+00 0.  1.
<mgrwt>
<rscale>  0 0.16317143E+04</rscale>
<asrwt>0</asrwt>
<pdfrwt beam="1">  1        2 0.15296784E+00 0.16317143E+04</pdfrwt>
<pdfrwt beam="2">  1       -1 0.10299150E+00 0.16317143E+04</pdfrwt>
<totfact> 0.24693926E+01</totfact>
</mgrwt>
</event>
<event>
12    6  0.1586493E-007  0.1684949E+04  0.7818608E-02  0.8769995E-01
         -1   -1    0    0    0  501 -0.00000000000E+00  0.00000000000E+00  0.13571951333E+04  0.13571951333E+04  0.00000000000E+00 0.  1.
          2   -1    0    0  501    0  0.00000000000E+00 -0.00000000000E+00 -0.52296332095E+03  0.52296332095E+03  0.00000000000E+00 0. -1.
         24    2    1    2    0    0  0.54501322003E+03 -0.24079747239E+03  0.39505224816E+03  0.71888747879E+03  0.75565174956E+02 0.  0.
        254    2    1    2    0    0 -0.54501322003E+03  0.24079747239E+03  0.43917956418E+03  0.11612709755E+04  0.89478978320E+03 0.  0.
         23    2    4    4    0    0 -0.24474262813E+03 -0.31874975297E+03  0.60666300592E+02  0.41659648455E+03  0.91497933713E+02 0.  0.
         23    2    4    4    0    0 -0.30027059190E+03  0.55954722537E+03  0.37851326358E+03  0.74467449090E+03  0.89511345132E+02 0.  0.
          4    1    3    3  502    0  0.26044051103E+03 -0.13717142658E+03  0.23294526444E+03  0.37537815105E+03  0.00000000000E+00 0. -1.
         -3    1    3    3    0  502  0.28457270899E+03 -0.10362604581E+03  0.16210698372E+03  0.34350932774E+03  0.00000000000E+00 0.  1.
         11    1    5    5    0    0 -0.46070803664E+01  0.28615167063E+01  0.10870212700E+02  0.12148044761E+02  0.00000000000E+00 0.  1.
        -11    1    5    5    0    0 -0.24013554776E+03 -0.32161126968E+03  0.49796087892E+02  0.40444843979E+03  0.00000000000E+00 0. -1.
          1    1    6    6  503    0 -0.22063716857E+03  0.31876987785E+03  0.22607779436E+03  0.44878298128E+03  0.00000000000E+00 0. -1.
         -1    1    6    6    0  503 -0.79633423328E+02  0.24077734752E+03  0.15243546922E+03  0.29589150962E+03  0.00000000000E+00 0.  1.
<mgrwt>
<rscale>  0 0.16849490E+04</rscale>
<asrwt>0</asrwt>
<pdfrwt beam="1">  1        2 0.80455896E-01 0.16849490E+04</pdfrwt>
<pdfrwt beam="2">  1       -1 0.20879925E+00 0.16849490E+04</pdfrwt>
<totfact> 0.83318736E+00</totfact>
</mgrwt>
</event>
<event>
12    6  0.1586493E-007  0.1746755E+04  0.7818608E-02  0.8735138E-01
         -1   -1    0    0    0  501 -0.00000000000E+00  0.00000000000E+00  0.95598464347E+03  0.95598464347E+03  0.00000000000E+00 0.  1.
          2   -1    0    0  501    0  0.00000000000E+00 -0.00000000000E+00 -0.79790868059E+03  0.79790868059E+03  0.00000000000E+00 0. -1.
         24    2    1    2    0    0  0.42025969994E+03 -0.47079141746E+03 -0.29414153449E+02  0.63657483241E+03  0.78099620254E+02 0.  0.
        254    2    1    2    0    0 -0.42025969994E+03  0.47079141746E+03  0.18749011633E+03  0.11173184917E+04  0.90276535928E+03 0.  0.
         23    2    4    4    0    0  0.18185131021E+03 -0.19567646455E+02  0.25992666152E+03  0.33210930795E+03  0.96342779938E+02 0.  0.
         23    2    4    4    0    0 -0.60211101015E+03  0.49035906392E+03 -0.72436545187E+02  0.78520918370E+03  0.91196101800E+02 0.  0.
          4    1    3    3  502    0  0.37518712333E+02 -0.78661530151E+02 -0.14973504045E+02  0.88427913716E+02  0.00000000000E+00 0. -1.
         -3    1    3    3    0  502  0.38274098761E+03 -0.39212988731E+03 -0.14440649404E+02  0.54814691869E+03  0.00000000000E+00 0.  1.
         11    1    5    5    0    0  0.59590605305E+02 -0.31094019584E+02  0.16082745184E+03  0.17430819706E+03  0.00000000000E+00 0.  1.
        -11    1    5    5    0    0  0.12226070490E+03  0.11526373129E+02  0.99099209675E+02  0.15780111089E+03  0.00000000000E+00 0. -1.
          2    1    6    6  503    0 -0.26292376579E+03  0.22054337383E+03 -0.77278023067E+02  0.35176722304E+03  0.00000000000E+00 0.  1.
         -2    1    6    6    0  503 -0.33918724436E+03  0.26981569009E+03  0.48414778796E+01  0.43344196066E+03  0.00000000000E+00 0. -1.
<mgrwt>
<rscale>  0 0.17467552E+04</rscale>
<asrwt>0</asrwt>
<pdfrwt beam="1">  1        2 0.12275518E+00 0.17467552E+04</pdfrwt>
<pdfrwt beam="2">  1       -1 0.14707456E+00 0.17467552E+04</pdfrwt>
<totfact> 0.13763241E+01</totfact>
</mgrwt>
</event>
<event>
12    6  0.1586493E-007  0.2292608E+04  0.7818608E-02  0.8480842E-01
         -1   -1    0    0    0  501 -0.00000000000E+00  0.00000000000E+00  0.48095201230E+03  0.48095201230E+03  0.00000000000E+00 0.  1.
          2   -1    0    0  501    0  0.00000000000E+00 -0.00000000000E+00 -0.27321069321E+04  0.27321069321E+04  0.00000000000E+00 0. -1.
         24    2    1    2    0    0  0.70793088416E+03 -0.66187449638E+03 -0.87954183907E+03  0.13112125077E+04  0.80252151779E+02 0.  0.
        254    2    1    2    0    0 -0.70793088416E+03  0.66187449638E+03 -0.13716130808E+04  0.19018464368E+04  0.89244240150E+03 0.  0.
         23    2    4    4    0    0 -0.21536979282E+03  0.68047802769E+03 -0.11434876418E+04  0.13510623222E+04  0.91492719739E+02 0.  0.
         23    2    4    4    0    0 -0.49256109133E+03 -0.18603531307E+02 -0.22812543896E+03  0.55078411453E+03  0.91429780981E+02 0.  0.
          2    1    3    3  502    0  0.36150434872E+03 -0.34840084452E+03 -0.40239808402E+03  0.64342269204E+03  0.00000000000E+00 0. -1.
         -1    1    3    3    0  502  0.34642653543E+03 -0.31347365186E+03 -0.47714375505E+03  0.66778981562E+03  0.00000000000E+00 0.  1.
         11    1    5    5    0    0 -0.14322506160E+03  0.53984827228E+03 -0.83734986872E+03  0.10065308629E+04  0.00000000000E+00 0. -1.
        -11    1    5    5    0    0 -0.72144731227E+02  0.14062975541E+03 -0.30613777307E+03  0.34453145931E+03  0.00000000000E+00 0.  1.
          3    1    6    6  503    0 -0.45828740331E+03 -0.16390707073E+02 -0.23571012728E+03  0.51561154313E+03  0.00000000000E+00 0. -1.
         -3    1    6    6    0  503 -0.34273688022E+02 -0.22128242346E+01  0.75846883238E+01  0.35172571398E+02  0.00000000000E+00 0.  1.
<mgrwt>
<rscale>  0 0.22926075E+04</rscale>
<asrwt>0</asrwt>
<pdfrwt beam="1">  1        2 0.42032415E+00 0.22926075E+04</pdfrwt>
<pdfrwt beam="2">  1       -1 0.73992617E-01 0.22926075E+04</pdfrwt>
<totfact> 0.48241558E+00</totfact>
</mgrwt>
</event>
<event>
12    6  0.1586493E-007  0.1297397E+04  0.7818608E-02  0.9031632E-01
          2   -1    0    0  501    0  0.00000000000E+00  0.00000000000E+00  0.44937907462E+03  0.44937907462E+03  0.00000000000E+00 0. -1.
         -1   -1    0    0    0  501 -0.00000000000E+00 -0.00000000000E+00 -0.93642559297E+03  0.93642559297E+03  0.00000000000E+00 0.  1.
         24    2    1    2    0    0  0.12797879578E+03  0.54968351957E+02 -0.44030603039E+03  0.46887375478E+03  0.81074691745E+02 0.  0.
        254    2    1    2    0    0 -0.12797879578E+03 -0.54968351957E+02 -0.46740487966E+02  0.91693091280E+03  0.90508426887E+03 0.  0.
         23    2    4    4    0    0 -0.20053072094E+02 -0.29575730548E+03  0.32606712157E+03  0.45111221966E+03  0.96477756565E+02 0.  0.
         23    2    4    4    0    0 -0.10792572369E+03  0.24078895352E+03 -0.37280760954E+03  0.46581869315E+03  0.91510978496E+02 0.  0.
          4    1    3    3  502    0  0.42472568217E+02 -0.20057639151E+02 -0.11347812922E+03  0.12281495735E+03  0.00000000000E+00 0. -1.
         -3    1    3    3    0  502  0.85506227566E+02  0.75025991108E+02 -0.32682790117E+03  0.34605879743E+03  0.00000000000E+00 0.  1.
         11    1    5    5    0    0  0.37738982049E+02 -0.81391107061E+02  0.95155714306E+02  0.13077978835E+03  0.00000000000E+00 0.  1.
        -11    1    5    5    0    0 -0.57792054143E+02 -0.21436619841E+03  0.23091140727E+03  0.32033243131E+03  0.00000000000E+00 0. -1.
          3    1    6    6  503    0  0.74402621637E+01  0.83911615179E+02 -0.12292699251E+03  0.14902201901E+03  0.00000000000E+00 0. -1.
         -3    1    6    6    0  503 -0.11536598585E+03  0.15687733834E+03 -0.24988061702E+03  0.31679667413E+03  0.00000000000E+00 0.  1.
<mgrwt>
<rscale>  0 0.12973975E+04</rscale>
<asrwt>0</asrwt>
<pdfrwt beam="1">  1        2 0.69135243E-01 0.12973975E+04</pdfrwt>
<pdfrwt beam="2">  1       -1 0.14406547E+00 0.12973975E+04</pdfrwt>
<totfact> 0.30369174E+01</totfact>
</mgrwt>
</event>
<event>
12    6  0.1586493E-007  0.1665382E+04  0.7818608E-02  0.8781358E-01
         -1   -1    0    0    0  501 -0.00000000000E+00  0.00000000000E+00  0.24759432991E+03  0.24759432991E+03  0.00000000000E+00 0.  1.
          2   -1    0    0  501    0  0.00000000000E+00 -0.00000000000E+00 -0.28004443000E+04  0.28004443000E+04  0.00000000000E+00 0. -1.
         24    2    1    2    0    0  0.28726380568E+03 -0.50998331384E+03 -0.79558538099E+03  0.99097338128E+03  0.80428039382E+02 0.  0.
        254    2    1    2    0    0 -0.28726380568E+03  0.50998331384E+03 -0.17572645891E+04  0.20570652487E+04  0.89494978998E+03 0.  0.
         23    2    4    4    0    0 -0.39764559628E+03 -0.12443693848E+02 -0.12510792046E+04  0.13159304914E+04  0.90537374953E+02 0.  0.
         23    2    4    4    0    0  0.11038179060E+03  0.52242700769E+03 -0.50618538450E+03  0.74113475723E+03  0.89123323742E+02 0.  0.
          2    1    3    3  502    0  0.40484123764E+02 -0.11495734929E+03 -0.20918391196E+03  0.24209928843E+03  0.00000000000E+00 0. -1.
         -1    1    3    3    0  502  0.24677968191E+03 -0.39502596455E+03 -0.58640146903E+03  0.74887409286E+03  0.00000000000E+00 0.  1.
         11    1    5    5    0    0 -0.19815921835E+03 -0.37341965357E+02 -0.52045338610E+03  0.55815161497E+03  0.00000000000E+00 0. -1.
        -11    1    5    5    0    0 -0.19948637793E+03  0.24898271509E+02 -0.73062581854E+03  0.75777887647E+03  0.00000000000E+00 0.  1.
          3    1    6    6  503    0  0.22442942427E+01  0.17347042634E+03 -0.19731489629E+03  0.26273597768E+03  0.00000000000E+00 0. -1.
         -3    1    6    6    0  503  0.10813749636E+03  0.34895658135E+03 -0.30887048821E+03  0.47839877955E+03  0.00000000000E+00 0.  1.
<mgrwt>
<rscale>  0 0.16653818E+04</rscale>
<asrwt>0</asrwt>
<pdfrwt beam="1">  1        2 0.43083758E+00 0.16653818E+04</pdfrwt>
<pdfrwt beam="2">  1       -1 0.38091436E-01 0.16653818E+04</pdfrwt>
<totfact> 0.16780914E+01</totfact>
</mgrwt>
</event>
<event>
12    6  0.1586493E-007  0.1561663E+04  0.7818608E-02  0.8844452E-01
          2   -1    0    0  501    0  0.00000000000E+00  0.00000000000E+00  0.39032558450E+04  0.39032558450E+04  0.00000000000E+00 0. -1.
         -1   -1    0    0    0  501 -0.00000000000E+00 -0.00000000000E+00 -0.15620233688E+03  0.15620233688E+03  0.00000000000E+00 0.  1.
         24    2    1    2    0    0  0.29065287534E+03 -0.22548571653E+03  0.22094214006E+04  0.22412554217E+04  0.79749842958E+02 0.  0.
        254    2    1    2    0    0 -0.29065287534E+03  0.22548571653E+03  0.15376321075E+04  0.18182027602E+04  0.89790081682E+03 0.  0.
         23    2    4    4    0    0 -0.59493969993E+03  0.23798602112E+03  0.11407051278E+04  0.13115661768E+04  0.91689992325E+02 0.  0.
         23    2    4    4    0    0  0.30428682458E+03 -0.12500304588E+02  0.39692697967E+03  0.50663658338E+03  0.79892873286E+02 0.  0.
          4    1    3    3  502    0  0.10207742579E+03 -0.89496215260E+02  0.10511991255E+04  0.10599287593E+04  0.00000000000E+00 0. -1.
         -3    1    3    3    0  502  0.18857544956E+03 -0.13598950127E+03  0.11582222751E+04  0.11813266624E+04  0.00000000000E+00 0.  1.
         11    1    5    5    0    0 -0.18484521575E+03  0.37191174830E+02  0.38339784214E+03  0.42725266836E+03  0.00000000000E+00 0. -1.
        -11    1    5    5    0    0 -0.41009448418E+03  0.20079484629E+03  0.75730728567E+03  0.88431350842E+03  0.00000000000E+00 0.  1.
          1    1    6    6  503    0  0.26430569819E+03  0.13117059019E+02  0.35827098985E+03  0.44540729844E+03  0.00000000000E+00 0. -1.
         -1    1    6    6    0  503  0.39981126399E+02 -0.25617363607E+02  0.38655989816E+02  0.61229284946E+02  0.00000000000E+00 0.  1.
<mgrwt>
<rscale>  0 0.15616628E+04</rscale>
<asrwt>0</asrwt>
<pdfrwt beam="1">  1        2 0.60050082E+00 0.15616628E+04</pdfrwt>
<pdfrwt beam="2">  1       -1 0.24031132E-01 0.15616628E+04</pdfrwt>
<totfact> 0.68404999E+00</totfact>
</mgrwt>
</event>
<event>
12    6  0.1586493E-007  0.1050105E+04  0.7818608E-02  0.9255235E-01
          4   -1    0    0  501    0  0.00000000000E+00  0.00000000000E+00  0.64792558649E+03  0.64792558649E+03  0.00000000000E+00 0. -1.
         -3   -1    0    0    0  501 -0.00000000000E+00 -0.00000000000E+00 -0.42548149103E+03  0.42548149103E+03  0.00000000000E+00 0.  1.
         24    2    1    2    0    0 -0.97747763263E+02 -0.25110656673E+02  0.31398992655E+02  0.13279704639E+03  0.80398933386E+02 0.  0.
        254    2    1    2    0    0  0.97747763263E+02  0.25110656673E+02  0.19104510281E+03  0.94061003113E+03  0.91545826178E+03 0.  0.
         23    2    4    4    0    0  0.17181586792E+03  0.44390727335E+03  0.12230348381E+03  0.49959030299E+03  0.89766190119E+02 0.  0.
         23    2    4    4    0    0 -0.74068104662E+02 -0.41879661668E+03  0.68741618997E+02  0.44101972814E+03  0.94320200152E+02 0.  0.
          4    1    3    3  502    0 -0.37631999743E+02 -0.11073440922E+02  0.54270733590E+02  0.66963430489E+02  0.00000000000E+00 0. -1.
         -3    1    3    3    0  502 -0.60115763519E+02 -0.14037215751E+02 -0.22871740935E+02  0.65833615904E+02  0.00000000000E+00 0.  1.
         11    1    5    5    0    0  0.71668115506E+02  0.29835794421E+03  0.63154784996E+02  0.31327672834E+03  0.00000000000E+00 0. -1.
        -11    1    5    5    0    0  0.10014775242E+03  0.14554932914E+03  0.59148698813E+02  0.18631357465E+03  0.00000000000E+00 0.  1.
          4    1    6    6  503    0 -0.26580921466E+02 -0.24224414139E+03  0.83478818965E+02  0.25759946164E+03  0.00000000000E+00 0. -1.
         -4    1    6    6    0  503 -0.47487183195E+02 -0.17655247529E+03 -0.14737199968E+02  0.18342026650E+03  0.00000000000E+00 0.  1.
<mgrwt>
<rscale>  0 0.10501054E+04</rscale>
<asrwt>0</asrwt>
<pdfrwt beam="1">  1        4 0.99680859E-01 0.10501054E+04</pdfrwt>
<pdfrwt beam="2">  1       -3 0.65458691E-01 0.10501054E+04</pdfrwt>
<totfact> 0.42644514E+00</totfact>
</mgrwt>
</event>
<event>
12    6  0.1586493E-007  0.1239719E+04  0.7818608E-02  0.9078784E-01
         -1   -1    0    0    0  501 -0.00000000000E+00  0.00000000000E+00  0.15994827026E+03  0.15994827026E+03  0.00000000000E+00 0.  1.
          2   -1    0    0  501    0  0.00000000000E+00 -0.00000000000E+00 -0.24021887813E+04  0.24021887813E+04  0.00000000000E+00 0. -1.
         24    2    1    2    0    0 -0.66911470613E+02  0.13695064947E+02 -0.11113069596E+04  0.11162908604E+04  0.80233576567E+02 0.  0.
        254    2    1    2    0    0  0.66911470613E+02 -0.13695064947E+02 -0.11309335514E+04  0.14458461912E+04  0.89821813111E+03 0.  0.
         23    2    4    4    0    0  0.41349086706E+03  0.11887168981E+03 -0.89124709695E+03  0.99390732698E+03  0.91788948210E+02 0.  0.
         23    2    4    4    0    0 -0.34657939645E+03 -0.13256675475E+03 -0.23968645450E+03  0.45193886420E+03  0.95435412714E+02 0.  0.
          4    1    3    3  502    0 -0.81947991361E+02  0.20198346334E+02 -0.77438580658E+03  0.77897164513E+03  0.00000000000E+00 0. -1.
         -3    1    3    3    0  502  0.15036520748E+02 -0.65032813865E+01 -0.33692115305E+03  0.33731921528E+03  0.00000000000E+00 0.  1.
         11    1    5    5    0    0  0.13583413392E+03  0.84922105253E+02 -0.32531754299E+03  0.36262126203E+03  0.00000000000E+00 0. -1.
        -11    1    5    5    0    0  0.27765673315E+03  0.33949584553E+02 -0.56592955396E+03  0.63128606495E+03  0.00000000000E+00 0.  1.
          1    1    6    6  503    0 -0.15055156375E+02 -0.10808619334E+02  0.83886879477E+01  0.20343403621E+02  0.00000000000E+00 0. -1.
         -1    1    6    6    0  503 -0.33152424007E+03 -0.12175813542E+03 -0.24807514245E+03  0.43159546058E+03  0.00000000000E+00 0.  1.
<mgrwt>
<rscale>  0 0.12397192E+04</rscale>
<asrwt>0</asrwt>
<pdfrwt beam="1">  1        2 0.36956750E+00 0.12397192E+04</pdfrwt>
<pdfrwt beam="2">  1       -1 0.24607427E-01 0.12397192E+04</pdfrwt>
<totfact> 0.64248368E+01</totfact>
</mgrwt>
</event>
<event>
12    6  0.1586493E-007  0.2252142E+04  0.7818608E-02  0.8497033E-01
          2   -1    0    0  501    0  0.00000000000E+00  0.00000000000E+00  0.17822183574E+04  0.17822183574E+04  0.00000000000E+00 0. -1.
         -1   -1    0    0    0  501 -0.00000000000E+00 -0.00000000000E+00 -0.71149311477E+03  0.71149311477E+03  0.00000000000E+00 0.  1.
         24    2    1    2    0    0 -0.58277217891E+03 -0.73285377505E+03  0.60703044585E+03  0.11184439393E+04  0.75715355703E+02 0.  0.
        254    2    1    2    0    0  0.58277217891E+03  0.73285377505E+03  0.46369479676E+03  0.13752675328E+04  0.89423143212E+03 0.  0.
         23    2    4    4    0    0  0.53943827453E+03  0.78213043727E+02  0.44924238349E+03  0.71280859393E+03  0.95741528203E+02 0.  0.
         23    2    4    4    0    0  0.43333904384E+02  0.65464073132E+03  0.14452413269E+02  0.66245893889E+03  0.90612687291E+02 0.  0.
          4    1    3    3  502    0 -0.43741970162E+03 -0.51913952110E+03  0.40590189324E+03  0.79094764976E+03  0.00000000000E+00 0. -1.
         -3    1    3    3    0  502 -0.14535247730E+03 -0.21371425395E+03  0.20112855261E+03  0.32749628956E+03  0.00000000000E+00 0.  1.
         11    1    5    5    0    0  0.28101673975E+03  0.53699718626E+02  0.17590318096E+03  0.33585115285E+03  0.00000000000E+00 0. -1.
        -11    1    5    5    0    0  0.25842153478E+03  0.24513325101E+02  0.27333920253E+03  0.37695744108E+03  0.00000000000E+00 0.  1.
          3    1    6    6  503    0 -0.80944462584E+01  0.24227546672E+03  0.41851202402E+02  0.24599683936E+03  0.00000000000E+00 0. -1.
         -3    1    6    6    0  503  0.51428350643E+02  0.41236526460E+03 -0.27398789133E+02  0.41646209953E+03  0.00000000000E+00 0.  1.
<mgrwt>
<rscale>  0 0.22521422E+04</rscale>
<asrwt>0</asrwt>
<pdfrwt beam="1">  1        2 0.27418744E+00 0.22521422E+04</pdfrwt>
<pdfrwt beam="2">  1       -1 0.10946048E+00 0.22521422E+04</pdfrwt>
<totfact> 0.70624262E+00</totfact>
</mgrwt>
</event>
<event>
12    6  0.1586493E-007  0.2581788E+04  0.7818608E-02  0.8374414E-01
          2   -1    0    0  501    0  0.00000000000E+00  0.00000000000E+00  0.17400143826E+04  0.17400143826E+04  0.00000000000E+00 0. -1.
         -1   -1    0    0    0  501 -0.00000000000E+00 -0.00000000000E+00 -0.95769760954E+03  0.95769760954E+03  0.00000000000E+00 0.  1.
         24    2    1    2    0    0  0.95467857506E+03 -0.58212534460E+03  0.14465715378E+03  0.11301191407E+04  0.77217107037E+02 0.  0.
        254    2    1    2    0    0 -0.95467857506E+03  0.58212534460E+03  0.63765961924E+03  0.15675928514E+04  0.89468232304E+03 0.  0.
         23    2    4    4    0    0 -0.44574555913E+03  0.25322882899E+02 -0.14381521139E+03  0.47761565516E+03  0.90019704176E+02 0.  0.
         23    2    4    4    0    0 -0.50893301592E+03  0.55680246170E+03  0.78147483063E+03  0.10899771962E+04  0.91134961980E+02 0.  0.
          4    1    3    3  502    0  0.26779980624E+03 -0.13420475294E+03  0.62458833217E+02  0.30598816608E+03  0.00000000000E+00 0. -1.
         -3    1    3    3    0  502  0.68687876881E+03 -0.44792059166E+03  0.82198320566E+02  0.82413097465E+03  0.00000000000E+00 0.  1.
         11    1    5    5    0    0 -0.14982240978E+03  0.31976679116E+02 -0.12219925903E+02  0.15368340531E+03  0.00000000000E+00 0.  1.
        -11    1    5    5    0    0 -0.29592314936E+03 -0.66537962169E+01 -0.13159528549E+03  0.32393224985E+03  0.00000000000E+00 0. -1.
          2    1    6    6  503    0 -0.18537692548E+03  0.22751464029E+03  0.36388105509E+03  0.46747934531E+03  0.00000000000E+00 0.  1.
         -2    1    6    6    0  503 -0.32355609045E+03  0.32928782141E+03  0.41759377554E+03  0.62249785090E+03  0.00000000000E+00 0. -1.
<mgrwt>
<rscale>  0 0.25817882E+04</rscale>
<asrwt>0</asrwt>
<pdfrwt beam="1">  1        2 0.26769452E+00 0.25817882E+04</pdfrwt>
<pdfrwt beam="2">  1       -1 0.14733809E+00 0.25817882E+04</pdfrwt>
<totfact> 0.34399676E+00</totfact>
</mgrwt>
</event>
<event>
12    6  0.1586493E-007  0.1141724E+04  0.7818608E-02  0.9165453E-01
         -1   -1    0    0    0  501 -0.00000000000E+00  0.00000000000E+00  0.19417091643E+03  0.19417091643E+03  0.00000000000E+00 0.  1.
          2   -1    0    0  501    0  0.00000000000E+00 -0.00000000000E+00 -0.16783316794E+04  0.16783316794E+04  0.00000000000E+00 0. -1.
         24    2    1    2    0    0  0.71795907909E+02  0.18594450114E+03 -0.31733431216E+03  0.38346185770E+03  0.81313717996E+02 0.  0.
        254    2    1    2    0    0 -0.71795907909E+02 -0.18594450114E+03 -0.11668264508E+04  0.14890407382E+04  0.90334287158E+03 0.  0.
         23    2    4    4    0    0  0.16857984245E+03 -0.11725889458E+03  0.58381335721E+02  0.23525361883E+03  0.98828503859E+02 0.  0.
         23    2    4    4    0    0 -0.24037575036E+03 -0.68685606566E+02 -0.12252077866E+04  0.12537871193E+04  0.91377275325E+02 0.  0.
          4    1    3    3  502    0  0.57518916636E+02  0.44381066265E+02 -0.97238968301E+02  0.12138171926E+03  0.00000000000E+00 0. -1.
         -3    1    3    3    0  502  0.14276991273E+02  0.14156343488E+03 -0.22009534386E+03  0.26208013844E+03  0.00000000000E+00 0.  1.
         11    1    5    5    0    0  0.83904624047E+02 -0.31174609904E+02 -0.19444922694E+02  0.91596655276E+02  0.00000000000E+00 0. -1.
        -11    1    5    5    0    0  0.84675218402E+02 -0.86084284671E+02  0.77826258415E+02  0.14365696355E+03  0.00000000000E+00 0.  1.
          1    1    6    6  503    0 -0.88683967519E+01  0.12312833699E+02 -0.29395020564E+02  0.33080531565E+02  0.00000000000E+00 0. -1.
         -1    1    6    6    0  503 -0.23150735361E+03 -0.80998440265E+02 -0.11958127660E+04  0.12207065878E+04  0.00000000000E+00 0.  1.
<mgrwt>
<rscale>  0 0.11417236E+04</rscale>
<asrwt>0</asrwt>
<pdfrwt beam="1">  1        2 0.25820487E+00 0.11417236E+04</pdfrwt>
<pdfrwt beam="2">  1       -1 0.29872449E-01 0.11417236E+04</pdfrwt>
<totfact> 0.11694480E+02</totfact>
</mgrwt>
</event>
<event>
12    6  0.1586493E-007  0.1189779E+04  0.7818608E-02  0.9121850E-01
          2   -1    0    0  501    0  0.00000000000E+00  0.00000000000E+00  0.10923054761E+04  0.10923054761E+04  0.00000000000E+00 0. -1.
         -1   -1    0    0    0  501 -0.00000000000E+00 -0.00000000000E+00 -0.32398791969E+03  0.32398791969E+03  0.00000000000E+00 0.  1.
         24    2    1    2    0    0 -0.57228039259E+02  0.11481822498E+02 -0.12206036405E+03  0.15625425986E+03  0.78165085090E+02 0.  0.
        254    2    1    2    0    0  0.57228039259E+02 -0.11481822498E+02  0.89037792042E+03  0.12600391359E+04  0.88967348061E+03 0.  0.
         23    2    4    4    0    0  0.22834719652E+03  0.34639941704E+03  0.22508288601E+03  0.48014494115E+03  0.87987843770E+02 0.  0.
         23    2    4    4    0    0 -0.17111915726E+03 -0.35788123954E+03  0.66529503441E+03  0.77989419475E+03  0.90866520759E+02 0.  0.
          2    1    3    3  502    0  0.18590015695E+02  0.97308809121E+01 -0.19068709667E+02  0.28353031852E+02  0.00000000000E+00 0. -1.
         -1    1    3    3    0  502 -0.75818054954E+02  0.17509415855E+01 -0.10299165438E+03  0.12790122801E+03  0.00000000000E+00 0.  1.
         11    1    5    5    0    0  0.21023144277E+03  0.34125355082E+03  0.22794431786E+03  0.46109636468E+03  0.00000000000E+00 0. -1.
        -11    1    5    5    0    0  0.18115753755E+02  0.51458662251E+01 -0.28614318563E+01  0.19048576471E+02  0.00000000000E+00 0.  1.
          4    1    6    6  503    0 -0.12768987775E+03 -0.32083591855E+03  0.60672405998E+03  0.69810778285E+03  0.00000000000E+00 0. -1.
         -4    1    6    6    0  503 -0.43429279513E+02 -0.37045320985E+02  0.58570974432E+02  0.81786411902E+02  0.00000000000E+00 0.  1.
<mgrwt>
<rscale>  0 0.11897794E+04</rscale>
<asrwt>0</asrwt>
<pdfrwt beam="1">  1        2 0.16804699E+00 0.11897794E+04</pdfrwt>
<pdfrwt beam="2">  1       -1 0.49844296E-01 0.11897794E+04</pdfrwt>
<totfact> 0.10010845E+02</totfact>
</mgrwt>
</event>
<event>
12    6  0.1586493E-007  0.2234041E+04  0.7818608E-02  0.8504392E-01
         -1   -1    0    0    0  501 -0.00000000000E+00  0.00000000000E+00  0.85466915002E+03  0.85466915002E+03  0.00000000000E+00 0.  1.
          2   -1    0    0  501    0  0.00000000000E+00 -0.00000000000E+00 -0.14599035517E+04  0.14599035517E+04  0.00000000000E+00 0. -1.
         24    2    1    2    0    0 -0.63987505960E+03 -0.81601268571E+02 -0.94967975334E+03  0.11508084736E+04  0.79810087163E+02 0.  0.
        254    2    1    2    0    0  0.63987505960E+03  0.81601268571E+02  0.34444535165E+03  0.11637642282E+04  0.90532078267E+03 0.  0.
         23    2    4    4    0    0 -0.82523363710E+01  0.29980371800E+03  0.35508258399E+03  0.47350409433E+03  0.90399753926E+02 0.  0.
         23    2    4    4    0    0  0.64812739597E+03 -0.21820244943E+03 -0.10637232342E+02  0.69026013383E+03  0.93083141853E+02 0.  0.
          2    1    3    3  502    0 -0.58773881208E+03 -0.70630606451E+02 -0.90428974956E+03  0.10808170728E+04  0.00000000000E+00 0. -1.
         -3    1    3    3    0  502 -0.52136247521E+02 -0.10970662120E+02 -0.45390003782E+02  0.69991400731E+02  0.00000000000E+00 0.  1.
         11    1    5    5    0    0  0.75221188279E+01  0.16750726847E+03  0.26167985347E+03  0.31079191266E+03  0.00000000000E+00 0. -1.
        -11    1    5    5    0    0 -0.15774455199E+02  0.13229644953E+03  0.93402730518E+02  0.16271218167E+03  0.00000000000E+00 0.  1.
          1    1    6    6  503    0  0.53382391945E+03 -0.14223222048E+03 -0.18837101822E+02  0.55276832211E+03  0.00000000000E+00 0. -1.
         -1    1    6    6    0  503  0.11430347651E+03 -0.75970228946E+02  0.81998694795E+01  0.13749181172E+03  0.00000000000E+00 0.  1.
<mgrwt>
<rscale>  0 0.22340408E+04</rscale>
<asrwt>0</asrwt>
<pdfrwt beam="1">  1        2 0.22460054E+00 0.22340408E+04</pdfrwt>
<pdfrwt beam="2">  1       -1 0.13148756E+00 0.22340408E+04</pdfrwt>
<totfact> 0.68442756E+00</totfact>
</mgrwt>
</event>
<event>
12    6  0.1586493E-007  0.2219653E+04  0.7818608E-02  0.8510292E-01
          2   -1    0    0  501    0  0.00000000000E+00  0.00000000000E+00  0.11227540004E+04  0.11227540004E+04  0.00000000000E+00 0. -1.
         -1   -1    0    0    0  501 -0.00000000000E+00 -0.00000000000E+00 -0.10970483244E+04  0.10970483244E+04  0.00000000000E+00 0.  1.
         24    2    1    2    0    0  0.49444324045E+03 -0.51646509044E+03  0.60503089945E+03  0.93994223115E+03  0.78858740377E+02 0.  0.
        254    2    1    2    0    0 -0.49444324045E+03  0.51646509044E+03 -0.57932522350E+03  0.12798600936E+04  0.88950201627E+03 0.  0.
         23    2    4    4    0    0  0.11866163870E+02  0.58853855747E+03 -0.17326127394E+03  0.62031970731E+03  0.90877008962E+02 0.  0.
         23    2    4    4    0    0 -0.50630940432E+03 -0.72073467031E+02 -0.40606394956E+03  0.65954038629E+03  0.92529954390E+02 0.  0.
          4    1    3    3  502    0  0.49721718781E+03 -0.51511506964E+03  0.60400455028E+03  0.93669096482E+03  0.00000000000E+00 0. -1.
         -3    1    3    3    0  502 -0.27739473578E+01 -0.13500208042E+01  0.10263491749E+01  0.32512663294E+01  0.00000000000E+00 0.  1.
         11    1    5    5    0    0 -0.22121505686E+02  0.48056724060E+03 -0.15649585206E+03  0.50589048762E+03  0.00000000000E+00 0.  1.
        -11    1    5    5    0    0  0.33987669557E+02  0.10797131688E+03 -0.16765421880E+02  0.11442921970E+03  0.00000000000E+00 0. -1.
          2    1    6    6  503    0 -0.18201756307E+03 -0.26020419441E+02 -0.91376155047E+02  0.20532183811E+03  0.00000000000E+00 0.  1.
         -2    1    6    6    0  503 -0.32429184126E+03 -0.46053047590E+02 -0.31468779451E+03  0.45421854818E+03  0.00000000000E+00 0. -1.
<mgrwt>
<rscale>  0 0.22196535E+04</rscale>
<asrwt>0</asrwt>
<pdfrwt beam="1">  1        2 0.17273138E+00 0.22196535E+04</pdfrwt>
<pdfrwt beam="2">  1       -1 0.16877667E+00 0.22196535E+04</pdfrwt>
<totfact> 0.55142101E+00</totfact>
</mgrwt>
</event>
<event>
12    6  0.1586493E-007  0.1649940E+04  0.7818608E-02  0.8790442E-01
          2   -1    0    0  501    0  0.00000000000E+00  0.00000000000E+00  0.46682906308E+03  0.46682906308E+03  0.00000000000E+00 0. -1.
         -1   -1    0    0    0  501 -0.00000000000E+00 -0.00000000000E+00 -0.14578686743E+04  0.14578686743E+04  0.00000000000E+00 0.  1.
         24    2    1    2    0    0  0.40069522662E+03 -0.91463489253E+02 -0.70283285100E+03  0.81812755359E+03  0.80227445393E+02 0.  0.
        254    2    1    2    0    0 -0.40069522662E+03  0.91463489253E+02 -0.28820676018E+03  0.11065701837E+04  0.98616033202E+03 0.  0.
         23    2    4    4    0    0 -0.17383974365E+03  0.21845214227E+03 -0.61351823533E+03  0.68018402294E+03  0.91126752662E+02 0.  0.
         23    2    4    4    0    0 -0.22685548298E+03 -0.12698865302E+03  0.32531147514E+03  0.42638616081E+03  0.91586429773E+02 0.  0.
          2    1    3    3  502    0  0.61794712720E+01 -0.10549569090E+02 -0.46556501074E+02  0.48135091830E+02  0.00000000000E+00 0. -1.
         -1    1    3    3    0  502  0.39451575535E+03 -0.80913920163E+02 -0.65627634993E+03  0.76999246176E+03  0.00000000000E+00 0.  1.
         11    1    5    5    0    0 -0.12358775414E+03  0.12497863584E+03 -0.28392615669E+03  0.33392761916E+03  0.00000000000E+00 0.  1.
        -11    1    5    5    0    0 -0.50251989507E+02  0.93473506433E+02 -0.32959207864E+03  0.34625640378E+03  0.00000000000E+00 0. -1.
          1    1    6    6  503    0 -0.23080601028E+03 -0.13432389817E+03  0.31838279811E+03  0.41555015358E+03  0.00000000000E+00 0. -1.
         -1    1    6    6    0  503  0.39505273071E+01  0.73352451491E+01  0.69286770275E+01  0.10836007233E+02  0.00000000000E+00 0.  1.
<mgrwt>
<rscale>  0 0.16499400E+04</rscale>
<asrwt>0</asrwt>
<pdfrwt beam="1">  1        2 0.71819856E-01 0.16499400E+04</pdfrwt>
<pdfrwt beam="2">  1       -1 0.22428749E+00 0.16499400E+04</pdfrwt>
<totfact> 0.75011138E+00</totfact>
</mgrwt>
</event>
<event>
12    6  0.1586493E-007  0.1725658E+04  0.7818608E-02  0.8746865E-01
         -1   -1    0    0    0  501 -0.00000000000E+00  0.00000000000E+00  0.27065833898E+03  0.27065833898E+03  0.00000000000E+00 0.  1.
          2   -1    0    0  501    0  0.00000000000E+00 -0.00000000000E+00 -0.27506025650E+04  0.27506025650E+04  0.00000000000E+00 0. -1.
         24    2    1    2    0    0  0.26051279754E+03  0.21483511372E+03 -0.18190664884E+04  0.18525248073E+04  0.93937365337E+02 0.  0.
        254    2    1    2    0    0 -0.26051279754E+03 -0.21483511372E+03 -0.66087773764E+03  0.11687360967E+04  0.90286412924E+03 0.  0.
         23    2    4    4    0    0  0.11829876397E+03 -0.44296830382E+03 -0.16044886741E+03  0.49436521220E+03  0.91856454492E+02 0.  0.
         23    2    4    4    0    0 -0.37881156151E+03  0.22813319010E+03 -0.50042887024E+03  0.67437088451E+03  0.93830081296E+02 0.  0.
          2    1    3    3  502    0  0.24181969592E+03  0.22387898491E+03 -0.16961930699E+04  0.17279089952E+04  0.00000000000E+00 0. -1.
         -1    1    3    3    0  502  0.18693101623E+02 -0.90438711852E+01 -0.12287341846E+03  0.12461581207E+03  0.00000000000E+00 0.  1.
         11    1    5    5    0    0 -0.84114734062E+01 -0.11517968114E+03 -0.51396659230E+02  0.12640699511E+03  0.00000000000E+00 0.  1.
        -11    1    5    5    0    0  0.12671023737E+03 -0.32778862268E+03 -0.10905220818E+03  0.36795821709E+03  0.00000000000E+00 0. -1.
          3    1    6    6  503    0 -0.38269393309E+03  0.21927631642E+03 -0.49597896804E+03  0.66372576122E+03  0.00000000000E+00 0. -1.
         -3    1    6    6    0  503  0.38823715809E+01  0.88568736785E+01 -0.44499022006E+01  0.10645123299E+02  0.00000000000E+00 0.  1.
<mgrwt>
<rscale>  0 0.17256576E+04</rscale>
<asrwt>0</asrwt>
<pdfrwt beam="1">  1        2 0.42316962E+00 0.17256576E+04</pdfrwt>
<pdfrwt beam="2">  1       -1 0.41639745E-01 0.17256576E+04</pdfrwt>
<totfact> 0.15192072E+01</totfact>
</mgrwt>
</event>
<event>
12    6  0.1586493E-007  0.1683209E+04  0.7818608E-02  0.8770999E-01
         -1   -1    0    0    0  501 -0.00000000000E+00  0.00000000000E+00  0.29318916719E+03  0.29318916719E+03  0.00000000000E+00 0.  1.
          2   -1    0    0  501    0  0.00000000000E+00 -0.00000000000E+00 -0.24158401220E+04  0.24158401220E+04  0.00000000000E+00 0. -1.
         24    2    1    2    0    0 -0.65288831496E+02  0.46357386390E+02  0.19086787110E+03  0.22209287242E+03  0.80517457550E+02 0.  0.
        254    2    1    2    0    0  0.65288831496E+02 -0.46357386390E+02 -0.23135188259E+04  0.24869364167E+04  0.90888489062E+03 0.  0.
         23    2    4    4    0    0  0.30148059771E+03  0.28376089760E+02 -0.24483556565E+03  0.40139797014E+03  0.97365922984E+02 0.  0.
         23    2    4    4    0    0 -0.23619176621E+03 -0.74733476150E+02 -0.20686832602E+04  0.20855384466E+04  0.92997517127E+02 0.  0.
          4    1    3    3  502    0 -0.32014811928E+02  0.14130604691E+02  0.11493237624E+02  0.36833635210E+02  0.00000000000E+00 0. -1.
         -3    1    3    3    0  502 -0.33274019568E+02  0.32226781698E+02  0.17937463348E+03  0.18525923721E+03  0.00000000000E+00 0.  1.
         11    1    5    5    0    0  0.16957150127E+03  0.38943026321E+02 -0.19146788760E+03  0.25871027294E+03  0.00000000000E+00 0. -1.
        -11    1    5    5    0    0  0.13190909644E+03 -0.10566936561E+02 -0.53367678051E+02  0.14268769720E+03  0.00000000000E+00 0.  1.
          3    1    6    6  503    0 -0.20014641182E+03 -0.54109185002E+02 -0.13676448115E+04  0.13832710220E+04  0.00000000000E+00 0. -1.
         -3    1    6    6    0  503 -0.36045354399E+02 -0.20624291149E+02 -0.70103844874E+03  0.70226742454E+03  0.00000000000E+00 0.  1.
<mgrwt>
<rscale>  0 0.16832090E+04</rscale>
<asrwt>0</asrwt>
<pdfrwt beam="1">  1        2 0.37166771E+00 0.16832090E+04</pdfrwt>
<pdfrwt beam="2">  1       -1 0.45106026E-01 0.16832090E+04</pdfrwt>
<totfact> 0.20623543E+01</totfact>
</mgrwt>
</event>
<event>
12    6  0.1586493E-007  0.2070376E+04  0.7818608E-02  0.8574406E-01
          2   -1    0    0  501    0  0.00000000000E+00  0.00000000000E+00  0.31611726452E+04  0.31611726452E+04  0.00000000000E+00 0. -1.
         -1   -1    0    0    0  501 -0.00000000000E+00 -0.00000000000E+00 -0.33899258115E+03  0.33899258115E+03  0.00000000000E+00 0.  1.
         24    2    1    2    0    0 -0.35967717861E+01 -0.37849680153E+03 -0.83540207373E+02  0.39269744050E+03  0.62924939341E+02 0.  0.
        254    2    1    2    0    0  0.35967717861E+01  0.37849680153E+03  0.29057202714E+04  0.31074677858E+04  0.10343466435E+04 0.  0.
         23    2    4    4    0    0  0.21147359504E+03  0.33917827104E+03  0.28370724573E+04  0.28666081146E+04  0.93268290967E+02 0.  0.
         23    2    4    4    0    0 -0.20787682325E+03  0.39318530489E+02  0.68647814119E+02  0.24085967120E+03  0.92423689288E+02 0.  0.
          4    1    3    3  502    0  0.25311072104E+02 -0.82849214695E+02 -0.17114707220E+02  0.88303770870E+02  0.00000000000E+00 0. -1.
         -3    1    3    3    0  502 -0.28907843890E+02 -0.29564758683E+03 -0.66425500153E+02  0.30439366963E+03  0.00000000000E+00 0.  1.
         11    1    5    5    0    0  0.13494082462E+03  0.20203528966E+03  0.13938748039E+04  0.14148901912E+04  0.00000000000E+00 0. -1.
        -11    1    5    5    0    0  0.76532770417E+02  0.13714298138E+03  0.14431976534E+04  0.14517179234E+04  0.00000000000E+00 0.  1.
          1    1    6    6  503    0 -0.32456658662E+02  0.85689599322E+01  0.52126352496E+02  0.62000148309E+02  0.00000000000E+00 0. -1.
         -1    1    6    6    0  503 -0.17542016459E+03  0.30749570556E+02  0.16521461623E+02  0.17885952289E+03  0.00000000000E+00 0.  1.
<mgrwt>
<rscale>  0 0.20703759E+04</rscale>
<asrwt>0</asrwt>
<pdfrwt beam="1">  1        2 0.48633423E+00 0.20703759E+04</pdfrwt>
<pdfrwt beam="2">  1       -1 0.52152707E-01 0.20703759E+04</pdfrwt>
<totfact> 0.53648888E+00</totfact>
</mgrwt>
</event>
<event>
12    6  0.1586493E-007  0.1819830E+04  0.7818608E-02  0.8695825E-01
         -1   -1    0    0    0  501 -0.00000000000E+00  0.00000000000E+00  0.54899403826E+03  0.54899403826E+03  0.00000000000E+00 0.  1.
          2   -1    0    0  501    0  0.00000000000E+00 -0.00000000000E+00 -0.15081132776E+04  0.15081132776E+04  0.00000000000E+00 0. -1.
         24    2    1    2    0    0  0.22061733477E+03  0.62890807049E+03 -0.19704051910E+03  0.69956773424E+03  0.79829061730E+02 0.  0.
        254    2    1    2    0    0 -0.22061733477E+03 -0.62890807049E+03 -0.76207872028E+03  0.13575395817E+04  0.90440719278E+03 0.  0.
         23    2    4    4    0    0 -0.48103678604E+03 -0.48252511667E+03 -0.20284548983E+03  0.71693277943E+03  0.92840937839E+02 0.  0.
         23    2    4    4    0    0  0.26041945127E+03 -0.14638295382E+03 -0.55923323045E+03  0.64060680223E+03  0.91591534833E+02 0.  0.
          4    1    3    3  502    0  0.28650811927E+02  0.12818053583E+03 -0.10407601450E+02  0.13175521605E+03  0.00000000000E+00 0. -1.
         -1    1    3    3    0  502  0.19196652285E+03  0.50072753466E+03 -0.18663291765E+03  0.56781251819E+03  0.00000000000E+00 0.  1.
         11    1    5    5    0    0 -0.11288623019E+03 -0.80730708389E+02 -0.72626717949E+02  0.15663776174E+03  0.00000000000E+00 0. -1.
        -11    1    5    5    0    0 -0.36815055586E+03 -0.40179440828E+03 -0.13021877188E+03  0.56029501769E+03  0.00000000000E+00 0.  1.
          1    1    6    6  503    0  0.34504395669E+02 -0.59965848448E+02 -0.15103920165E+03  0.16613036067E+03  0.00000000000E+00 0. -1.
         -1    1    6    6    0  503  0.22591505560E+03 -0.86417105372E+02 -0.40819402880E+03  0.47447644156E+03  0.00000000000E+00 0.  1.
<mgrwt>
<rscale>  0 0.18198299E+04</rscale>
<asrwt>0</asrwt>
<pdfrwt beam="1">  1        2 0.23201743E+00 0.18198299E+04</pdfrwt>
<pdfrwt beam="2">  1       -1 0.84460622E-01 0.18198299E+04</pdfrwt>
<totfact> 0.18726041E+01</totfact>
</mgrwt>
</event>
<event>
12    6  0.1586493E-007  0.1610475E+04  0.7818608E-02  0.8814139E-01
          2   -1    0    0  501    0  0.00000000000E+00  0.00000000000E+00  0.14452293022E+04  0.14452293022E+04  0.00000000000E+00 0. -1.
         -1   -1    0    0    0  501 -0.00000000000E+00 -0.00000000000E+00 -0.44865342134E+03  0.44865342134E+03  0.00000000000E+00 0.  1.
         24    2    1    2    0    0 -0.31709130710E+03  0.44973943903E+03  0.37686345047E+03  0.67191178737E+03  0.81405955815E+02 0.  0.
        254    2    1    2    0    0  0.31709130710E+03 -0.44973943903E+03  0.61971243042E+03  0.12219709362E+04  0.89797383728E+03 0.  0.
         23    2    4    4    0    0  0.37370155751E+03  0.62448886906E+02 -0.24493355333E+02  0.39178959948E+03  0.96677030624E+02 0.  0.
         23    2    4    4    0    0 -0.56610250409E+02 -0.51218832594E+03  0.64420578576E+03  0.83018133672E+03  0.93050286158E+02 0.  0.
          4    1    3    3  502    0 -0.23999961931E+03  0.37359048158E+03  0.26978053443E+03  0.51956828421E+03  0.00000000000E+00 0. -1.
         -3    1    3    3    0  502 -0.77091687792E+02  0.76148957453E+02  0.10708291604E+03  0.15234350316E+03  0.00000000000E+00 0.  1.
         11    1    5    5    0    0  0.29266381548E+03  0.75315209709E+02  0.10976041866E+02  0.30239868253E+03  0.00000000000E+00 0.  1.
        -11    1    5    5    0    0  0.81037742031E+02 -0.12866322803E+02 -0.35469397198E+02  0.89390916952E+02  0.00000000000E+00 0. -1.
          2    1    6    6  503    0 -0.48096896701E+00 -0.37558780831E+03  0.47624300280E+03  0.60652603472E+03  0.00000000000E+00 0.  1.
         -2    1    6    6    0  503 -0.56129281442E+02 -0.13660051763E+03  0.16796278295E+03  0.22365530199E+03  0.00000000000E+00 0. -1.
<mgrwt>
<rscale>  0 0.16104746E+04</rscale>
<asrwt>0</asrwt>
<pdfrwt beam="1">  1        2 0.22234297E+00 0.16104746E+04</pdfrwt>
<pdfrwt beam="2">  1       -1 0.69023604E-01 0.16104746E+04</pdfrwt>
<totfact> 0.31617928E+01</totfact>
</mgrwt>
</event>
<event>
12    6  0.1586493E-007  0.1564850E+04  0.7818608E-02  0.8842438E-01
         -1   -1    0    0    0  501 -0.00000000000E+00  0.00000000000E+00  0.39212382344E+03  0.39212382344E+03  0.00000000000E+00 0.  1.
          2   -1    0    0  501    0  0.00000000000E+00 -0.00000000000E+00 -0.15612129456E+04  0.15612129456E+04  0.00000000000E+00 0. -1.
         24    2    1    2    0    0 -0.51037816014E+03 -0.10931988004E+03 -0.48878322888E+03  0.71938754464E+03  0.78566481573E+02 0.  0.
        254    2    1    2    0    0  0.51037816014E+03  0.10931988004E+03 -0.68030589327E+03  0.12339492244E+04  0.88734315652E+03 0.  0.
         23    2    4    4    0    0  0.82596156068E+02 -0.30644651682E+03 -0.71602911540E+01  0.33023262191E+03  0.90943510670E+02 0.  0.
         23    2    4    4    0    0  0.42778200407E+03  0.41576639687E+03 -0.67314560211E+03  0.90371660248E+03  0.87861004873E+02 0.  0.
          4    1    3    3  502    0 -0.37554020153E+03 -0.97072467152E+02 -0.40170946607E+03  0.55841203602E+03  0.00000000000E+00 0. -1.
         -3    1    3    3    0  502 -0.13483795861E+03 -0.12247412893E+02 -0.87073762811E+02  0.16097550862E+03  0.00000000000E+00 0.  1.
         11    1    5    5    0    0  0.43258387382E+02 -0.27385695145E+03 -0.18628258454E+02  0.27787754488E+03  0.00000000000E+00 0. -1.
        -11    1    5    5    0    0  0.39337768686E+02 -0.32589565370E+02  0.11467967300E+02  0.52355077024E+02  0.00000000000E+00 0.  1.
          4    1    6    6  503    0  0.16879316516E+03  0.14389352345E+03 -0.19173626838E+03  0.29318812273E+03  0.00000000000E+00 0. -1.
         -4    1    6    6    0  503  0.25898883891E+03  0.27187287341E+03 -0.48140933373E+03  0.61052847975E+03  0.00000000000E+00 0.  1.
<mgrwt>
<rscale>  0 0.15648499E+04</rscale>
<asrwt>0</asrwt>
<pdfrwt beam="1">  1        2 0.24018661E+00 0.15648499E+04</pdfrwt>
<pdfrwt beam="2">  1       -1 0.60326741E-01 0.15648499E+04</pdfrwt>
<totfact> 0.35788317E+01</totfact>
</mgrwt>
</event>
<event>
12    6  0.1586493E-007  0.1442506E+04  0.7818608E-02  0.8923612E-01
         -1   -1    0    0    0  501 -0.00000000000E+00  0.00000000000E+00  0.87631265432E+03  0.87631265432E+03  0.00000000000E+00 0.  1.
          2   -1    0    0  501    0  0.00000000000E+00 -0.00000000000E+00 -0.59363050237E+03  0.59363050237E+03  0.00000000000E+00 0. -1.
         24    2    1    2    0    0 -0.37552371117E+03 -0.10243962950E+03 -0.10702833139E+03  0.41159240655E+03  0.80257772641E+02 0.  0.
        254    2    1    2    0    0  0.37552371117E+03  0.10243962950E+03  0.38971048335E+03  0.10583507501E+04  0.90372568523E+03 0.  0.
         23    2    4    4    0    0  0.42926302501E+03 -0.30764913869E+03  0.94204354546E+02  0.54321980681E+03  0.85431615461E+02 0.  0.
         23    2    4    4    0    0 -0.53739313842E+02  0.41008876819E+03  0.29550612880E+03  0.51513094333E+03  0.83518291235E+02 0.  0.
          4    1    3    3  502    0 -0.37944618243E+03 -0.10308515411E+03 -0.10738933645E+03  0.40760081445E+03  0.00000000000E+00 0. -1.
         -3    1    3    3    0  502  0.39224712635E+01  0.64552461175E+00  0.36100505528E+00  0.39915920993E+01  0.00000000000E+00 0.  1.
         11    1    5    5    0    0  0.35146390079E+03 -0.25419463517E+03  0.11007347307E+03  0.44750190567E+03  0.00000000000E+00 0. -1.
        -11    1    5    5    0    0  0.77799124222E+02 -0.53454503512E+02 -0.15869118520E+02  0.95717901137E+02  0.00000000000E+00 0.  1.
          2    1    6    6  503    0 -0.51678996480E+02  0.13451366595E+03  0.76655902558E+02  0.16322001226E+03  0.00000000000E+00 0. -1.
         -2    1    6    6    0  503 -0.20603173611E+01  0.27557510223E+03  0.21885022624E+03  0.35191093107E+03  0.00000000000E+00 0.  1.
<mgrwt>
<rscale>  0 0.14425060E+04</rscale>
<asrwt>0</asrwt>
<pdfrwt beam="1">  1        2 0.91327770E-01 0.14425060E+04</pdfrwt>
<pdfrwt beam="2">  1       -1 0.13481733E+00 0.14425060E+04</pdfrwt>
<totfact> 0.25757057E+01</totfact>
</mgrwt>
</event>
<event>
12    6  0.1586493E-007  0.2753203E+04  0.7818608E-02  0.8317946E-01
         -1   -1    0    0    0  501 -0.00000000000E+00  0.00000000000E+00  0.10124473253E+04  0.10124473253E+04  0.00000000000E+00 0.  1.
          2   -1    0    0  501    0  0.00000000000E+00 -0.00000000000E+00 -0.18717341445E+04  0.18717341445E+04  0.00000000000E+00 0. -1.
         24    2    1    2    0    0 -0.11000437776E+04 -0.48596610474E+03 -0.58775845834E+03  0.13408306852E+04  0.78150838259E+02 0.  0.
        254    2    1    2    0    0  0.11000437776E+04  0.48596610474E+03 -0.27152836083E+03  0.15433507845E+04  0.92840972951E+03 0.  0.
         23    2    4    4    0    0  0.10898518818E+04  0.33903314172E+03  0.83672308982E+02  0.11478965828E+04  0.89134247788E+02 0.  0.
         23    2    4    4    0    0  0.10191895766E+02  0.14693296301E+03 -0.35520066982E+03  0.39545420170E+03  0.92321933712E+02 0.  0.
          2    1    3    3  502    0 -0.22872066247E+03 -0.12560001855E+03 -0.10208836304E+03  0.28019732327E+03  0.00000000000E+00 0. -1.
         -1    1    3    3    0  502 -0.87132311510E+03 -0.36036608618E+03 -0.48567009530E+03  0.10606333619E+04  0.00000000000E+00 0.  1.
         11    1    5    5    0    0  0.50321129787E+03  0.20072515118E+03  0.25412018904E+02  0.54236331672E+03  0.00000000000E+00 0. -1.
        -11    1    5    5    0    0  0.58664058394E+03  0.13830799054E+03  0.58260290078E+02  0.60553326612E+03  0.00000000000E+00 0.  1.
          4    1    6    6  503    0 -0.38584846300E+01 -0.12824416416E+02 -0.24650294659E+02  0.28053352505E+02  0.00000000000E+00 0. -1.
         -4    1    6    6    0  503  0.14050380396E+02  0.15975737943E+03 -0.33055037516E+03  0.36740084919E+03  0.00000000000E+00 0.  1.
<mgrwt>
<rscale>  0 0.27532034E+04</rscale>
<asrwt>0</asrwt>
<pdfrwt beam="1">  1        2 0.28795910E+00 0.27532034E+04</pdfrwt>
<pdfrwt beam="2">  1       -1 0.15576113E+00 0.27532034E+04</pdfrwt>
<totfact> 0.24639007E+00</totfact>
</mgrwt>
</event>
<event>
12    6  0.1586493E-007  0.2158565E+04  0.7818608E-02  0.8535875E-01
         -1   -1    0    0    0  501 -0.00000000000E+00  0.00000000000E+00  0.93829204545E+03  0.93829204545E+03  0.00000000000E+00 0.  1.
          2   -1    0    0  501    0  0.00000000000E+00 -0.00000000000E+00 -0.12414586797E+04  0.12414586797E+04  0.00000000000E+00 0. -1.
         24    2    1    2    0    0 -0.48833297890E+03  0.13114062027E+03 -0.87083870287E+03  0.10101997558E+04  0.80476951205E+02 0.  0.
        254    2    1    2    0    0  0.48833297890E+03 -0.13114062027E+03  0.56767206861E+03  0.11695509693E+04  0.88878058702E+03 0.  0.
         23    2    4    4    0    0  0.51751534171E+03 -0.40578116844E+03  0.18641445549E+03  0.68957822831E+03  0.91034598866E+02 0.  0.
         23    2    4    4    0    0 -0.29182362810E+02  0.27464054817E+03  0.38125761313E+03  0.47997274104E+03  0.93474186667E+02 0.  0.
          4    1    3    3  502    0 -0.36787403216E+03  0.72726330302E+02 -0.68841716122E+03  0.78392513069E+03  0.00000000000E+00 0. -1.
         -3    1    3    3    0  502 -0.12045894673E+03  0.58414289967E+02 -0.18242154165E+03  0.22627462513E+03  0.00000000000E+00 0.  1.
         11    1    5    5    0    0  0.23476325761E+03 -0.14061213833E+03  0.47160842077E+02  0.27768634391E+03  0.00000000000E+00 0. -1.
        -11    1    5    5    0    0  0.28275208409E+03 -0.26516903011E+03  0.13925361341E+03  0.41189188440E+03  0.00000000000E+00 0.  1.
          4    1    6    6  503    0  0.99271736153E+01  0.81402968187E+02  0.54901410449E+02  0.98687166719E+02  0.00000000000E+00 0. -1.
         -4    1    6    6    0  503 -0.39109536425E+02  0.19323757998E+03  0.32635620268E+03  0.38128557432E+03  0.00000000000E+00 0.  1.
<mgrwt>
<rscale>  0 0.21585651E+04</rscale>
<asrwt>0</asrwt>
<pdfrwt beam="1">  1        2 0.19099364E+00 0.21585651E+04</pdfrwt>
<pdfrwt beam="2">  1       -1 0.14435262E+00 0.21585651E+04</pdfrwt>
<totfact> 0.72341028E+00</totfact>
</mgrwt>
</event>
<event>
12    6  0.1586493E-007  0.1422868E+04  0.7818608E-02  0.8937430E-01
         -1   -1    0    0    0  501 -0.00000000000E+00  0.00000000000E+00  0.15567210004E+03  0.15567210004E+03  0.00000000000E+00 0.  1.
          2   -1    0    0  501    0  0.00000000000E+00 -0.00000000000E+00 -0.32513107220E+04  0.32513107220E+04  0.00000000000E+00 0. -1.
         24    2    1    2    0    0  0.12332148204E+03  0.22383249660E+03 -0.12987775579E+03  0.29710848955E+03  0.78077196714E+02 0.  0.
        254    2    1    2    0    0 -0.12332148204E+03 -0.22383249660E+03 -0.29657608662E+04  0.31098743325E+04  0.90015091742E+03 0.  0.
         23    2    4    4    0    0 -0.48720906292E+03 -0.20051576043E+03 -0.20827473366E+04  0.21502469108E+04  0.90255571264E+02 0.  0.
         23    2    4    4    0    0  0.36388758089E+03 -0.23316736170E+02 -0.88301352955E+03  0.95962742167E+03  0.90631414738E+02 0.  0.
          4    1    3    3  502    0 -0.85125069520E+01  0.40384062422E+01 -0.11285212706E+02  0.14701276319E+02  0.00000000000E+00 0. -1.
         -3    1    3    3    0  502  0.13183398899E+03  0.21979409035E+03 -0.11859254309E+03  0.28240721323E+03  0.00000000000E+00 0.  1.
         11    1    5    5    0    0 -0.39198165166E+03 -0.19694449425E+03 -0.17474275937E+04  0.18016492290E+04  0.00000000000E+00 0.  1.
        -11    1    5    5    0    0 -0.95227411261E+02 -0.35712661800E+01 -0.33531974293E+03  0.34859768186E+03  0.00000000000E+00 0. -1.
          3    1    6    6  503    0  0.81028710756E+01 -0.15463246343E+02 -0.22864935719E+02  0.28767582320E+02  0.00000000000E+00 0. -1.
         -3    1    6    6    0  503  0.35578470981E+03 -0.78534898261E+01 -0.86014859383E+03  0.93085983935E+03  0.00000000000E+00 0.  1.
<mgrwt>
<rscale>  0 0.14228680E+04</rscale>
<asrwt>0</asrwt>
<pdfrwt beam="1">  1        2 0.50020163E+00 0.14228680E+04</pdfrwt>
<pdfrwt beam="2">  1       -1 0.23949555E-01 0.14228680E+04</pdfrwt>
<totfact> 0.20266424E+01</totfact>
</mgrwt>
</event>
<event>
12    6  0.1586493E-007  0.2442732E+04  0.7818608E-02  0.8423677E-01
          2   -1    0    0  501    0  0.00000000000E+00  0.00000000000E+00  0.19161892436E+04  0.19161892436E+04  0.00000000000E+00 0. -1.
         -1   -1    0    0    0  501 -0.00000000000E+00 -0.00000000000E+00 -0.77849008162E+03  0.77849008162E+03  0.00000000000E+00 0.  1.
         24    2    1    2    0    0  0.45462545286E+03  0.17129625847E+03  0.15119557611E+04  0.15900870594E+04  0.79623631059E+02 0.  0.
        254    2    1    2    0    0 -0.45462545286E+03 -0.17129625847E+03 -0.37425659905E+03  0.11045922658E+04  0.91871070594E+03 0.  0.
         23    2    4    4    0    0  0.17461025837E+03 -0.56278268594E+02 -0.40917046898E+03  0.45769185862E+03  0.91680853631E+02 0.  0.
         23    2    4    4    0    0 -0.62923571123E+03 -0.11501798988E+03  0.34913869922E+02  0.64690040720E+03  0.89969107125E+02 0.  0.
          4    1    3    3  502    0  0.28150135616E+03  0.77313764995E+02  0.80932195521E+03  0.86036181864E+03  0.00000000000E+00 0. -1.
         -3    1    3    3    0  502  0.17312409670E+03  0.93982493480E+02  0.70263380584E+03  0.72972524079E+03  0.00000000000E+00 0.  1.
         11    1    5    5    0    0  0.15103976545E+03 -0.29876599837E+02 -0.38551110152E+03  0.41511977953E+03  0.00000000000E+00 0. -1.
        -11    1    5    5    0    0  0.23570492914E+02 -0.26401668757E+02 -0.23659367459E+02  0.42572079089E+02  0.00000000000E+00 0.  1.
          3    1    6    6  503    0 -0.54455308852E+03 -0.99623651379E+02  0.61055181090E+02  0.55694763961E+03  0.00000000000E+00 0. -1.
         -3    1    6    6    0  503 -0.84682622713E+02 -0.15394338502E+02 -0.26141311168E+02  0.89952767589E+02  0.00000000000E+00 0.  1.
<mgrwt>
<rscale>  0 0.24427315E+04</rscale>
<asrwt>0</asrwt>
<pdfrwt beam="1">  1        2 0.29479834E+00 0.24427315E+04</pdfrwt>
<pdfrwt beam="2">  1       -1 0.11976771E+00 0.24427315E+04</pdfrwt>
<totfact> 0.47181984E+00</totfact>
</mgrwt>
</event>
<event>
12    6  0.1586493E-007  0.1124566E+04  0.7818608E-02  0.9181574E-01
          2   -1    0    0  501    0  0.00000000000E+00  0.00000000000E+00  0.15573541524E+03  0.15573541524E+03  0.00000000000E+00 0. -1.
         -1   -1    0    0    0  501 -0.00000000000E+00 -0.00000000000E+00 -0.20301228017E+04  0.20301228017E+04  0.00000000000E+00 0.  1.
         24    2    1    2    0    0  0.37061243094E+02 -0.22483440659E+03 -0.64487700067E+03  0.68862505778E+03  0.80087939681E+02 0.  0.
        254    2    1    2    0    0 -0.37061243094E+02  0.22483440659E+03 -0.12295103858E+04  0.14972331592E+04  0.82346056253E+03 0.  0.
         23    2    4    4    0    0  0.19137653576E+03 -0.97814776002E+01 -0.11204094151E+04  0.11403012677E+04  0.90824380772E+02 0.  0.
         23    2    4    4    0    0 -0.22843777885E+03  0.23461588419E+03 -0.10910097077E+03  0.35693189146E+03  0.90933609837E+02 0.  0.
          4    1    3    3  502    0 -0.24458468996E+02 -0.44473943005E+02 -0.12416798858E+03  0.13414111115E+03  0.00000000000E+00 0. -1.
         -3    1    3    3    0  502  0.61519712090E+02 -0.18036046358E+03 -0.52070901209E+03  0.55448394663E+03  0.00000000000E+00 0.  1.
         11    1    5    5    0    0  0.48484546321E+02 -0.29602470078E+02 -0.17608939836E+03  0.18502576491E+03  0.00000000000E+00 0. -1.
        -11    1    5    5    0    0  0.14289198944E+03  0.19820992478E+02 -0.94432001669E+03  0.95527550283E+03  0.00000000000E+00 0.  1.
          3    1    6    6  503    0 -0.10884982052E+02  0.58267348688E+02 -0.26696557231E+02  0.65009790996E+02  0.00000000000E+00 0. -1.
         -3    1    6    6    0  503 -0.21755279680E+03  0.17634853550E+03 -0.82404413543E+02  0.29192210046E+03  0.00000000000E+00 0.  1.
<mgrwt>
<rscale>  0 0.11245657E+04</rscale>
<asrwt>0</asrwt>
<pdfrwt beam="1">  1        2 0.23959298E-01 0.11245657E+04</pdfrwt>
<pdfrwt beam="2">  1       -1 0.31232654E+00 0.11245657E+04</pdfrwt>
<totfact> 0.72764519E+00</totfact>
</mgrwt>
</event>
<event>
12    6  0.1586493E-007  0.1927520E+04  0.7818608E-02  0.8641278E-01
          2   -1    0    0  501    0  0.00000000000E+00  0.00000000000E+00  0.10879330354E+04  0.10879330354E+04  0.00000000000E+00 0. -1.
         -1   -1    0    0    0  501 -0.00000000000E+00 -0.00000000000E+00 -0.85375995686E+03  0.85375995686E+03  0.00000000000E+00 0.  1.
         24    2    1    2    0    0  0.10991426787E+03 -0.72342147710E+03  0.26301971362E+02  0.73713454038E+03  0.85180732015E+02 0.  0.
        254    2    1    2    0    0 -0.10991426787E+03  0.72342147710E+03  0.20787110713E+03  0.12045584518E+04  0.93398655606E+03 0.  0.
         23    2    4    4    0    0 -0.37632231172E+03  0.55475067213E+02 -0.11895394326E+03  0.40944737752E+03  0.93814438983E+02 0.  0.
         23    2    4    4    0    0  0.26640804385E+03  0.66794640989E+03  0.32682505039E+03  0.79511107432E+03  0.90891994311E+02 0.  0.
          4    1    3    3  502    0  0.98309756996E+02 -0.71241278267E+03  0.32699844584E+02  0.71990698084E+03  0.00000000000E+00 0. -1.
         -3    1    3    3    0  502  0.11604510875E+02 -0.11008694434E+02 -0.63978732224E+01  0.17227559536E+02  0.00000000000E+00 0.  1.
         11    1    5    5    0    0 -0.37013545507E+03  0.39412954676E+02 -0.12251216926E+03  0.39187098350E+03  0.00000000000E+00 0. -1.
        -11    1    5    5    0    0 -0.61868566489E+01  0.16062112537E+02  0.35582259996E+01  0.17576394016E+02  0.00000000000E+00 0.  1.
          3    1    6    6  503    0  0.14160635317E+03  0.30887257779E+03  0.10827222077E+03  0.35661954848E+03  0.00000000000E+00 0. -1.
         -3    1    6    6    0  503  0.12480169068E+03  0.35907383210E+03  0.21855282962E+03  0.43849152584E+03  0.00000000000E+00 0.  1.
<mgrwt>
<rscale>  0 0.19275203E+04</rscale>
<asrwt>0</asrwt>
<pdfrwt beam="1">  1        2 0.16737431E+00 0.19275203E+04</pdfrwt>
<pdfrwt beam="2">  1       -1 0.13134768E+00 0.19275203E+04</pdfrwt>
<totfact> 0.11672316E+01</totfact>
</mgrwt>
</event>
<event>
12    6  0.1586493E-007  0.1713426E+04  0.7818608E-02  0.8753744E-01
         -1   -1    0    0    0  501 -0.00000000000E+00  0.00000000000E+00  0.30645509135E+03  0.30645509135E+03  0.00000000000E+00 0.  1.
          2   -1    0    0  501    0  0.00000000000E+00 -0.00000000000E+00 -0.23949905241E+04  0.23949905241E+04  0.00000000000E+00 0. -1.
         24    2    1    2    0    0 -0.84988977501E+02 -0.48801559334E+03 -0.13595755897E+04  0.14492275219E+04  0.80201499615E+02 0.  0.
        254    2    1    2    0    0  0.84988977501E+02  0.48801559334E+03 -0.72895984311E+03  0.12522180936E+04  0.88954221678E+03 0.  0.
         23    2    4    4    0    0  0.34674968634E+03 -0.13275153627E+02 -0.47334273487E+02  0.36193062609E+03  0.91332743158E+02 0.  0.
         23    2    4    4    0    0 -0.26176070884E+03  0.50129074696E+03 -0.68162556962E+03  0.89028746751E+03  0.90483567346E+02 0.  0.
          2    1    3    3  502    0 -0.39866782859E+02 -0.33895150947E+03 -0.10214465129E+04  0.10769542538E+04  0.00000000000E+00 0. -1.
         -1    1    3    3    0  502 -0.45122194641E+02 -0.14906408387E+03 -0.33812907679E+03  0.37227326807E+03  0.00000000000E+00 0.  1.
         11    1    5    5    0    0  0.12135824148E+03 -0.47750982533E+02 -0.25400211896E+02  0.13286515673E+03  0.00000000000E+00 0. -1.
        -11    1    5    5    0    0  0.22539144486E+03  0.34475828907E+02 -0.21934061591E+02  0.22906546936E+03  0.00000000000E+00 0.  1.
          1    1    6    6  503    0 -0.47442230047E+02  0.10134470957E+03 -0.83978735127E+02  0.13990690942E+03  0.00000000000E+00 0. -1.
         -1    1    6    6    0  503 -0.21431847879E+03  0.39994603739E+03 -0.59764683449E+03  0.75038055809E+03  0.00000000000E+00 0.  1.
<mgrwt>
<rscale>  0 0.17134259E+04</rscale>
<asrwt>0</asrwt>
<pdfrwt beam="1">  1        2 0.36846008E+00 0.17134259E+04</pdfrwt>
<pdfrwt beam="2">  1       -1 0.47146937E-01 0.17134259E+04</pdfrwt>
<totfact> 0.19458129E+01</totfact>
</mgrwt>
</event>
<event>
12    6  0.1610822E-007  0.3036799E+04  0.7818608E-02  0.8233300E-01
          2   -1    0    0  501    0  0.00000000000E+00  0.00000000000E+00  0.21932506623E+04  0.21932506623E+04  0.00000000000E+00 0. -1.
         -1   -1    0    0    0  501 -0.00000000000E+00 -0.00000000000E+00 -0.10511964376E+04  0.10511964376E+04  0.00000000000E+00 0.  1.
         24    2    1    2    0    0  0.74933743475E+03 -0.99249458635E+03 -0.12195488921E+03  0.12523242866E+04  0.83012221048E+02 0.  0.
        254    2    1    2    0    0 -0.74933743475E+03  0.99249458635E+03  0.12640091139E+04  0.19921228133E+04  0.90789986687E+03 0.  0.
         23    2    4    4    0    0 -0.50641029543E+03  0.11024241762E+03  0.14704838615E+03  0.54534471195E+03  0.84692673913E+02 0.  0.
         23    2    4    4    0    0 -0.24292713932E+03  0.88225216872E+03  0.11169607278E+04  0.14467781014E+04  0.90460615853E+02 0.  0.
          2    1    3    3  502    0  0.27901055986E+02 -0.56441714248E+02 -0.20305827240E+02  0.66154838465E+02  0.00000000000E+00 0. -1.
         -1    1    3    3    0  502  0.72143637876E+03 -0.93605287210E+03 -0.10164906197E+03  0.11861694482E+04  0.00000000000E+00 0.  1.
         11    1    5    5    0    0 -0.50233137062E+03  0.11790037201E+03  0.14751873672E+03  0.53665545866E+03  0.00000000000E+00 0. -1.
        -11    1    5    5    0    0 -0.40789248181E+01 -0.76579543863E+01 -0.47035056957E+00  0.86892532885E+01  0.00000000000E+00 0.  1.
          1    1    6    6  503    0 -0.20498494674E+03  0.81209706348E+03  0.10460759793E+04  0.13400729172E+04  0.00000000000E+00 0. -1.
         -1    1    6    6    0  503 -0.37942192577E+02  0.70155105245E+02  0.70884748493E+02  0.10670518422E+03  0.00000000000E+00 0.  1.
<mgrwt>
<rscale>  0 0.30367992E+04</rscale>
<asrwt>0</asrwt>
<pdfrwt beam="1">  1        2 0.33742318E+00 0.30367992E+04</pdfrwt>
<pdfrwt beam="2">  1       -1 0.16172253E+00 0.30367992E+04</pdfrwt>
<totfact> 0.14335916E+00</totfact>
</mgrwt>
</event>
<event>
12    6  0.1586493E-007  0.1295109E+04  0.7818608E-02  0.9033452E-01
          2   -1    0    0  501    0  0.00000000000E+00  0.00000000000E+00  0.71115988005E+03  0.71115988005E+03  0.00000000000E+00 0. -1.
         -1   -1    0    0    0  501 -0.00000000000E+00 -0.00000000000E+00 -0.58963827363E+03  0.58963827363E+03  0.00000000000E+00 0.  1.
         24    2    1    2    0    0 -0.69484889144E+02 -0.23386196038E+03 -0.19090967851E+03  0.31992853044E+03  0.79926171593E+02 0.  0.
        254    2    1    2    0    0  0.69484889144E+02  0.23386196038E+03  0.31243128493E+03  0.98086962325E+03  0.89720250985E+03 0.  0.
         23    2    4    4    0    0 -0.10199790475E+03  0.15149866086E+03  0.59512862438E+03  0.62852891830E+03  0.86689703935E+02 0.  0.
         23    2    4    4    0    0  0.17148279389E+03  0.82363299524E+02 -0.28269733945E+03  0.35234070496E+03  0.89644436134E+02 0.  0.
          4    1    3    3  502    0 -0.22458129190E+02 -0.18454913742E+02 -0.51302327964E+02  0.58965076634E+02  0.00000000000E+00 0. -1.
         -3    1    3    3    0  502 -0.47026759954E+02 -0.21540704664E+03 -0.13960735054E+03  0.26096345380E+03  0.00000000000E+00 0.  1.
         11    1    5    5    0    0  0.11286561051E+02  0.11930819112E+02  0.10899639660E+03  0.11022679065E+03  0.00000000000E+00 0.  1.
        -11    1    5    5    0    0 -0.11328446580E+03  0.13956784175E+03  0.48613222777E+03  0.51830212764E+03  0.00000000000E+00 0. -1.
          3    1    6    6  503    0  0.16873083982E+03  0.95886512137E+02 -0.24737412803E+03  0.31441736392E+03  0.00000000000E+00 0. -1.
         -3    1    6    6    0  503  0.27519540717E+01 -0.13523212612E+02 -0.35323211417E+02  0.37923341037E+02  0.00000000000E+00 0.  1.
<mgrwt>
<rscale>  0 0.12951094E+04</rscale>
<asrwt>0</asrwt>
<pdfrwt beam="1">  1        2 0.10940921E+00 0.12951094E+04</pdfrwt>
<pdfrwt beam="2">  1       -1 0.90713580E-01 0.12951094E+04</pdfrwt>
<totfact> 0.53408236E+01</totfact>
</mgrwt>
</event>
<event>
12    6  0.1586493E-007  0.1724728E+04  0.7818608E-02  0.8747386E-01
          2   -1    0    0  501    0  0.00000000000E+00  0.00000000000E+00  0.26968132342E+04  0.26968132342E+04  0.00000000000E+00 0. -1.
         -1   -1    0    0    0  501 -0.00000000000E+00 -0.00000000000E+00 -0.27575935471E+03  0.27575935471E+03  0.00000000000E+00 0.  1.
         24    2    1    2    0    0  0.11726994105E+03  0.62615840473E+03  0.55338623330E+03  0.84748197729E+03  0.78503450509E+02 0.  0.
        254    2    1    2    0    0 -0.11726994105E+03 -0.62615840473E+03  0.18676676462E+04  0.21250906116E+04  0.78867045341E+03 0.  0.
         23    2    4    4    0    0  0.48897288441E+02 -0.33768403259E+03  0.16813027918E+03  0.39087739782E+03  0.89977211939E+02 0.  0.
         23    2    4    4    0    0 -0.16616722949E+03 -0.28847437214E+03  0.16995373670E+04  0.17342132138E+04  0.90770025496E+02 0.  0.
          2    1    3    3  502    0  0.85259985378E+02  0.46760332229E+03  0.36573036606E+03  0.59973396834E+03  0.00000000000E+00 0. -1.
         -1    1    3    3    0  502  0.32009955671E+02  0.15855508244E+03  0.18765586724E+03  0.24774800895E+03  0.00000000000E+00 0.  1.
         11    1    5    5    0    0 -0.76705878881E+01 -0.44348611700E+01  0.19908570128E+02  0.21791215585E+02  0.00000000000E+00 0.  1.
        -11    1    5    5    0    0  0.56567876329E+02 -0.33324917142E+03  0.14822170906E+03  0.36908618224E+03  0.00000000000E+00 0. -1.
          1    1    6    6  503    0 -0.16088655555E+03 -0.29481482469E+03  0.16340875122E+04  0.16682452644E+04  0.00000000000E+00 0. -1.
         -1    1    6    6    0  503 -0.52806739383E+01  0.63404525527E+01  0.65449854775E+02  0.65967949384E+02  0.00000000000E+00 0.  1.
<mgrwt>
<rscale>  0 0.17247278E+04</rscale>
<asrwt>0</asrwt>
<pdfrwt beam="1">  1        2 0.41489433E+00 0.17247278E+04</pdfrwt>
<pdfrwt beam="2">  1       -1 0.42424518E-01 0.17247278E+04</pdfrwt>
<totfact> 0.15802025E+01</totfact>
</mgrwt>
</event>
<event>
12    6  0.1586493E-007  0.2554484E+04  0.7818608E-02  0.8383828E-01
         -1   -1    0    0    0  501 -0.00000000000E+00  0.00000000000E+00  0.70991320369E+03  0.70991320369E+03  0.00000000000E+00 0.  1.
          2   -1    0    0  501    0  0.00000000000E+00 -0.00000000000E+00 -0.22979537454E+04  0.22979537454E+04  0.00000000000E+00 0. -1.
         24    2    1    2    0    0 -0.35369384759E+03 -0.49570513633E+03 -0.18037147614E+04  0.19054519429E+04  0.80853236901E+02 0.  0.
        254    2    1    2    0    0  0.35369384759E+03  0.49570513633E+03  0.21567421977E+03  0.11024150062E+04  0.89329757460E+03 0.  0.
         23    2    4    4    0    0 -0.14910582144E+03  0.48039578192E+03 -0.72032902027E+02  0.51589799951E+03  0.89159147845E+02 0.  0.
         23    2    4    4    0    0  0.50279966902E+03  0.15309354403E+02  0.28770712180E+03  0.58651700668E+03  0.90470590201E+02 0.  0.
          2    1    3    3  502    0 -0.87939295129E+02 -0.11846436161E+03 -0.33753974049E+03  0.36837508196E+03  0.00000000000E+00 0. -1.
         -1    1    3    3    0  502 -0.26575455246E+03 -0.37724077472E+03 -0.14661750209E+04  0.15370768609E+04  0.00000000000E+00 0.  1.
         11    1    5    5    0    0 -0.11191692114E+03  0.30927333628E+03 -0.86795420464E+02  0.34016001938E+03  0.00000000000E+00 0. -1.
        -11    1    5    5    0    0 -0.37188900296E+02  0.17112244565E+03  0.14762518437E+02  0.17573798013E+03  0.00000000000E+00 0.  1.
          1    1    6    6  503    0  0.39400978735E+03  0.47241020300E+02  0.20907913371E+03  0.44854153729E+03  0.00000000000E+00 0. -1.
         -1    1    6    6    0  503  0.10878988168E+03 -0.31931665898E+02  0.78627988091E+02  0.13797546939E+03  0.00000000000E+00 0.  1.
<mgrwt>
<rscale>  0 0.25544845E+04</rscale>
<asrwt>0</asrwt>
<pdfrwt beam="1">  1        2 0.35353135E+00 0.25544845E+04</pdfrwt>
<pdfrwt beam="2">  1       -1 0.10921741E+00 0.25544845E+04</pdfrwt>
<totfact> 0.35626287E+00</totfact>
</mgrwt>
</event>
<event>
12    6  0.1586493E-007  0.1339011E+04  0.7818608E-02  0.8999189E-01
         -1   -1    0    0    0  501 -0.00000000000E+00  0.00000000000E+00  0.42014339960E+03  0.42014339960E+03  0.00000000000E+00 0.  1.
          2   -1    0    0  501    0  0.00000000000E+00 -0.00000000000E+00 -0.10668679375E+04  0.10668679375E+04  0.00000000000E+00 0. -1.
         24    2    1    2    0    0 -0.48161387283E+02 -0.30818824662E+02 -0.58612916396E+03  0.59360713065E+03  0.74516505149E+02 0.  0.
        254    2    1    2    0    0  0.48161387283E+02  0.30818824662E+02 -0.60595373981E+02  0.89340420648E+03  0.88951107786E+03 0.  0.
         23    2    4    4    0    0  0.10135699194E+03  0.43976932517E+03 -0.92124808688E+02  0.46961108286E+03  0.91527534662E+02 0.  0.
         23    2    4    4    0    0 -0.53195604658E+02 -0.40895050050E+03  0.31529434707E+02  0.42379312362E+03  0.92391677945E+02 0.  0.
          4    1    3    3  502    0 -0.10373224739E+02 -0.42093590348E+02 -0.44391377299E+03  0.44602568535E+03  0.00000000000E+00 0. -1.
         -1    1    3    3    0  502 -0.37788162544E+02  0.11274765686E+02 -0.14221539097E+03  0.14758144531E+03  0.00000000000E+00 0.  1.
         11    1    5    5    0    0  0.16244893752E+02  0.32787130513E+02 -0.33689702446E+02  0.49738200120E+02  0.00000000000E+00 0. -1.
        -11    1    5    5    0    0  0.85112098189E+02  0.40698219465E+03 -0.58435106241E+02  0.41987288274E+03  0.00000000000E+00 0.  1.
          3    1    6    6  503    0 -0.12966042902E+02 -0.13780503121E+02  0.18356171004E+02  0.26362275106E+02  0.00000000000E+00 0. -1.
         -3    1    6    6    0  503 -0.40229561756E+02 -0.39516999738E+03  0.13173263703E+02  0.39743084851E+03  0.00000000000E+00 0.  1.
<mgrwt>
<rscale>  0 0.13390109E+04</rscale>
<asrwt>0</asrwt>
<pdfrwt beam="1">  1        2 0.16413353E+00 0.13390109E+04</pdfrwt>
<pdfrwt beam="2">  1       -1 0.64637448E-01 0.13390109E+04</pdfrwt>
<totfact> 0.61820917E+01</totfact>
</mgrwt>
</event>
<event>
12    6  0.1586493E-007  0.1288558E+04  0.7818608E-02  0.9038689E-01
         -1   -1    0    0    0  501 -0.00000000000E+00  0.00000000000E+00  0.14926367778E+04  0.14926367778E+04  0.00000000000E+00 0.  1.
          2   -1    0    0  501    0  0.00000000000E+00 -0.00000000000E+00 -0.27809523070E+03  0.27809523070E+03  0.00000000000E+00 0. -1.
         24    2    1    2    0    0 -0.47658241037E+02 -0.11781955767E+03  0.72703457383E+03  0.74229968610E+03  0.79226235125E+02 0.  0.
        254    2    1    2    0    0  0.47658241037E+02  0.11781955767E+03  0.48750697331E+03  0.10284323224E+04  0.89658085899E+03 0.  0.
         23    2    4    4    0    0 -0.88200812712E+01  0.13212357824E+03  0.73795954542E+03  0.75534293833E+03  0.91783604476E+02 0.  0.
         23    2    4    4    0    0  0.56478322309E+02 -0.14304020570E+02 -0.25045257211E+03  0.27308938411E+03  0.91961486167E+02 0.  0.
          4    1    3    3  502    0  0.45956339242E+01 -0.47806427396E+01  0.22335741495E+03  0.22345583279E+03  0.00000000000E+00 0. -1.
         -3    1    3    3    0  502 -0.52253874962E+02 -0.11303891493E+03  0.50367715887E+03  0.51884385330E+03  0.00000000000E+00 0.  1.
         11    1    5    5    0    0 -0.24174337601E+02  0.10906934732E+03  0.37394488509E+03  0.39027592573E+03  0.00000000000E+00 0. -1.
        -11    1    5    5    0    0  0.15354256330E+02  0.23054230916E+02  0.36401466033E+03  0.36506701260E+03  0.00000000000E+00 0.  1.
          2    1    6    6  503    0 -0.13579654293E+02 -0.40290875311E+01 -0.14777536256E+01  0.14241640103E+02  0.00000000000E+00 0. -1.
         -2    1    6    6    0  503  0.70057976602E+02 -0.10274933039E+02 -0.24897481849E+03  0.25884774400E+03  0.00000000000E+00 0.  1.
<mgrwt>
<rscale>  0 0.12885576E+04</rscale>
<asrwt>0</asrwt>
<pdfrwt beam="1">  1        2 0.42783883E-01 0.12885576E+04</pdfrwt>
<pdfrwt beam="2">  1       -1 0.22963642E+00 0.12885576E+04</pdfrwt>
<totfact> 0.12758602E+01</totfact>
</mgrwt>
</event>
<event>
12    6  0.1586493E-007  0.1357223E+04  0.7818608E-02  0.8985378E-01
         -1   -1    0    0    0  501 -0.00000000000E+00  0.00000000000E+00  0.25613956586E+03  0.25613956586E+03  0.00000000000E+00 0.  1.
          2   -1    0    0  501    0  0.00000000000E+00 -0.00000000000E+00 -0.17979008636E+04  0.17979008636E+04  0.00000000000E+00 0. -1.
         24    2    1    2    0    0  0.22192675982E+03  0.53281494494E+02  0.14350618596E+02  0.24232436287E+03  0.80154552016E+02 0.  0.
        254    2    1    2    0    0 -0.22192675982E+03 -0.53281494494E+02 -0.15561119163E+04  0.18117160665E+04  0.89929995295E+03 0.  0.
         23    2    4    4    0    0  0.43849741512E+02 -0.27142656007E+03 -0.13866382459E+04  0.14163555211E+04  0.87761949181E+02 0.  0.
         23    2    4    4    0    0 -0.26577650133E+03  0.21814506558E+03 -0.16947367041E+03  0.39536054549E+03  0.96768887945E+02 0.  0.
          2    1    3    3  502    0  0.12987585228E+03  0.29560386348E+02  0.47856841063E+02  0.14153384996E+03  0.00000000000E+00 0. -1.
         -1    1    3    3    0  502  0.92050907533E+02  0.23721108147E+02 -0.33506222467E+02  0.10079051291E+03  0.00000000000E+00 0.  1.
         11    1    5    5    0    0 -0.22890507758E+02 -0.36273161703E+02 -0.25898024960E+03  0.26250807090E+03  0.00000000000E+00 0.  1.
        -11    1    5    5    0    0  0.66740249270E+02 -0.23515339837E+03 -0.11276579963E+04  0.11538474501E+04  0.00000000000E+00 0. -1.
          4    1    6    6  503    0 -0.15031200119E+03  0.18174754623E+03 -0.11934004395E+03  0.26432539483E+03  0.00000000000E+00 0. -1.
         -4    1    6    6    0  503 -0.11546450014E+03  0.36397519351E+02 -0.50133626461E+02  0.13103515066E+03  0.00000000000E+00 0.  1.
<mgrwt>
<rscale>  0 0.13572230E+04</rscale>
<asrwt>0</asrwt>
<pdfrwt beam="1">  1        2 0.27660012E+00 0.13572230E+04</pdfrwt>
<pdfrwt beam="2">  1       -1 0.39406089E-01 0.13572230E+04</pdfrwt>
<totfact> 0.60244726E+01</totfact>
</mgrwt>
</event>
<event>
12    6  0.1586493E-007  0.1945801E+04  0.7818608E-02  0.8632388E-01
         -1   -1    0    0    0  501 -0.00000000000E+00  0.00000000000E+00  0.48244107475E+03  0.48244107475E+03  0.00000000000E+00 0.  1.
          2   -1    0    0  501    0  0.00000000000E+00 -0.00000000000E+00 -0.19619713543E+04  0.19619713543E+04  0.00000000000E+00 0. -1.
         24    2    1    2    0    0  0.13393164615E+03 -0.20946449951E+02 -0.15258534125E+04  0.15339753472E+04  0.80469186547E+02 0.  0.
        254    2    1    2    0    0 -0.13393164615E+03  0.20946449951E+02  0.46323132873E+02  0.91043708185E+03  0.89909588352E+03 0.  0.
         23    2    4    4    0    0  0.34721530780E+03 -0.11010898536E+03 -0.87339976360E+02  0.38618198065E+03  0.93945686868E+02 0.  0.
         23    2    4    4    0    0 -0.48114695395E+03  0.13105543531E+03  0.13366310923E+03  0.52425510120E+03  0.91102502388E+02 0.  0.
          4    1    3    3  502    0  0.12108360663E+03 -0.31558611391E+02 -0.99181914133E+03  0.99968114659E+03  0.00000000000E+00 0. -1.
         -3    1    3    3    0  502  0.12848039516E+02  0.10612161440E+02 -0.53403427112E+03  0.53429420063E+03  0.00000000000E+00 0.  1.
         11    1    5    5    0    0  0.11516953589E+03  0.51918907944E+01 -0.97334322025E+01  0.11569666127E+03  0.00000000000E+00 0. -1.
        -11    1    5    5    0    0  0.23204577191E+03 -0.11530087615E+03 -0.77606544157E+02  0.27048531938E+03  0.00000000000E+00 0.  1.
          3    1    6    6  503    0 -0.29713233985E+02 -0.13527163033E+02  0.45406338582E+01  0.32961762231E+02  0.00000000000E+00 0. -1.
         -3    1    6    6    0  503 -0.45143371997E+03  0.14458259834E+03  0.12912247537E+03  0.49129333897E+03  0.00000000000E+00 0.  1.
<mgrwt>
<rscale>  0 0.19458012E+04</rscale>
<asrwt>0</asrwt>
<pdfrwt beam="1">  1        2 0.30184174E+00 0.19458012E+04</pdfrwt>
<pdfrwt beam="2">  1       -1 0.74221704E-01 0.19458012E+04</pdfrwt>
<totfact> 0.13619149E+01</totfact>
</mgrwt>
</event>
<event>
12    6  0.1586493E-007  0.2066722E+04  0.7818608E-02  0.8576046E-01
          2   -1    0    0  501    0  0.00000000000E+00  0.00000000000E+00  0.70704639327E+03  0.70704639327E+03  0.00000000000E+00 0. -1.
         -1   -1    0    0    0  501 -0.00000000000E+00 -0.00000000000E+00 -0.15102759278E+04  0.15102759278E+04  0.00000000000E+00 0.  1.
         24    2    1    2    0    0 -0.48166186912E+03 -0.37753157833E+02 -0.10654259134E+04  0.11729014017E+04  0.84509549654E+02 0.  0.
        254    2    1    2    0    0  0.48166186912E+03  0.37753157833E+02  0.26219637895E+03  0.10444209193E+04  0.88805667528E+03 0.  0.
         23    2    4    4    0    0 -0.13845952822E+03 -0.21682607915E+03 -0.82896906439E+02  0.28509595944E+03  0.90681968641E+02 0.  0.
         23    2    4    4    0    0  0.62012139734E+03  0.25457923698E+03  0.34509328539E+03  0.75932495989E+03  0.90132589806E+02 0.  0.
          4    1    3    3  502    0 -0.28179399968E+03  0.78661640930E+01 -0.54593900863E+03  0.61442585878E+03  0.00000000000E+00 0. -1.
         -3    1    3    3    0  502 -0.19986786944E+03 -0.45619321926E+02 -0.51948690481E+03  0.55847554292E+03  0.00000000000E+00 0.  1.
         11    1    5    5    0    0  0.28931054138E+01 -0.12670488153E+02  0.13488611270E+02  0.18731096150E+02  0.00000000000E+00 0. -1.
        -11    1    5    5    0    0 -0.14135263364E+03 -0.20415559099E+03 -0.96385517710E+02  0.26636486329E+03  0.00000000000E+00 0.  1.
          1    1    6    6  503    0  0.25277347274E+03  0.13159811540E+03  0.18738689476E+03  0.34106647567E+03  0.00000000000E+00 0.  1.
         -1    1    6    6    0  503  0.36734792461E+03  0.12298112158E+03  0.15770639063E+03  0.41825848422E+03  0.00000000000E+00 0. -1.
<mgrwt>
<rscale>  0 0.20667222E+04</rscale>
<asrwt>0</asrwt>
<pdfrwt beam="1">  1        2 0.10877637E+00 0.20667222E+04</pdfrwt>
<pdfrwt beam="2">  1       -1 0.23235014E+00 0.20667222E+04</pdfrwt>
<totfact> 0.38854053E+00</totfact>
</mgrwt>
</event>
<event>
12    6  0.1586493E-007  0.3480611E+04  0.7818608E-02  0.8118400E-01
          2   -1    0    0  501    0  0.00000000000E+00  0.00000000000E+00  0.21697601797E+04  0.21697601797E+04  0.00000000000E+00 0. -1.
         -1   -1    0    0    0  501 -0.00000000000E+00 -0.00000000000E+00 -0.13958515952E+04  0.13958515952E+04  0.00000000000E+00 0.  1.
         24    2    1    2    0    0 -0.90469380455E+03  0.12723301967E+04 -0.61260076813E+02  0.15646951132E+04  0.84988181993E+02 0.  0.
        254    2    1    2    0    0  0.90469380455E+03 -0.12723301967E+04  0.83516866132E+03  0.20009166616E+04  0.93212970366E+03 0.  0.
         23    2    4    4    0    0  0.31061791767E+03 -0.72002469154E+03  0.88124565747E+03  0.11833218260E+04  0.93475065844E+02 0.  0.
         23    2    4    4    0    0  0.59407588687E+03 -0.55230550511E+03 -0.46076996157E+02  0.81759483555E+03  0.91491503463E+02 0.  0.
          2    1    3    3  502    0 -0.18322477450E+03  0.23364482565E+03  0.18653351197E+02  0.29750490762E+03  0.00000000000E+00 0. -1.
         -1    1    3    3    0  502 -0.72146903004E+03  0.10386853710E+04 -0.79913428010E+02  0.12671902056E+04  0.00000000000E+00 0.  1.
         11    1    5    5    0    0  0.11497980174E+03 -0.22142204820E+03  0.22239951474E+03  0.33422989452E+03  0.00000000000E+00 0. -1.
        -11    1    5    5    0    0  0.19563811594E+03 -0.49860264334E+03  0.65884614274E+03  0.84909193151E+03  0.00000000000E+00 0.  1.
          3    1    6    6  503    0  0.11600686994E+03 -0.12779403576E+03 -0.44542239047E+02  0.17824960171E+03  0.00000000000E+00 0. -1.
         -3    1    6    6    0  503  0.47806901693E+03 -0.42451146935E+03 -0.15347571094E+01  0.63934523384E+03  0.00000000000E+00 0.  1.
<mgrwt>
<rscale>  0 0.34806110E+04</rscale>
<asrwt>0</asrwt>
<pdfrwt beam="1">  1        2 0.33380926E+00 0.34806110E+04</pdfrwt>
<pdfrwt beam="2">  1       -1 0.21474640E+00 0.34806110E+04</pdfrwt>
<totfact> 0.59996398E-01</totfact>
</mgrwt>
</event>
<event>
12    6  0.1586493E-007  0.1387319E+04  0.7818608E-02  0.8963049E-01
          2   -1    0    0  501    0  0.00000000000E+00  0.00000000000E+00  0.42560274331E+03  0.42560274331E+03  0.00000000000E+00 0. -1.
         -1   -1    0    0    0  501 -0.00000000000E+00 -0.00000000000E+00 -0.11305456607E+04  0.11305456607E+04  0.00000000000E+00 0.  1.
         24    2    1    2    0    0  0.29381841872E+03  0.24588994445E+03 -0.26934996040E+03  0.47513844782E+03  0.80100034144E+02 0.  0.
        254    2    1    2    0    0 -0.29381841872E+03 -0.24588994445E+03 -0.43559295703E+03  0.10810099562E+04  0.91216784272E+03 0.  0.
         23    2    4    4    0    0 -0.30708964417E+03  0.29756917714E+03 -0.16255795931E+03  0.46630162836E+03  0.90336336726E+02 0.  0.
         23    2    4    4    0    0  0.13271225457E+02 -0.54345912159E+03 -0.27303499772E+03  0.61470832787E+03  0.88285197602E+02 0.  0.
          4    1    3    3  502    0  0.14220229556E+02  0.10876024382E+02  0.47001809954E+01  0.18509309452E+02  0.00000000000E+00 0. -1.
         -3    1    3    3    0  502  0.27959818916E+03  0.23501392007E+03 -0.27405014140E+03  0.45662913837E+03  0.00000000000E+00 0.  1.
         11    1    5    5    0    0 -0.95918515137E+02  0.77972210387E+02 -0.59653187744E+01  0.12375626112E+03  0.00000000000E+00 0.  1.
        -11    1    5    5    0    0 -0.21117112904E+03  0.21959696675E+03 -0.15659264054E+03  0.34254536724E+03  0.00000000000E+00 0. -1.
          3    1    6    6  503    0 -0.15863404247E+02 -0.46443145735E+03 -0.21249750551E+03  0.51098279425E+03  0.00000000000E+00 0. -1.
         -3    1    6    6    0  503  0.29134629704E+02 -0.79027664238E+02 -0.60537492205E+02  0.10372553362E+03  0.00000000000E+00 0.  1.
<mgrwt>
<rscale>  0 0.13873188E+04</rscale>
<asrwt>0</asrwt>
<pdfrwt beam="1">  1        2 0.65477346E-01 0.13873188E+04</pdfrwt>
<pdfrwt beam="2">  1       -1 0.17393010E+00 0.13873188E+04</pdfrwt>
<totfact> 0.19021009E+01</totfact>
</mgrwt>
</event>
<event>
12    6  0.1586493E-007  0.2402070E+04  0.7818608E-02  0.8438729E-01
          2   -1    0    0  501    0  0.00000000000E+00  0.00000000000E+00  0.13383615668E+04  0.13383615668E+04  0.00000000000E+00 0. -1.
         -1   -1    0    0    0  501 -0.00000000000E+00 -0.00000000000E+00 -0.10777989084E+04  0.10777989084E+04  0.00000000000E+00 0.  1.
         24    2    1    2    0    0  0.20494109602E+03 -0.93194569039E+03 -0.29654120537E+03  0.10020733216E+04  0.75436282435E+02 0.  0.
        254    2    1    2    0    0 -0.20494109602E+03  0.93194569039E+03  0.55710386378E+03  0.14140871535E+04  0.88247047546E+03 0.  0.
         23    2    4    4    0    0  0.31714247661E+03  0.54860793771E+03  0.21648136335E+03  0.67592183969E+03  0.91957234088E+02 0.  0.
         23    2    4    4    0    0 -0.52208357263E+03  0.38333775268E+03  0.34062250043E+03  0.73816531384E+03  0.96670850402E+02 0.  0.
          2    1    3    3  502    0  0.12268763674E+03 -0.38808605885E+03 -0.11798268199E+03  0.42377229562E+03  0.00000000000E+00 0. -1.
         -1    1    3    3    0  502  0.82253459275E+02 -0.54385963154E+03 -0.17855852338E+03  0.57830102598E+03  0.00000000000E+00 0.  1.
         11    1    5    5    0    0  0.79338464890E+02  0.16611944644E+03  0.22229776278E+02  0.18543037898E+03  0.00000000000E+00 0.  1.
        -11    1    5    5    0    0  0.23780401172E+03  0.38248849127E+03  0.19425158707E+03  0.49049146071E+03  0.00000000000E+00 0. -1.
          3    1    6    6  503    0 -0.48077318421E+03  0.31892484662E+03  0.28450586136E+03  0.64327249093E+03  0.00000000000E+00 0. -1.
         -3    1    6    6    0  503 -0.41310388426E+02  0.64412906063E+02  0.56116639065E+02  0.94892822908E+02  0.00000000000E+00 0.  1.
<mgrwt>
<rscale>  0 0.24020696E+04</rscale>
<asrwt>0</asrwt>
<pdfrwt beam="1">  1        2 0.20590178E+00 0.24020696E+04</pdfrwt>
<pdfrwt beam="2">  1       -1 0.16581522E+00 0.24020696E+04</pdfrwt>
<totfact> 0.42515712E+00</totfact>
</mgrwt>
</event>
<event>
12    6  0.1586493E-007  0.1876430E+04  0.7818608E-02  0.8666678E-01
          4   -1    0    0  501    0  0.00000000000E+00  0.00000000000E+00  0.14374123026E+04  0.14374123026E+04  0.00000000000E+00 0. -1.
         -3   -1    0    0    0  501 -0.00000000000E+00 -0.00000000000E+00 -0.61238333166E+03  0.61238333166E+03  0.00000000000E+00 0.  1.
         24    2    1    2    0    0  0.47636931125E+03 -0.18931273423E+03  0.86878095977E+03  0.10119212230E+04  0.80231997939E+02 0.  0.
        254    2    1    2    0    0 -0.47636931125E+03  0.18931273423E+03 -0.43751988851E+02  0.10378744112E+04  0.90138894206E+03 0.  0.
         23    2    4    4    0    0 -0.20747307206E+03  0.51841068646E+03 -0.15288772558E+03  0.58761612934E+03  0.10061482674E+03 0.  0.
         23    2    4    4    0    0 -0.26889623920E+03 -0.32909795223E+03  0.10913573673E+03  0.45025828187E+03  0.10105078794E+03 0.  0.
          4    1    3    3  502    0  0.36483425480E+03 -0.17676809222E+03  0.70773545720E+03  0.81562274937E+03  0.00000000000E+00 0. -1.
         -3    1    3    3    0  502  0.11153505645E+03 -0.12544642008E+02  0.16104550257E+03  0.19629847366E+03  0.00000000000E+00 0.  1.
         11    1    5    5    0    0 -0.61971768458E+02  0.14036283050E+03  0.32916550172E+01  0.15347005983E+03  0.00000000000E+00 0.  1.
        -11    1    5    5    0    0 -0.14550130360E+03  0.37804785596E+03 -0.15617938059E+03  0.43414606951E+03  0.00000000000E+00 0. -1.
          4    1    6    6  503    0 -0.27326328530E+03 -0.33192593699E+03  0.10279656041E+03  0.44205744375E+03  0.00000000000E+00 0. -1.
         -4    1    6    6    0  503  0.43670461059E+01  0.28279847591E+01  0.63391763178E+01  0.82008381204E+01  0.00000000000E+00 0.  1.
<mgrwt>
<rscale>  0 0.18764299E+04</rscale>
<asrwt>0</asrwt>
<pdfrwt beam="1">  1        4 0.22114035E+00 0.18764299E+04</pdfrwt>
<pdfrwt beam="2">  1       -3 0.94212821E-01 0.18764299E+04</pdfrwt>
<totfact> 0.20629954E-01</totfact>
</mgrwt>
</event>
<event>
12    6  0.1586493E-007  0.2764082E+04  0.7818608E-02  0.8314507E-01
         -1   -1    0    0    0  501 -0.00000000000E+00  0.00000000000E+00  0.81359949365E+03  0.81359949365E+03  0.00000000000E+00 0.  1.
          2   -1    0    0  501    0  0.00000000000E+00 -0.00000000000E+00 -0.23476384575E+04  0.23476384575E+04  0.00000000000E+00 0. -1.
         24    2    1    2    0    0 -0.10392688127E+04  0.66315795097E+03 -0.71414431883E+03  0.14270234064E+04  0.80842818285E+02 0.  0.
        254    2    1    2    0    0  0.10392688127E+04 -0.66315795097E+03 -0.81989464499E+03  0.17342145447E+04  0.90300317013E+03 0.  0.
         23    2    4    4    0    0  0.68087457673E+03 -0.73908432684E+03 -0.89660836766E+03  0.13493485875E+04  0.83661306874E+02 0.  0.
         23    2    4    4    0    0  0.35839423597E+03  0.75926375865E+02  0.76713722669E+02  0.38486595721E+03  0.89585528092E+02 0.  0.
          2    1    3    3  502    0 -0.99712701085E+03  0.65339062549E+03 -0.69209834409E+03  0.13784707843E+04  0.00000000000E+00 0. -1.
         -1    1    3    3    0  502 -0.42141801854E+02  0.97673254814E+01 -0.22045974738E+02  0.48552622099E+02  0.00000000000E+00 0.  1.
         11    1    5    5    0    0  0.22484511421E+03 -0.28648220534E+03 -0.36239059584E+03  0.51376485216E+03  0.00000000000E+00 0.  1.
        -11    1    5    5    0    0  0.45602946252E+03 -0.45260212150E+03 -0.53421777181E+03  0.83558373535E+03  0.00000000000E+00 0. -1.
          4    1    6    6  503    0  0.33459239723E+02  0.33025440817E+02  0.24383043273E+02  0.52959732470E+02  0.00000000000E+00 0. -1.
         -4    1    6    6    0  503  0.32493499625E+03  0.42900935048E+02  0.52330679395E+02  0.33190622474E+03  0.00000000000E+00 0.  1.
<mgrwt>
<rscale>  0 0.27640821E+04</rscale>
<asrwt>0</asrwt>
<pdfrwt beam="1">  1        2 0.36117514E+00 0.27640821E+04</pdfrwt>
<pdfrwt beam="2">  1       -1 0.12516916E+00 0.27640821E+04</pdfrwt>
<totfact> 0.23569873E+00</totfact>
</mgrwt>
</event>
<event>
12    6  0.1586493E-007  0.1795966E+04  0.7818608E-02  0.8708448E-01
          2   -1    0    0  501    0  0.00000000000E+00  0.00000000000E+00  0.35039887041E+04  0.35039887041E+04  0.00000000000E+00 0. -1.
         -1   -1    0    0    0  501 -0.00000000000E+00 -0.00000000000E+00 -0.23013013471E+03  0.23013013471E+03  0.00000000000E+00 0.  1.
         24    2    1    2    0    0  0.37902628529E+02 -0.51128455733E+03  0.21142419108E+04  0.21769823275E+04  0.79904249057E+02 0.  0.
        254    2    1    2    0    0 -0.37902628529E+02  0.51128455733E+03  0.11596166586E+04  0.15571365113E+04  0.90394403155E+03 0.  0.
         23    2    4    4    0    0  0.66965105175E+02  0.51999464261E+03  0.17101219685E+03  0.55879144071E+03  0.90132952269E+02 0.  0.
         23    2    4    4    0    0 -0.10486773370E+03 -0.87100852823E+01  0.98860446172E+03  0.99834507059E+03  0.90999950965E+02 0.  0.
          4    1    3    3  502    0  0.56213568019E+02 -0.33737381398E+03  0.14862993690E+04  0.15251448685E+04  0.00000000000E+00 0. -1.
         -3    1    3    3    0  502 -0.18310939490E+02 -0.17391074335E+03  0.62794254180E+03  0.65183745900E+03  0.00000000000E+00 0.  1.
         11    1    5    5    0    0  0.81155406109E+02  0.31173646350E+03  0.12133256661E+03  0.34422000862E+03  0.00000000000E+00 0.  1.
        -11    1    5    5    0    0 -0.14190300934E+02  0.20825817911E+03  0.49679630238E+02  0.21457143209E+03  0.00000000000E+00 0. -1.
          1    1    6    6  503    0 -0.45048690239E+02 -0.35160800009E+02  0.70427661238E+03  0.70659126310E+03  0.00000000000E+00 0. -1.
         -1    1    6    6    0  503 -0.59819043466E+02  0.26450714727E+02  0.28432784934E+03  0.29175380749E+03  0.00000000000E+00 0.  1.
<mgrwt>
<rscale>  0 0.17959659E+04</rscale>
<asrwt>0</asrwt>
<pdfrwt beam="1">  1        2 0.53907515E+00 0.17959659E+04</pdfrwt>
<pdfrwt beam="2">  1       -1 0.35404639E-01 0.17959659E+04</pdfrwt>
<totfact> 0.66565278E+00</totfact>
</mgrwt>
</event>
<event>
12    6  0.1586493E-007  0.2752727E+04  0.7818608E-02  0.8318097E-01
         -1   -1    0    0    0  501 -0.00000000000E+00  0.00000000000E+00  0.47828557533E+03  0.47828557533E+03  0.00000000000E+00 0.  1.
          2   -1    0    0  501    0  0.00000000000E+00 -0.00000000000E+00 -0.39607654783E+04  0.39607654783E+04  0.00000000000E+00 0. -1.
         24    2    1    2    0    0  0.31889957440E+03  0.12801299195E+03 -0.34580859082E+04  0.34760718077E+04  0.81442001520E+02 0.  0.
        254    2    1    2    0    0 -0.31889957440E+03 -0.12801299195E+03 -0.24393994765E+02  0.96297924586E+03  0.89924951838E+03 0.  0.
         23    2    4    4    0    0 -0.12742537364E+03  0.24124333793E+03 -0.33089962906E+03  0.43839635355E+03  0.90891277637E+02 0.  0.
         23    2    4    4    0    0 -0.19147420076E+03 -0.36925632989E+03  0.30650563430E+03  0.52458289230E+03  0.90713286349E+02 0.  0.
          2    1    3    3  502    0  0.15008828516E+03  0.31459722995E+02 -0.18295181834E+04  0.18359338199E+04  0.00000000000E+00 0. -1.
         -1    1    3    3    0  502  0.16881128924E+03  0.96553268957E+02 -0.16285677247E+04  0.16401379879E+04  0.00000000000E+00 0.  1.
         11    1    5    5    0    0 -0.48449737306E+01  0.74898272884E+02 -0.13052412639E+03  0.15056484524E+03  0.00000000000E+00 0.  1.
        -11    1    5    5    0    0 -0.12258039991E+03  0.16634506505E+03 -0.20037550267E+03  0.28783150832E+03  0.00000000000E+00 0. -1.
          2    1    6    6  503    0 -0.11046874750E+03 -0.29785723046E+03  0.22483954590E+03  0.38919801555E+03  0.00000000000E+00 0. -1.
         -2    1    6    6    0  503 -0.81005453266E+02 -0.71399099428E+02  0.81666088402E+02  0.13538487675E+03  0.00000000000E+00 0.  1.
<mgrwt>
<rscale>  0 0.27527274E+04</rscale>
<asrwt>0</asrwt>
<pdfrwt beam="1">  1        2 0.60934852E+00 0.27527274E+04</pdfrwt>
<pdfrwt beam="2">  1       -1 0.73582398E-01 0.27527274E+04</pdfrwt>
<totfact> 0.68039337E-01</totfact>
</mgrwt>
</event>
<event>
12    6  0.1586493E-007  0.3313591E+04  0.7818608E-02  0.8159446E-01
          2   -1    0    0  501    0  0.00000000000E+00  0.00000000000E+00  0.38971837169E+04  0.38971837169E+04  0.00000000000E+00 0. -1.
         -1   -1    0    0    0  501 -0.00000000000E+00 -0.00000000000E+00 -0.70434724888E+03  0.70434724888E+03  0.00000000000E+00 0.  1.
         24    2    1    2    0    0 -0.62466377171E+03  0.13430528517E+04  0.20275272239E+04  0.25122979993E+04  0.82333488867E+02 0.  0.
        254    2    1    2    0    0  0.62466377171E+03 -0.13430528517E+04  0.11653092442E+04  0.20892329665E+04  0.90163904298E+03 0.  0.
         23    2    4    4    0    0 -0.67220532489E+02 -0.12609246585E+03 -0.10306750061E+03  0.19802084411E+03  0.90395990432E+02 0.  0.
         23    2    4    4    0    0  0.69188430420E+03 -0.12169603858E+04  0.12683767448E+04  0.18912121224E+04  0.90593897542E+02 0.  0.
          2    1    3    3  502    0 -0.57619441637E+03  0.12817307229E+04  0.19251789184E+04  0.23835157897E+04  0.00000000000E+00 0. -1.
         -1    1    3    3    0  502 -0.48469355335E+02  0.61322128759E+02  0.10234830545E+03  0.12878220960E+03  0.00000000000E+00 0.  1.
         11    1    5    5    0    0  0.99256894085E+00 -0.53698396824E+02  0.14630806884E+01  0.53727494076E+02  0.00000000000E+00 0.  1.
        -11    1    5    5    0    0 -0.68213101430E+02 -0.72394069030E+02 -0.10453058129E+03  0.14429335003E+03  0.00000000000E+00 0. -1.
          3    1    6    6  503    0  0.66518357382E+03 -0.11568799811E+04  0.12312144120E+04  0.18156897879E+04  0.00000000000E+00 0. -1.
         -3    1    6    6    0  503  0.26700730382E+02 -0.60080404738E+02  0.37162332732E+02  0.75522334514E+02  0.00000000000E+00 0.  1.
<mgrwt>
<rscale>  0 0.33135906E+04</rscale>
<asrwt>0</asrwt>
<pdfrwt beam="1">  1        2 0.59956671E+00 0.33135906E+04</pdfrwt>
<pdfrwt beam="2">  1       -1 0.10836112E+00 0.33135906E+04</pdfrwt>
<totfact> 0.30883125E-01</totfact>
</mgrwt>
</event>
<event>
12    6  0.1586493E-007  0.1414337E+04  0.7818608E-02  0.8943506E-01
          2   -1    0    0  501    0  0.00000000000E+00  0.00000000000E+00  0.10429450601E+04  0.10429450601E+04  0.00000000000E+00 0. -1.
         -1   -1    0    0    0  501 -0.00000000000E+00 -0.00000000000E+00 -0.47949501571E+03  0.47949501571E+03  0.00000000000E+00 0.  1.
         24    2    1    2    0    0  0.10331857850E+02 -0.10980917119E+03  0.60203678793E+03  0.61768710559E+03  0.83212168787E+02 0.  0.
        254    2    1    2    0    0 -0.10331857850E+02  0.10980917119E+03 -0.38586743524E+02  0.90475297023E+03  0.89717567901E+03 0.  0.
         23    2    4    4    0    0  0.83865606194E+02  0.70929661708E+02 -0.44956997235E+03  0.47188219858E+03  0.92169368498E+02 0.  0.
         23    2    4    4    0    0 -0.94197464043E+02  0.38879509480E+02  0.41098322882E+03  0.43287077165E+03  0.89917251335E+02 0.  0.
          4    1    3    3  502    0 -0.19577827710E+02 -0.10412048692E+03  0.42210480051E+03  0.43519746064E+03  0.00000000000E+00 0. -1.
         -3    1    3    3    0  502  0.29909685560E+02 -0.56886842691E+01  0.17993198742E+03  0.18248964495E+03  0.00000000000E+00 0.  1.
         11    1    5    5    0    0  0.12184186594E+02  0.62162356159E+02 -0.13490486830E+03  0.14903669486E+03  0.00000000000E+00 0. -1.
        -11    1    5    5    0    0  0.71681419600E+02  0.87673055492E+01 -0.31466510405E+03  0.32284550372E+03  0.00000000000E+00 0.  1.
          2    1    6    6  503    0 -0.33806043134E+02 -0.28937370541E+02  0.15480403040E+03  0.16107298902E+03  0.00000000000E+00 0. -1.
         -2    1    6    6    0  503 -0.60391420909E+02  0.67816880021E+02  0.25617919843E+03  0.27179778263E+03  0.00000000000E+00 0.  1.
<mgrwt>
<rscale>  0 0.14143365E+04</rscale>
<asrwt>0</asrwt>
<pdfrwt beam="1">  1        2 0.16045309E+00 0.14143365E+04</pdfrwt>
<pdfrwt beam="2">  1       -1 0.73768464E-01 0.14143365E+04</pdfrwt>
<totfact> 0.48558125E+01</totfact>
</mgrwt>
</event>
<event>
12    6  0.1586493E-007  0.1848938E+04  0.7818608E-02  0.8680699E-01
         -1   -1    0    0    0  501 -0.00000000000E+00  0.00000000000E+00  0.78058108404E+03  0.78058108404E+03  0.00000000000E+00 0.  1.
          2   -1    0    0  501    0  0.00000000000E+00 -0.00000000000E+00 -0.10948808004E+04  0.10948808004E+04  0.00000000000E+00 0. -1.
         24    2    1    2    0    0 -0.36713747630E+03 -0.28756367631E+03 -0.65092615423E+03  0.80479116162E+03  0.80629778188E+02 0.  0.
        254    2    1    2    0    0  0.36713747630E+03  0.28756367631E+03  0.33662643785E+03  0.10706707228E+04  0.90307012111E+03 0.  0.
         23    2    4    4    0    0  0.22847827992E+03 -0.27554637331E+03  0.30838051771E+03  0.48299184095E+03  0.10027186290E+03 0.  0.
         23    2    4    4    0    0  0.13865919638E+03  0.56311004961E+03  0.28245920142E+02  0.58767888188E+03  0.90825852538E+02 0.  0.
          2    1    3    3  502    0 -0.28366918498E+03 -0.23380193845E+03 -0.56175219177E+03  0.67133976337E+03  0.00000000000E+00 0. -1.
         -1    1    3    3    0  502 -0.83468291320E+02 -0.53761737860E+02 -0.89173962457E+02  0.13345139825E+03  0.00000000000E+00 0.  1.
         11    1    5    5    0    0  0.12502007925E+03 -0.18417701543E+03  0.24525919249E+03  0.33121483169E+03  0.00000000000E+00 0. -1.
        -11    1    5    5    0    0  0.10345820067E+03 -0.91369357874E+02  0.63121325215E+02  0.15177700927E+03  0.00000000000E+00 0.  1.
          4    1    6    6  503    0  0.10486192265E+03  0.29101693458E+03 -0.16939649175E+02  0.30979643437E+03  0.00000000000E+00 0. -1.
         -4    1    6    6    0  503  0.33797273724E+02  0.27209311503E+03  0.45185569318E+02  0.27788244751E+03  0.00000000000E+00 0.  1.
<mgrwt>
<rscale>  0 0.18489383E+04</rscale>
<asrwt>0</asrwt>
<pdfrwt beam="1">  1        2 0.16844320E+00 0.18489383E+04</pdfrwt>
<pdfrwt beam="2">  1       -1 0.12008940E+00 0.18489383E+04</pdfrwt>
<totfact> 0.14546922E+01</totfact>
</mgrwt>
</event>
<event>
12    6  0.1586493E-007  0.1301781E+04  0.7818608E-02  0.9028154E-01
          2   -1    0    0  501    0  0.00000000000E+00  0.00000000000E+00  0.17267622433E+04  0.17267622433E+04  0.00000000000E+00 0. -1.
         -1   -1    0    0    0  501 -0.00000000000E+00 -0.00000000000E+00 -0.24534828437E+03  0.24534828437E+03  0.00000000000E+00 0.  1.
         24    2    1    2    0    0  0.46097820824E+02  0.28128003919E+03  0.11367428231E+03  0.31616772423E+03  0.76136179685E+02 0.  0.
        254    2    1    2    0    0 -0.46097820824E+02 -0.28128003919E+03  0.13677396766E+04  0.16559428034E+04  0.88892703620E+03 0.  0.
         23    2    4    4    0    0 -0.28524794513E+03 -0.39817383004E+03  0.12619847023E+04  0.13567853581E+04  0.91391082383E+02 0.  0.
         23    2    4    4    0    0  0.23915012431E+03  0.11689379085E+03  0.10575497423E+03  0.29915744527E+03  0.86337258395E+02 0.  0.
          4    1    3    3  502    0  0.22563970514E+02  0.69653787311E+02  0.64630006908E+02  0.97661766547E+02  0.00000000000E+00 0. -1.
         -3    1    3    3    0  502  0.23533850310E+02  0.21162625188E+03  0.49044275399E+02  0.21850595769E+03  0.00000000000E+00 0.  1.
         11    1    5    5    0    0 -0.21095540362E+03 -0.24408738516E+03  0.73372366647E+03  0.80151809252E+03  0.00000000000E+00 0.  1.
        -11    1    5    5    0    0 -0.74292541510E+02 -0.15408644489E+03  0.52826103588E+03  0.55526726560E+03  0.00000000000E+00 0. -1.
          1    1    6    6  503    0  0.11468231846E+03  0.71967857776E+02  0.98903938642E+01  0.13575428763E+03  0.00000000000E+00 0. -1.
         -1    1    6    6    0  503  0.12446780585E+03  0.44925933075E+02  0.95864580366E+02  0.16340315764E+03  0.00000000000E+00 0.  1.
<mgrwt>
<rscale>  0 0.13017806E+04</rscale>
<asrwt>0</asrwt>
<pdfrwt beam="1">  1        2 0.26565572E+00 0.13017806E+04</pdfrwt>
<pdfrwt beam="2">  1       -1 0.37745891E-01 0.13017806E+04</pdfrwt>
<totfact> 0.71635294E+01</totfact>
</mgrwt>
</event>
<event>
12    6  0.1586493E-007  0.2713040E+04  0.7818608E-02  0.8330786E-01
         -1   -1    0    0    0  501 -0.00000000000E+00  0.00000000000E+00  0.55190370219E+03  0.55190370219E+03  0.00000000000E+00 0.  1.
          2   -1    0    0  501    0  0.00000000000E+00 -0.00000000000E+00 -0.33341799381E+04  0.33341799381E+04  0.00000000000E+00 0. -1.
         24    2    1    2    0    0 -0.59314767820E+03 -0.10402976414E+04 -0.10379710326E+04  0.15868185952E+04  0.81031095808E+02 0.  0.
        254    2    1    2    0    0  0.59314767820E+03  0.10402976414E+04 -0.17443052032E+04  0.22992650451E+04  0.89998653023E+03 0.  0.
         23    2    4    4    0    0  0.52410247118E+03  0.86939011667E+03 -0.18153184477E+04  0.20819933410E+04  0.93769025823E+02 0.  0.
         23    2    4    4    0    0  0.69045207017E+02  0.17090752476E+03  0.71013244433E+02  0.21727170410E+03  0.90484749461E+02 0.  0.
          4    1    3    3  502    0 -0.35644166605E+03 -0.58924049207E+03 -0.64381527396E+03  0.94273703957E+03  0.00000000000E+00 0. -1.
         -3    1    3    3    0  502 -0.23670601214E+03 -0.45105714936E+03 -0.39415575868E+03  0.64408155561E+03  0.00000000000E+00 0.  1.
         11    1    5    5    0    0  0.93086375760E+02  0.95023240473E+02 -0.25138484547E+03  0.28440961678E+03  0.00000000000E+00 0.  1.
        -11    1    5    5    0    0  0.43101609542E+03  0.77436687620E+03 -0.15639336022E+04  0.17975837242E+04  0.00000000000E+00 0. -1.
          2    1    6    6  503    0  0.70929101342E+02  0.56667089100E+02  0.37257240937E+02  0.98133574308E+02  0.00000000000E+00 0. -1.
         -2    1    6    6    0  503 -0.18838943257E+01  0.11424043566E+03  0.33756003496E+02  0.11913812979E+03  0.00000000000E+00 0.  1.
<mgrwt>
<rscale>  0 0.27130398E+04</rscale>
<asrwt>0</asrwt>
<pdfrwt beam="1">  1        2 0.51295076E+00 0.27130398E+04</pdfrwt>
<pdfrwt beam="2">  1       -1 0.84908262E-01 0.27130398E+04</pdfrwt>
<totfact> 0.14443468E+00</totfact>
</mgrwt>
</event>
<event>
12    6  0.1586493E-007  0.2818675E+04  0.7818608E-02  0.8297494E-01
         -1   -1    0    0    0  501 -0.00000000000E+00  0.00000000000E+00  0.12919164819E+04  0.12919164819E+04  0.00000000000E+00 0.  1.
          2   -1    0    0  501    0  0.00000000000E+00 -0.00000000000E+00 -0.15374307911E+04  0.15374307911E+04  0.00000000000E+00 0. -1.
         24    2    1    2    0    0  0.13829908523E+02  0.10003428614E+04  0.66616173095E+03  0.12045682343E+04  0.79599450942E+02 0.  0.
        254    2    1    2    0    0 -0.13829908523E+02 -0.10003428614E+04 -0.91167604009E+03  0.16247790387E+04  0.89881956804E+03 0.  0.
         23    2    4    4    0    0  0.10034592001E+03 -0.38709222703E+03 -0.90478672391E+03  0.99407064405E+03  0.98121015649E+02 0.  0.
         23    2    4    4    0    0 -0.11417582854E+03 -0.61325063432E+03 -0.68893161831E+01  0.63070839465E+03  0.92914778615E+02 0.  0.
          2    1    3    3  502    0  0.13891462001E+02  0.94213851642E+03  0.60296989439E+03  0.11186557336E+04  0.00000000000E+00 0. -1.
         -1    1    3    3    0  502 -0.61553478078E-01  0.58204344935E+02  0.63191836564E+02  0.85912500642E+02  0.00000000000E+00 0.  1.
         11    1    5    5    0    0  0.40151903705E+02 -0.98528793755E+02 -0.35027573787E+03  0.36607812160E+03  0.00000000000E+00 0.  1.
        -11    1    5    5    0    0  0.60194016309E+02 -0.28856343328E+03 -0.55451098603E+03  0.62799252245E+03  0.00000000000E+00 0. -1.
          4    1    6    6  503    0 -0.11546636831E+03 -0.43838114629E+03  0.20026948690E+02  0.45377482335E+03  0.00000000000E+00 0. -1.
         -4    1    6    6    0  503  0.12905397750E+01 -0.17486948803E+03 -0.26916264873E+02  0.17693357130E+03  0.00000000000E+00 0.  1.
<mgrwt>
<rscale>  0 0.28186750E+04</rscale>
<asrwt>0</asrwt>
<pdfrwt beam="1">  1        2 0.23652781E+00 0.28186750E+04</pdfrwt>
<pdfrwt beam="2">  1       -1 0.19875638E+00 0.28186750E+04</pdfrwt>
<totfact> 0.18364173E+00</totfact>
</mgrwt>
</event>
<event>
12    6  0.1586493E-007  0.1342826E+04  0.7818608E-02  0.8996277E-01
          2   -1    0    0  501    0  0.00000000000E+00  0.00000000000E+00  0.20106341337E+03  0.20106341337E+03  0.00000000000E+00 0. -1.
         -1   -1    0    0    0  501 -0.00000000000E+00 -0.00000000000E+00 -0.22420544439E+04  0.22420544439E+04  0.00000000000E+00 0.  1.
         24    2    1    2    0    0  0.52567472215E+02  0.12891437083E+03 -0.11675294903E+04  0.11784599002E+04  0.79122508896E+02 0.  0.
        254    2    1    2    0    0 -0.52567472215E+02 -0.12891437083E+03 -0.87346154024E+03  0.12646579571E+04  0.90390399497E+03 0.  0.
         23    2    4    4    0    0 -0.25535337473E+03  0.29623395105E+03 -0.56958831461E+03  0.69694134272E+03  0.91304366381E+02 0.  0.
         23    2    4    4    0    0  0.20278590252E+03 -0.42514832188E+03 -0.30387322564E+03  0.56771661441E+03  0.89944422617E+02 0.  0.
          2    1    3    3  502    0  0.11956666112E+02  0.30997458053E+02 -0.93792379479E+02  0.99502837741E+02  0.00000000000E+00 0. -1.
         -1    1    3    3    0  502  0.40610806103E+02  0.97916912778E+02 -0.10737371108E+04  0.10789570624E+04  0.00000000000E+00 0.  1.
         11    1    5    5    0    0 -0.16195543801E+03  0.19959791741E+03 -0.44381256675E+03  0.51287277851E+03  0.00000000000E+00 0.  1.
        -11    1    5    5    0    0 -0.93397936726E+02  0.96636033641E+02 -0.12577574786E+03  0.18406856422E+03  0.00000000000E+00 0. -1.
          3    1    6    6  503    0  0.11936986227E+03 -0.16107968115E+03 -0.15417869914E+03  0.25291678269E+03  0.00000000000E+00 0. -1.
         -3    1    6    6    0  503  0.83416040249E+02 -0.26406864073E+03 -0.14969452649E+03  0.31479983172E+03  0.00000000000E+00 0.  1.
<mgrwt>
<rscale>  0 0.13428256E+04</rscale>
<asrwt>0</asrwt>
<pdfrwt beam="1">  1        2 0.30932832E-01 0.13428256E+04</pdfrwt>
<pdfrwt beam="2">  1       -1 0.34493146E+00 0.13428256E+04</pdfrwt>
<totfact> 0.32601263E+00</totfact>
</mgrwt>
</event>
<event>
12    6  0.1586493E-007  0.1182167E+04  0.7818608E-02  0.9128611E-01
          2   -1    0    0  501    0  0.00000000000E+00  0.00000000000E+00  0.20392078049E+04  0.20392078049E+04  0.00000000000E+00 0. -1.
         -1   -1    0    0    0  501 -0.00000000000E+00 -0.00000000000E+00 -0.17133101338E+03  0.17133101338E+03  0.00000000000E+00 0.  1.
         24    2    1    2    0    0 -0.17329178865E+03  0.15573165415E+03  0.49373927489E+03  0.55036435837E+03  0.69570563277E+02 0.  0.
        254    2    1    2    0    0  0.17329178865E+03 -0.15573165415E+03  0.13741375166E+04  0.16601744599E+04  0.90202157990E+03 0.  0.
         23    2    4    4    0    0  0.23257101269E+03 -0.23420097727E+03  0.14618529092E+04  0.15013715125E+04  0.90349967455E+02 0.  0.
         23    2    4    4    0    0 -0.59279224043E+02  0.78469323125E+02 -0.87715392588E+02  0.15880294742E+03  0.88616730576E+02 0.  0.
          2    1    3    3  502    0 -0.80202525967E+02  0.71348754200E+02  0.30757177485E+03  0.32576599973E+03  0.00000000000E+00 0. -1.
         -1    1    3    3    0  502 -0.93089262682E+02  0.84382899948E+02  0.18616750005E+03  0.22459835864E+03  0.00000000000E+00 0.  1.
         11    1    5    5    0    0  0.26366880908E+02  0.40192926693E+00  0.18504833353E+03  0.18691778861E+03  0.00000000000E+00 0.  1.
        -11    1    5    5    0    0  0.20620413178E+03 -0.23460290654E+03  0.12768045757E+04  0.13144537239E+04  0.00000000000E+00 0. -1.
          1    1    6    6  503    0 -0.50315616815E+02  0.83550895828E+02 -0.10204197367E+03  0.14115586378E+03  0.00000000000E+00 0. -1.
         -1    1    6    6    0  503 -0.89636072289E+01 -0.50815727032E+01  0.14326581079E+02  0.17647083643E+02  0.00000000000E+00 0.  1.
<mgrwt>
<rscale>  0 0.11821667E+04</rscale>
<asrwt>0</asrwt>
<pdfrwt beam="1">  1        2 0.31372426E+00 0.11821667E+04</pdfrwt>
<pdfrwt beam="2">  1       -1 0.26358619E-01 0.11821667E+04</pdfrwt>
<totfact> 0.91580546E+01</totfact>
</mgrwt>
</event>
<event>
12    6  0.1586493E-007  0.1215461E+04  0.7818608E-02  0.9099430E-01
          2   -1    0    0  501    0  0.00000000000E+00  0.00000000000E+00  0.35632517097E+04  0.35632517097E+04  0.00000000000E+00 0. -1.
         -1   -1    0    0    0  501 -0.00000000000E+00 -0.00000000000E+00 -0.10365153873E+03  0.10365153873E+03  0.00000000000E+00 0.  1.
         24    2    1    2    0    0  0.28246080431E+02 -0.21316049108E+03  0.11407623420E+04  0.11633859823E+04  0.76765792084E+02 0.  0.
        254    2    1    2    0    0 -0.28246080431E+02  0.21316049108E+03  0.23188378289E+04  0.25035172661E+04  0.91888769107E+03 0.  0.
         23    2    4    4    0    0  0.79784615301E+02  0.45328898398E+03  0.59836252071E+03  0.76062360075E+03  0.93134676682E+02 0.  0.
         23    2    4    4    0    0 -0.10803069573E+03 -0.24012849289E+03  0.17204753082E+04  0.17428936654E+04  0.91163140651E+02 0.  0.
          4    1    3    3  502    0  0.30267848949E+02 -0.21923586246E+03  0.10916716720E+04  0.11138795022E+04  0.00000000000E+00 0. -1.
         -3    1    3    3    0  502 -0.20217685173E+01  0.60753713722E+01  0.49090670033E+02  0.49506480076E+02  0.00000000000E+00 0.  1.
         11    1    5    5    0    0  0.50210332478E+02  0.83147867076E+02  0.10348061206E+03  0.14192562263E+03  0.00000000000E+00 0.  1.
        -11    1    5    5    0    0  0.29574282823E+02  0.37014111690E+03  0.49488190865E+03  0.61869797812E+03  0.00000000000E+00 0. -1.
          2    1    6    6  503    0 -0.33519034488E+02 -0.17756566687E+03  0.11738740811E+04  0.11877009093E+04  0.00000000000E+00 0. -1.
         -2    1    6    6    0  503 -0.74511661244E+02 -0.62562826026E+02  0.54660122716E+03  0.55519275607E+03  0.00000000000E+00 0.  1.
<mgrwt>
<rscale>  0 0.12154613E+04</rscale>
<asrwt>0</asrwt>
<pdfrwt beam="1">  1        2 0.54819248E+00 0.12154613E+04</pdfrwt>
<pdfrwt beam="2">  1       -1 0.15946393E-01 0.12154613E+04</pdfrwt>
<totfact> 0.25176196E+01</totfact>
</mgrwt>
</event>
<event>
12    6  0.1586493E-007  0.2171810E+04  0.7818608E-02  0.8530254E-01
          2   -1    0    0  501    0  0.00000000000E+00  0.00000000000E+00  0.71593897276E+03  0.71593897276E+03  0.00000000000E+00 0. -1.
         -1   -1    0    0    0  501 -0.00000000000E+00 -0.00000000000E+00 -0.16470534410E+04  0.16470534410E+04  0.00000000000E+00 0.  1.
         24    2    1    2    0    0  0.47743288471E+03  0.17730555406E+03 -0.11863715474E+04  0.12935999859E+04  0.80895341424E+02 0.  0.
        254    2    1    2    0    0 -0.47743288471E+03 -0.17730555406E+03  0.25525707911E+03  0.10693924279E+04  0.90502186129E+03 0.  0.
         23    2    4    4    0    0 -0.27337209316E+03  0.74966453899E+02 -0.29821038557E+03  0.42140054406E+03  0.91086299405E+02 0.  0.
         23    2    4    4    0    0 -0.20406079155E+03 -0.25227200796E+03  0.55346746468E+03  0.64799188380E+03  0.91023482472E+02 0.  0.
          4    1    3    3  502    0  0.55157616414E+02  0.50154876574E+02 -0.18171379389E+03  0.19641226332E+03  0.00000000000E+00 0. -1.
         -3    1    3    3    0  502  0.42227526830E+03  0.12715067749E+03 -0.10046577535E+04  0.10971877226E+04  0.00000000000E+00 0.  1.
         11    1    5    5    0    0  0.37295794836E+01 -0.45533552482E+01  0.92739870113E+00  0.59584289449E+01  0.00000000000E+00 0.  1.
        -11    1    5    5    0    0 -0.27710167264E+03  0.79519809148E+02 -0.29913778427E+03  0.41544211511E+03  0.00000000000E+00 0. -1.
          1    1    6    6  503    0 -0.59036794290E+02 -0.53958914356E+02  0.21779161530E+03  0.23201313586E+03  0.00000000000E+00 0. -1.
         -1    1    6    6    0  503 -0.14502399726E+03 -0.19831309361E+03  0.33567584938E+03  0.41597874794E+03  0.00000000000E+00 0.  1.
<mgrwt>
<rscale>  0 0.21718101E+04</rscale>
<asrwt>0</asrwt>
<pdfrwt beam="1">  1        2 0.11014446E+00 0.21718101E+04</pdfrwt>
<pdfrwt beam="2">  1       -1 0.25339284E+00 0.21718101E+04</pdfrwt>
<totfact> 0.27579244E+00</totfact>
</mgrwt>
</event>
<event>
12    6  0.1586493E-007  0.1161087E+04  0.7818608E-02  0.9147616E-01
         -1   -1    0    0    0  501 -0.00000000000E+00  0.00000000000E+00  0.12797082411E+03  0.12797082411E+03  0.00000000000E+00 0.  1.
          2   -1    0    0  501    0  0.00000000000E+00 -0.00000000000E+00 -0.26336525165E+04  0.26336525165E+04  0.00000000000E+00 0. -1.
         24    2    1    2    0    0 -0.24767103397E+02 -0.71799145805E+02 -0.13786922633E+02  0.11162563138E+03  0.80632968416E+02 0.  0.
        254    2    1    2    0    0  0.24767103397E+02  0.71799145805E+02 -0.24918947698E+04  0.26499977093E+04  0.89843184974E+03 0.  0.
         23    2    4    4    0    0 -0.32596282244E+03 -0.14928158154E+03 -0.55580969521E+03  0.66795111617E+03  0.93260517385E+02 0.  0.
         23    2    4    4    0    0  0.35072992583E+03  0.22108072735E+03 -0.19360850746E+04  0.19820465931E+04  0.90526859479E+02 0.  0.
          2    1    3    3  502    0 -0.54278577022E+01 -0.55158371936E+02 -0.44942669399E+02  0.71356507528E+02  0.00000000000E+00 0. -1.
         -1    1    3    3    0  502 -0.19339245695E+02 -0.16640773869E+02  0.31155746766E+02  0.40269123849E+02  0.00000000000E+00 0.  1.
         11    1    5    5    0    0 -0.38910733459E+02 -0.33714690674E+02 -0.35363087777E+02  0.62460175493E+02  0.00000000000E+00 0. -1.
        -11    1    5    5    0    0 -0.28705208898E+03 -0.11556689087E+03 -0.52044660743E+03  0.60549094067E+03  0.00000000000E+00 0.  1.
          4    1    6    6  503    0  0.17575786566E+03  0.16040576215E+03 -0.11624733843E+04  0.11865770962E+04  0.00000000000E+00 0. -1.
         -4    1    6    6    0  503  0.17497206018E+03  0.60674965200E+02 -0.77361169026E+03  0.79546949693E+03  0.00000000000E+00 0.  1.
<mgrwt>
<rscale>  0 0.11610869E+04</rscale>
<asrwt>0</asrwt>
<pdfrwt beam="1">  1        2 0.40517729E+00 0.11610869E+04</pdfrwt>
<pdfrwt beam="2">  1       -1 0.19687820E-01 0.11610869E+04</pdfrwt>
<totfact> 0.69437789E+01</totfact>
</mgrwt>
</event>
<event>
12    6  0.1586493E-007  0.1670722E+04  0.7818608E-02  0.8778241E-01
          2   -1    0    0  501    0  0.00000000000E+00  0.00000000000E+00  0.10455026991E+04  0.10455026991E+04  0.00000000000E+00 0. -1.
         -1   -1    0    0    0  501 -0.00000000000E+00 -0.00000000000E+00 -0.66745688335E+03  0.66745688335E+03  0.00000000000E+00 0.  1.
         24    2    1    2    0    0  0.42704202829E+03  0.39182956802E+03  0.19855766293E+02  0.58542043845E+03  0.80171902811E+02 0.  0.
        254    2    1    2    0    0 -0.42704202829E+03 -0.39182956802E+03  0.35819004948E+03  0.11275391440E+04  0.89841477361E+03 0.  0.
         23    2    4    4    0    0  0.54435685787E+00  0.24739439474E+03 -0.23191398319E+02  0.26436144202E+03  0.90248812740E+02 0.  0.
         23    2    4    4    0    0 -0.42758638515E+03 -0.63922396276E+03  0.38138144780E+03  0.86317770200E+03  0.90479528974E+02 0.  0.
          2    1    3    3  502    0  0.26394209124E+03  0.27706247754E+03  0.41094824455E+02  0.38486079118E+03  0.00000000000E+00 0. -1.
         -1    1    3    3    0  502  0.16309993705E+03  0.11476709048E+03 -0.21239058161E+02  0.20055964727E+03  0.00000000000E+00 0.  1.
         11    1    5    5    0    0 -0.28523725764E+02  0.22060792073E+03 -0.29294671143E+02  0.22436496023E+03  0.00000000000E+00 0. -1.
        -11    1    5    5    0    0  0.29068082621E+02  0.26786474010E+02  0.61032728235E+01  0.39996481799E+02  0.00000000000E+00 0.  1.
          2    1    6    6  503    0 -0.31660197208E+03 -0.40623845757E+03  0.27694083451E+03  0.58477578520E+03  0.00000000000E+00 0. -1.
         -2    1    6    6    0  503 -0.11098441307E+03 -0.23298550519E+03  0.10444061330E+03  0.27840191680E+03  0.00000000000E+00 0.  1.
<mgrwt>
<rscale>  0 0.16707220E+04</rscale>
<asrwt>0</asrwt>
<pdfrwt beam="1">  1        2 0.16084657E+00 0.16707220E+04</pdfrwt>
<pdfrwt beam="2">  1       -1 0.10268567E+00 0.16707220E+04</pdfrwt>
<totfact> 0.22988877E+01</totfact>
</mgrwt>
</event>
<event>
12    6  0.1586493E-007  0.1340952E+04  0.7818608E-02  0.8997706E-01
         -1   -1    0    0    0  501 -0.00000000000E+00  0.00000000000E+00  0.48840277239E+03  0.48840277239E+03  0.00000000000E+00 0.  1.
          2   -1    0    0  501    0  0.00000000000E+00 -0.00000000000E+00 -0.92042469492E+03  0.92042469492E+03  0.00000000000E+00 0. -1.
         24    2    1    2    0    0  0.26564289529E+03  0.21936101962E+01  0.13672838700E+03  0.30870928031E+03  0.77690463977E+02 0.  0.
        254    2    1    2    0    0 -0.26564289529E+03 -0.21936101962E+01 -0.56875030954E+03  0.11001181870E+04  0.90344460319E+03 0.  0.
         23    2    4    4    0    0 -0.24968861415E+02 -0.23082508379E+03  0.15867334739E+03  0.29536165696E+03  0.90319509979E+02 0.  0.
         23    2    4    4    0    0 -0.24067403387E+03  0.22863147359E+03 -0.72742365694E+03  0.80475653004E+03  0.91057974301E+02 0.  0.
          2    1    3    3  502    0  0.13631696582E+03 -0.35430049592E+02  0.55254091883E+02  0.15129645817E+03  0.00000000000E+00 0. -1.
         -1    1    3    3    0  502  0.12932592947E+03  0.37623659788E+02  0.81474295120E+02  0.15741282214E+03  0.00000000000E+00 0.  1.
         11    1    5    5    0    0 -0.17965706000E+02 -0.26409594556E+01  0.24717867859E+02  0.30671065362E+02  0.00000000000E+00 0. -1.
        -11    1    5    5    0    0 -0.70031554150E+01 -0.22818412433E+03  0.13395547953E+03  0.26469059160E+03  0.00000000000E+00 0.  1.
          3    1    6    6  503    0 -0.34369714656E+02 -0.10494668875E+01 -0.55313241078E+02  0.65130125939E+02  0.00000000000E+00 0. -1.
         -3    1    6    6    0  503 -0.20630431921E+03  0.22968094048E+03 -0.67211041586E+03  0.73962640411E+03  0.00000000000E+00 0.  1.
<mgrwt>
<rscale>  0 0.13409519E+04</rscale>
<asrwt>0</asrwt>
<pdfrwt beam="1">  1        2 0.14160380E+00 0.13409519E+04</pdfrwt>
<pdfrwt beam="2">  1       -1 0.75138888E-01 0.13409519E+04</pdfrwt>
<totfact> 0.56445346E+01</totfact>
</mgrwt>
</event>
<event>
12    6  0.1586493E-007  0.1298131E+04  0.7818608E-02  0.9031048E-01
          2   -1    0    0  501    0  0.00000000000E+00  0.00000000000E+00  0.70399240872E+03  0.70399240872E+03  0.00000000000E+00 0. -1.
         -1   -1    0    0    0  501 -0.00000000000E+00 -0.00000000000E+00 -0.59842442829E+03  0.59842442829E+03  0.00000000000E+00 0.  1.
         24    2    1    2    0    0  0.27791184028E+03  0.23959312850E+02 -0.24789167757E+03  0.38120990878E+03  0.77856734502E+02 0.  0.
        254    2    1    2    0    0 -0.27791184028E+03 -0.23959312850E+02  0.35345965800E+03  0.92120692824E+03  0.80366624613E+03 0.  0.
         23    2    4    4    0    0 -0.81614165783E+02  0.53668461400E+01 -0.25006362656E+03  0.27940149932E+03  0.94040977242E+02 0.  0.
         23    2    4    4    0    0 -0.19629767449E+03 -0.29326158990E+02  0.60352328456E+03  0.64180542891E+03  0.91000290997E+02 0.  0.
          2    1    3    3  502    0  0.83173830038E+01  0.20400014836E+01  0.58228036887E+01  0.10355940753E+02  0.00000000000E+00 0. -1.
         -1    1    3    3    0  502  0.26959445727E+03  0.21919311366E+02 -0.25371448125E+03  0.37085396803E+03  0.00000000000E+00 0.  1.
         11    1    5    5    0    0 -0.83448587031E+02  0.18721252982E+02 -0.25169062418E+03  0.26582385576E+03  0.00000000000E+00 0. -1.
        -11    1    5    5    0    0  0.18344212488E+01 -0.13354406842E+02  0.16269976200E+01  0.13577643561E+02  0.00000000000E+00 0.  1.
          4    1    6    6  503    0 -0.20610690169E+03 -0.25000552840E+02  0.57483120410E+03  0.61117591230E+03  0.00000000000E+00 0. -1.
         -4    1    6    6    0  503  0.98092271987E+01 -0.43256061496E+01  0.28692080462E+02  0.30629516615E+02  0.00000000000E+00 0.  1.
<mgrwt>
<rscale>  0 0.12981314E+04</rscale>
<asrwt>0</asrwt>
<pdfrwt beam="1">  1        2 0.10830652E+00 0.12981314E+04</pdfrwt>
<pdfrwt beam="2">  1       -1 0.92065297E-01 0.12981314E+04</pdfrwt>
<totfact> 0.52344169E+01</totfact>
</mgrwt>
</event>
<event>
12    6  0.1586493E-007  0.2298066E+04  0.7818608E-02  0.8478684E-01
         -1   -1    0    0    0  501 -0.00000000000E+00  0.00000000000E+00  0.84592764617E+03  0.84592764617E+03  0.00000000000E+00 0.  1.
          2   -1    0    0  501    0  0.00000000000E+00 -0.00000000000E+00 -0.15607438356E+04  0.15607438356E+04  0.00000000000E+00 0. -1.
         24    2    1    2    0    0  0.21200952409E+03  0.84209465778E+03 -0.75808463050E+03  0.11575274196E+04  0.10538486258E+03 0.  0.
        254    2    1    2    0    0 -0.21200952409E+03 -0.84209465778E+03  0.43268441118E+02  0.12491440621E+04  0.89689312568E+03 0.  0.
         23    2    4    4    0    0 -0.55663436840E+03 -0.48510058230E+03  0.50641471461E+02  0.74454061750E+03  0.81312836861E+02 0.  0.
         23    2    4    4    0    0  0.34462484431E+03 -0.35699407547E+03 -0.73730303430E+01  0.50460344459E+03  0.91428778202E+02 0.  0.
          2    1    3    3  502    0  0.95016325205E+02  0.30074123617E+03 -0.33870511427E+03  0.46281156816E+03  0.00000000000E+00 0. -1.
         -1    1    3    3    0  502  0.11699319889E+03  0.54135342160E+03 -0.41937951623E+03  0.69471585149E+03  0.00000000000E+00 0.  1.
         11    1    5    5    0    0 -0.50521186305E+02 -0.46585780150E+02  0.28832179499E+02  0.74524625142E+02  0.00000000000E+00 0. -1.
        -11    1    5    5    0    0 -0.50611318209E+03 -0.43851480215E+03  0.21809291962E+02  0.67001599235E+03  0.00000000000E+00 0.  1.
          3    1    6    6  503    0  0.20752434802E+02 -0.25592727746E+02 -0.24259625087E+02  0.40916752963E+02  0.00000000000E+00 0. -1.
         -3    1    6    6    0  503  0.32387240950E+03 -0.33140134773E+03  0.16886594744E+02  0.46368669163E+03  0.00000000000E+00 0.  1.
<mgrwt>
<rscale>  0 0.22980656E+04</rscale>
<asrwt>0</asrwt>
<pdfrwt beam="1">  1        2 0.24011444E+00 0.22980656E+04</pdfrwt>
<pdfrwt beam="2">  1       -1 0.13014272E+00 0.22980656E+04</pdfrwt>
<totfact> 0.61279878E+00</totfact>
</mgrwt>
</event>
<event>
12    6  0.1586493E-007  0.1359505E+04  0.7818608E-02  0.8983664E-01
         -1   -1    0    0    0  501 -0.00000000000E+00  0.00000000000E+00  0.66357779490E+03  0.66357779490E+03  0.00000000000E+00 0.  1.
          2   -1    0    0  501    0  0.00000000000E+00 -0.00000000000E+00 -0.69632128866E+03  0.69632128866E+03  0.00000000000E+00 0. -1.
         24    2    1    2    0    0  0.12950660315E+03 -0.27906728100E+03  0.20555655850E+03  0.37861272919E+03  0.80271989976E+02 0.  0.
        254    2    1    2    0    0 -0.12950660315E+03  0.27906728100E+03 -0.23830005226E+03  0.98128635437E+03  0.90082489240E+03 0.  0.
         23    2    4    4    0    0  0.22199400112E+03 -0.22202320428E+03 -0.32272847986E+02  0.32854962014E+03  0.91256103379E+02 0.  0.
         23    2    4    4    0    0 -0.35150060427E+03  0.50109048528E+03 -0.20602720428E+03  0.65273673423E+03  0.94729541651E+02 0.  0.
          2    1    3    3  502    0  0.22859651139E+02 -0.27223755513E+02 -0.15004596788E+01  0.35580161518E+02  0.00000000000E+00 0. -1.
         -1    1    3    3    0  502  0.10664695201E+03 -0.25184352549E+03  0.20705701818E+03  0.34303256767E+03  0.00000000000E+00 0.  1.
         11    1    5    5    0    0  0.18087251954E+02 -0.68276304988E+02  0.33056948825E+01  0.70708769787E+02  0.00000000000E+00 0.  1.
        -11    1    5    5    0    0  0.20390674917E+03 -0.15374689929E+03 -0.35578542869E+02  0.25784085035E+03  0.00000000000E+00 0. -1.
          2    1    6    6  503    0 -0.19359406925E+03  0.19635082655E+03 -0.10357661980E+03  0.29455122968E+03  0.00000000000E+00 0. -1.
         -2    1    6    6    0  503 -0.15790653502E+03  0.30473965874E+03 -0.10245058448E+03  0.35818550455E+03  0.00000000000E+00 0.  1.
<mgrwt>
<rscale>  0 0.13595048E+04</rscale>
<asrwt>0</asrwt>
<pdfrwt beam="1">  1        2 0.10712635E+00 0.13595048E+04</pdfrwt>
<pdfrwt beam="2">  1       -1 0.10208889E+00 0.13595048E+04</pdfrwt>
<totfact> 0.41814999E+01</totfact>
</mgrwt>
</event>
<event>
12    6  0.1586493E-007  0.1150883E+04  0.7818608E-02  0.9156969E-01
          2   -1    0    0  501    0  0.00000000000E+00  0.00000000000E+00  0.31369144577E+04  0.31369144577E+04  0.00000000000E+00 0. -1.
         -1   -1    0    0    0  501 -0.00000000000E+00 -0.00000000000E+00 -0.10556013611E+03  0.10556013611E+03  0.00000000000E+00 0.  1.
         24    2    1    2    0    0  0.56013703216E+02  0.16221845212E+03  0.95878563401E+03  0.97726579249E+03  0.79537261884E+02 0.  0.
        254    2    1    2    0    0 -0.56013703216E+02 -0.16221845212E+03  0.20725686876E+04  0.22652088014E+04  0.89787392639E+03 0.  0.
         23    2    4    4    0    0 -0.75375395448E+02 -0.50358852349E+03  0.87457641993E+03  0.10159866422E+04  0.89789150562E+02 0.  0.
         23    2    4    4    0    0  0.19361692232E+02  0.34137007138E+03  0.11979922677E+04  0.12492221592E+04  0.91989829750E+02 0.  0.
          2    1    3    3  502    0  0.21023948074E+02  0.13813206406E+03  0.82936596831E+03  0.84105313917E+03  0.00000000000E+00 0. -1.
         -1    1    3    3    0  502  0.34989755142E+02  0.24086388058E+02  0.12941966570E+03  0.13621265332E+03  0.00000000000E+00 0.  1.
         11    1    5    5    0    0 -0.53831587436E+02 -0.48278890856E+03  0.83898143722E+03  0.96947038224E+03  0.00000000000E+00 0. -1.
        -11    1    5    5    0    0 -0.21543808012E+02 -0.20799614932E+02  0.35594982708E+02  0.46516259941E+02  0.00000000000E+00 0.  1.
          3    1    6    6  503    0  0.78840070162E+01  0.32154230922E+03  0.11680243594E+04  0.12115001108E+04  0.00000000000E+00 0. -1.
         -3    1    6    6    0  503  0.11477685216E+02  0.19827762153E+02  0.29967908241E+02  0.37722048383E+02  0.00000000000E+00 0.  1.
<mgrwt>
<rscale>  0 0.11508833E+04</rscale>
<asrwt>0</asrwt>
<pdfrwt beam="1">  1        2 0.48260215E+00 0.11508833E+04</pdfrwt>
<pdfrwt beam="2">  1       -1 0.16240023E-01 0.11508833E+04</pdfrwt>
<totfact> 0.47329946E+01</totfact>
</mgrwt>
</event>
<event>
12    6  0.1586493E-007  0.1234070E+04  0.7818608E-02  0.9083547E-01
          2   -1    0    0  501    0  0.00000000000E+00  0.00000000000E+00  0.24141029333E+04  0.24141029333E+04  0.00000000000E+00 0. -1.
         -1   -1    0    0    0  501 -0.00000000000E+00 -0.00000000000E+00 -0.15771159990E+03  0.15771159990E+03  0.00000000000E+00 0.  1.
         24    2    1    2    0    0  0.18448351626E+03 -0.59201568072E+02  0.95094671853E+03  0.97350223821E+03  0.76602564366E+02 0.  0.
        254    2    1    2    0    0 -0.18448351626E+03  0.59201568072E+02  0.13054446149E+04  0.15983122950E+04  0.90159722515E+03 0.  0.
         23    2    4    4    0    0 -0.34194061575E+03  0.22618951282E+03  0.19993867801E+03  0.46537155681E+03  0.92250368666E+02 0.  0.
         23    2    4    4    0    0  0.15745709949E+03 -0.16698794474E+03  0.11055059369E+04  0.11329407382E+04  0.93453881297E+02 0.  0.
          4    1    3    3  502    0  0.14910548000E+03 -0.20861639227E+02  0.79291628315E+03  0.80708356707E+03  0.00000000000E+00 0. -1.
         -3    1    3    3    0  502  0.35378036265E+02 -0.38339928845E+02  0.15803043539E+03  0.16641867113E+03  0.00000000000E+00 0.  1.
         11    1    5    5    0    0 -0.18685395371E+03  0.16390761066E+03  0.85627080435E+02  0.26289180617E+03  0.00000000000E+00 0.  1.
        -11    1    5    5    0    0 -0.15508666204E+03  0.62281902157E+02  0.11431159758E+03  0.20247975064E+03  0.00000000000E+00 0. -1.
          4    1    6    6  503    0  0.75429957662E+02 -0.21863196794E+02  0.43427625414E+03  0.44132022704E+03  0.00000000000E+00 0. -1.
         -4    1    6    6    0  503  0.82027141825E+02 -0.14512474795E+03  0.67122968272E+03  0.69162051114E+03  0.00000000000E+00 0.  1.
<mgrwt>
<rscale>  0 0.12340697E+04</rscale>
<asrwt>0</asrwt>
<pdfrwt beam="1">  1        2 0.37140042E+00 0.12340697E+04</pdfrwt>
<pdfrwt beam="2">  1       -1 0.24263325E-01 0.12340697E+04</pdfrwt>
<totfact> 0.64827691E+01</totfact>
</mgrwt>
</event>
<event>
12    6  0.1586493E-007  0.1449002E+04  0.7818608E-02  0.8919093E-01
          2   -1    0    0  501    0  0.00000000000E+00  0.00000000000E+00  0.11631509092E+04  0.11631509092E+04  0.00000000000E+00 0. -1.
         -1   -1    0    0    0  501 -0.00000000000E+00 -0.00000000000E+00 -0.45127573673E+03  0.45127573673E+03  0.00000000000E+00 0.  1.
         24    2    1    2    0    0 -0.14435379496E+02  0.18663877730E+02  0.70367103117E+03  0.70845640362E+03  0.78745382167E+02 0.  0.
        254    2    1    2    0    0  0.14435379496E+02 -0.18663877730E+02  0.82041412925E+01  0.90597024231E+03  0.90562577895E+03 0.  0.
         23    2    4    4    0    0  0.35453948750E+03 -0.23503218264E+03  0.16417979210E+03  0.46458077756E+03  0.89117448750E+02 0.  0.
         23    2    4    4    0    0 -0.34010410800E+03  0.21636830491E+03 -0.15597565081E+03  0.44138946475E+03  0.89499766990E+02 0.  0.
          2    1    3    3  502    0 -0.83461762735E+00 -0.29787344413E+01  0.63768394335E+03  0.63769144659E+03  0.00000000000E+00 0. -1.
         -1    1    3    3    0  502 -0.13600761869E+02  0.21642612172E+02  0.65987087814E+02  0.70764957028E+02  0.00000000000E+00 0.  1.
         11    1    5    5    0    0  0.11233156029E+02 -0.30089389814E+02  0.26739068099E+02  0.41791541448E+02  0.00000000000E+00 0.  1.
        -11    1    5    5    0    0  0.34330633147E+03 -0.20494279283E+03  0.13744072401E+03  0.42278923611E+03  0.00000000000E+00 0. -1.
          3    1    6    6  503    0 -0.14617725222E+02 -0.64603728097E+01 -0.16582361909E+02  0.23030176595E+02  0.00000000000E+00 0. -1.
         -3    1    6    6    0  503 -0.32548638278E+03  0.22282867772E+03 -0.13939328890E+03  0.41835928815E+03  0.00000000000E+00 0.  1.
<mgrwt>
<rscale>  0 0.14490021E+04</rscale>
<asrwt>0</asrwt>
<pdfrwt beam="1">  1        2 0.17894629E+00 0.14490021E+04</pdfrwt>
<pdfrwt beam="2">  1       -1 0.69427037E-01 0.14490021E+04</pdfrwt>
<totfact> 0.46263256E+01</totfact>
</mgrwt>
</event>
<event>
12    6  0.1586493E-007  0.2547039E+04  0.7818608E-02  0.8386417E-01
         -1   -1    0    0    0  501 -0.00000000000E+00  0.00000000000E+00  0.68984065949E+03  0.68984065949E+03  0.00000000000E+00 0.  1.
          2   -1    0    0  501    0  0.00000000000E+00 -0.00000000000E+00 -0.23510523524E+04  0.23510523524E+04  0.00000000000E+00 0. -1.
         24    2    1    2    0    0  0.66828984379E+03 -0.27916060679E+03 -0.17347994338E+04  0.18815904109E+04  0.79444567068E+02 0.  0.
        254    2    1    2    0    0 -0.66828984379E+03  0.27916060679E+03  0.73587740851E+02  0.11593026010E+04  0.90223356479E+03 0.  0.
         23    2    4    4    0    0  0.17663833604E+03  0.23110420316E+03  0.16400081508E+02  0.30542365347E+03  0.91675465359E+02 0.  0.
         23    2    4    4    0    0 -0.84492817983E+03  0.48056403623E+02  0.57187659343E+02  0.85387894754E+03  0.98111068029E+02 0.  0.
          2    1    3    3  502    0  0.63701986907E+03 -0.28295386226E+03 -0.16546175760E+04  0.17954432668E+04  0.00000000000E+00 0. -1.
         -1    1    3    3    0  502  0.31269974727E+02  0.37932554677E+01 -0.80181857786E+02  0.86147144030E+02  0.00000000000E+00 0.  1.
         11    1    5    5    0    0  0.13494206177E+03  0.22496113555E+03  0.80201668483E+01  0.26245227303E+03  0.00000000000E+00 0.  1.
        -11    1    5    5    0    0  0.41696274272E+02  0.61430676187E+01  0.83799146599E+01  0.42971380448E+02  0.00000000000E+00 0. -1.
          4    1    6    6  503    0 -0.58144304825E+03  0.52091286360E+02 -0.21008839094E+01  0.58377558546E+03  0.00000000000E+00 0. -1.
         -4    1    6    6    0  503 -0.26348513159E+03 -0.40348827372E+01  0.59288543253E+02  0.27010336208E+03  0.00000000000E+00 0.  1.
<mgrwt>
<rscale>  0 0.25470387E+04</rscale>
<asrwt>0</asrwt>
<pdfrwt beam="1">  1        2 0.36170036E+00 0.25470387E+04</pdfrwt>
<pdfrwt beam="2">  1       -1 0.10612933E+00 0.25470387E+04</pdfrwt>
<totfact> 0.35570947E+00</totfact>
</mgrwt>
</event>
<event>
12    6  0.1586493E-007  0.1896008E+04  0.7818608E-02  0.8656846E-01
         -1   -1    0    0    0  501 -0.00000000000E+00  0.00000000000E+00  0.86920240751E+03  0.86920240751E+03  0.00000000000E+00 0.  1.
          2   -1    0    0  501    0  0.00000000000E+00 -0.00000000000E+00 -0.10339499710E+04  0.10339499710E+04  0.00000000000E+00 0. -1.
         24    2    1    2    0    0 -0.17887311659E+03  0.69637945061E+03 -0.58940899545E+02  0.72579937353E+03  0.79817102892E+02 0.  0.
        254    2    1    2    0    0  0.17887311659E+03 -0.69637945061E+03 -0.10580666397E+03  0.11773530050E+04  0.92629645211E+03 0.  0.
         23    2    4    4    0    0 -0.13464194352E+03 -0.43278474193E+03  0.33265786831E+03  0.57045017509E+03  0.96545632279E+02 0.  0.
         23    2    4    4    0    0  0.31351506011E+03 -0.26359470868E+03 -0.43846453228E+03  0.60690282992E+03  0.91137454096E+02 0.  0.
          2    1    3    3  502    0 -0.14315140774E+03  0.61877281833E+03 -0.72707830857E+02  0.63926407291E+03  0.00000000000E+00 0. -1.
         -1    1    3    3    0  502 -0.35721708848E+02  0.77606632276E+02  0.13766931312E+02  0.86535300624E+02  0.00000000000E+00 0.  1.
         11    1    5    5    0    0 -0.29534148223E+01 -0.16290875579E+03  0.12477997104E+03  0.20522676859E+03  0.00000000000E+00 0. -1.
        -11    1    5    5    0    0 -0.13168852870E+03 -0.26987598614E+03  0.20787789726E+03  0.36522340650E+03  0.00000000000E+00 0.  1.
          3    1    6    6  503    0  0.72381692379E+02 -0.11161179309E+03 -0.16445963841E+03  0.21152606084E+03  0.00000000000E+00 0. -1.
         -3    1    6    6    0  503  0.24113336773E+03 -0.15198291559E+03 -0.27400489386E+03  0.39537676907E+03  0.00000000000E+00 0.  1.
<mgrwt>
<rscale>  0 0.18960082E+04</rscale>
<asrwt>0</asrwt>
<pdfrwt beam="1">  1        2 0.15906923E+00 0.18960082E+04</pdfrwt>
<pdfrwt beam="2">  1       -1 0.13372345E+00 0.18960082E+04</pdfrwt>
<totfact> 0.12087590E+01</totfact>
</mgrwt>
</event>
<event>
12    6  0.1586493E-007  0.1140378E+04  0.7818608E-02  0.9166707E-01
          2   -1    0    0  501    0  0.00000000000E+00  0.00000000000E+00  0.40998385473E+03  0.40998385473E+03  0.00000000000E+00 0. -1.
         -1   -1    0    0    0  501 -0.00000000000E+00 -0.00000000000E+00 -0.79299521323E+03  0.79299521323E+03  0.00000000000E+00 0.  1.
         24    2    1    2    0    0  0.10516696652E+03 -0.26639873287E+03 -0.14212492887E+03  0.32940472687E+03  0.79243945886E+02 0.  0.
        254    2    1    2    0    0 -0.10516696652E+03  0.26639873287E+03 -0.24088642964E+03  0.87357434109E+03  0.78935257123E+03 0.  0.
         23    2    4    4    0    0  0.29315817837E+03  0.22598406958E+03 -0.26234694296E+03  0.46263696715E+03  0.90534676494E+02 0.  0.
         23    2    4    4    0    0 -0.39832514488E+03  0.40414663290E+02  0.21460513325E+02  0.41093737394E+03  0.90070559067E+02 0.  0.
          4    1    3    3  502    0  0.99582663944E+02 -0.19970293121E+03 -0.77123954684E+02  0.23610606108E+03  0.00000000000E+00 0. -1.
         -3    1    3    3    0  502  0.55843025719E+01 -0.66695801664E+02 -0.65000974182E+02  0.93298665796E+02  0.00000000000E+00 0.  1.
         11    1    5    5    0    0  0.40491245848E+01  0.11882184933E+02  0.59122214077E+01  0.13875737481E+02  0.00000000000E+00 0. -1.
        -11    1    5    5    0    0  0.28910905378E+03  0.21410188465E+03 -0.26825916437E+03  0.44876122967E+03  0.00000000000E+00 0.  1.
          1    1    6    6  503    0 -0.38754552610E+02 -0.59118994520E+01  0.28266693149E+02  0.48330858100E+02  0.00000000000E+00 0. -1.
         -1    1    6    6    0  503 -0.35957059227E+03  0.46326562742E+02 -0.68061798236E+01  0.36260651584E+03  0.00000000000E+00 0.  1.
<mgrwt>
<rscale>  0 0.11403775E+04</rscale>
<asrwt>0</asrwt>
<pdfrwt beam="1">  1        2 0.63074441E-01 0.11403775E+04</pdfrwt>
<pdfrwt beam="2">  1       -1 0.12199926E+00 0.11403775E+04</pdfrwt>
<totfact> 0.52125203E+01</totfact>
</mgrwt>
</event>
<event>
12    6  0.1586493E-007  0.1895388E+04  0.7818608E-02  0.8657155E-01
          2   -1    0    0  501    0  0.00000000000E+00  0.00000000000E+00  0.27408047460E+04  0.27408047460E+04  0.00000000000E+00 0. -1.
         -1   -1    0    0    0  501 -0.00000000000E+00 -0.00000000000E+00 -0.32768622347E+03  0.32768622347E+03  0.00000000000E+00 0.  1.
         24    2    1    2    0    0  0.65465146178E+03 -0.18183429268E+03  0.50079602395E+03  0.84822804071E+03  0.84035141632E+02 0.  0.
        254    2    1    2    0    0 -0.65465146178E+03  0.18183429268E+03  0.19123224986E+04  0.22202629288E+04  0.90053200269E+03 0.  0.
         23    2    4    4    0    0 -0.27347503803E+03 -0.76352046248E+00  0.17259001115E+04  0.17492736458E+04  0.80236609547E+02 0.  0.
         23    2    4    4    0    0 -0.38117642375E+03  0.18259781315E+03  0.18642238709E+03  0.47098928300E+03  0.91870402772E+02 0.  0.
          2    1    3    3  502    0  0.26735753019E+03 -0.10024943212E+03  0.25121410630E+03  0.38031371891E+03  0.00000000000E+00 0. -1.
         -1    1    3    3    0  502  0.38729393160E+03 -0.81584860564E+02  0.24958191764E+03  0.46791432179E+03  0.00000000000E+00 0.  1.
         11    1    5    5    0    0 -0.18437819208E+03 -0.46431245699E+01  0.13705196213E+04  0.13828741478E+04  0.00000000000E+00 0. -1.
        -11    1    5    5    0    0 -0.89096845952E+02  0.38796041074E+01  0.35538049019E+03  0.36639949794E+03  0.00000000000E+00 0.  1.
          1    1    6    6  503    0 -0.19248228229E+03  0.78195486544E+02  0.43464499794E+02  0.21225721626E+03  0.00000000000E+00 0. -1.
         -1    1    6    6    0  503 -0.18869414146E+03  0.10440232660E+03  0.14295788729E+03  0.25873206674E+03  0.00000000000E+00 0.  1.
<mgrwt>
<rscale>  0 0.18953880E+04</rscale>
<asrwt>0</asrwt>
<pdfrwt beam="1">  1        2 0.42166225E+00 0.18953880E+04</pdfrwt>
<pdfrwt beam="2">  1       -1 0.50413267E-01 0.18953880E+04</pdfrwt>
<totfact> 0.10598531E+01</totfact>
</mgrwt>
</event>
<event>
12    6  0.1586493E-007  0.2912308E+04  0.7818608E-02  0.8269225E-01
         -1   -1    0    0    0  501 -0.00000000000E+00  0.00000000000E+00  0.13563355528E+04  0.13563355528E+04  0.00000000000E+00 0.  1.
          2   -1    0    0  501    0  0.00000000000E+00 -0.00000000000E+00 -0.15633182876E+04  0.15633182876E+04  0.00000000000E+00 0. -1.
         24    2    1    2    0    0  0.80007851054E+03 -0.35952512654E+03 -0.10768247826E+04  0.13909530967E+04  0.76255917650E+02 0.  0.
        254    2    1    2    0    0 -0.80007851054E+03  0.35952512654E+03  0.86984204786E+03  0.15287007437E+04  0.90050920925E+03 0.  0.
         23    2    4    4    0    0 -0.28462903927E+03  0.53599345130E+03  0.74033156105E+03  0.96144016607E+03  0.89295592318E+02 0.  0.
         23    2    4    4    0    0 -0.51544947127E+03 -0.17646832476E+03  0.12951048681E+03  0.56726057764E+03  0.90456451775E+02 0.  0.
          4    1    3    3  502    0  0.18969401166E+03 -0.74862308690E+02 -0.20354707863E+03  0.28813121410E+03  0.00000000000E+00 0. -1.
         -3    1    3    3    0  502  0.61038449888E+03 -0.28466281785E+03 -0.87327770400E+03  0.11028218826E+04  0.00000000000E+00 0.  1.
         11    1    5    5    0    0 -0.23849877958E+03  0.39692948084E+03  0.60592536297E+03  0.76261407416E+03  0.00000000000E+00 0.  1.
        -11    1    5    5    0    0 -0.46130259689E+02  0.13906397046E+03  0.13440619808E+03  0.19882609190E+03  0.00000000000E+00 0. -1.
          4    1    6    6  503    0 -0.38386555768E+03 -0.17164021598E+03  0.10353630217E+03  0.43305068523E+03  0.00000000000E+00 0.  1.
         -4    1    6    6    0  503 -0.13158391360E+03 -0.48281087804E+01  0.25974184637E+02  0.13420989241E+03  0.00000000000E+00 0. -1.
<mgrwt>
<rscale>  0 0.29123078E+04</rscale>
<asrwt>0</asrwt>
<pdfrwt beam="1">  1        2 0.24051051E+00 0.29123078E+04</pdfrwt>
<pdfrwt beam="2">  1       -1 0.20866701E+00 0.29123078E+04</pdfrwt>
<totfact> 0.15068045E+00</totfact>
</mgrwt>
</event>
<event>
12    6  0.1586493E-007  0.1822455E+04  0.7818608E-02  0.8694448E-01
         -1   -1    0    0    0  501 -0.00000000000E+00  0.00000000000E+00  0.31623138393E+03  0.31623138393E+03  0.00000000000E+00 0.  1.
          2   -1    0    0  501    0  0.00000000000E+00 -0.00000000000E+00 -0.26257215874E+04  0.26257215874E+04  0.00000000000E+00 0. -1.
         24    2    1    2    0    0 -0.42721704667E+03 -0.43586909438E+03 -0.37794752108E+03  0.72219103386E+03  0.78862464325E+02 0.  0.
        254    2    1    2    0    0  0.42721704667E+03  0.43586909438E+03 -0.19315426823E+04  0.22197619374E+04  0.90773875799E+03 0.  0.
         23    2    4    4    0    0 -0.34552882183E+02  0.95516894804E+01  0.69477776471E+02  0.12039678555E+03  0.91559205475E+02 0.  0.
         23    2    4    4    0    0  0.46176992886E+03  0.42631740490E+03 -0.20010204588E+04  0.20993651519E+04  0.90956953844E+02 0.  0.
          2    1    3    3  502    0 -0.10474638838E+03 -0.82202088205E+02 -0.11596544882E+03  0.17657002719E+03  0.00000000000E+00 0. -1.
         -1    1    3    3    0  502 -0.32247065830E+03 -0.35366700618E+03 -0.26198207226E+03  0.54562100666E+03  0.00000000000E+00 0.  1.
         11    1    5    5    0    0 -0.22083372106E+02  0.72542741217E+00  0.91201076329E+02  0.93839426107E+02  0.00000000000E+00 0.  1.
        -11    1    5    5    0    0 -0.12469510077E+02  0.88262620682E+01 -0.21723299858E+02  0.26557359439E+02  0.00000000000E+00 0. -1.
          1    1    6    6  503    0  0.51057804539E+02  0.32540511526E+02 -0.12385072022E+03  0.13785784415E+03  0.00000000000E+00 0. -1.
         -1    1    6    6    0  503  0.41071212432E+03  0.39377689338E+03 -0.18771697386E+04  0.19615073077E+04  0.00000000000E+00 0.  1.
<mgrwt>
<rscale>  0 0.18224550E+04</rscale>
<asrwt>0</asrwt>
<pdfrwt beam="1">  1        2 0.40395718E+00 0.18224550E+04</pdfrwt>
<pdfrwt beam="2">  1       -1 0.48650981E-01 0.18224550E+04</pdfrwt>
<totfact> 0.13353970E+01</totfact>
</mgrwt>
</event>
<event>
12    6  0.1586493E-007  0.1323499E+04  0.7818608E-02  0.9011135E-01
         -1   -1    0    0    0  501 -0.00000000000E+00  0.00000000000E+00  0.21044658360E+03  0.21044658360E+03  0.00000000000E+00 0.  1.
          2   -1    0    0  501    0  0.00000000000E+00 -0.00000000000E+00 -0.20808713324E+04  0.20808713324E+04  0.00000000000E+00 0. -1.
         24    2    1    2    0    0  0.17957521175E+03 -0.27754256350E+03 -0.32570949404E+03  0.47165795130E+03  0.84246170754E+02 0.  0.
        254    2    1    2    0    0 -0.17957521175E+03  0.27754256350E+03 -0.15447152547E+04  0.18196599647E+04  0.90318328018E+03 0.  0.
         23    2    4    4    0    0  0.98823155686E+00  0.54712861896E+03 -0.60283470824E+03  0.81926202688E+03  0.91814383090E+02 0.  0.
         23    2    4    4    0    0 -0.18056344331E+03 -0.26958605546E+03 -0.94188054648E+03  0.10003979378E+04  0.91527437014E+02 0.  0.
          2    1    3    3  502    0  0.10229736554E+03 -0.90566582892E+02 -0.15789744489E+03  0.20880292152E+03  0.00000000000E+00 0. -1.
         -1    1    3    3    0  502  0.77277846211E+02 -0.18697598061E+03 -0.16781204915E+03  0.26285502978E+03  0.00000000000E+00 0.  1.
         11    1    5    5    0    0  0.24301070135E+02  0.20187687864E+03 -0.16950629387E+03  0.26472098481E+03  0.00000000000E+00 0. -1.
        -11    1    5    5    0    0 -0.23312838578E+02  0.34525174032E+03 -0.43332841437E+03  0.55454104207E+03  0.00000000000E+00 0.  1.
          3    1    6    6  503    0 -0.14272013203E+01 -0.47212298411E+01 -0.95558951352E+02  0.95686154162E+02  0.00000000000E+00 0. -1.
         -3    1    6    6    0  503 -0.17913624199E+03 -0.26486482562E+03 -0.84632159513E+03  0.90471178362E+03  0.00000000000E+00 0.  1.
<mgrwt>
<rscale>  0 0.13234988E+04</rscale>
<asrwt>0</asrwt>
<pdfrwt beam="1">  1        2 0.32013405E+00 0.13234988E+04</pdfrwt>
<pdfrwt beam="2">  1       -1 0.32376398E-01 0.13234988E+04</pdfrwt>
<totfact> 0.59941188E+01</totfact>
</mgrwt>
</event>
<event>
12    6  0.1586493E-007  0.1741775E+04  0.7818608E-02  0.8737891E-01
         -1   -1    0    0    0  501 -0.00000000000E+00  0.00000000000E+00  0.53995005723E+03  0.53995005723E+03  0.00000000000E+00 0.  1.
          2   -1    0    0  501    0  0.00000000000E+00 -0.00000000000E+00 -0.14046569621E+04  0.14046569621E+04  0.00000000000E+00 0. -1.
         24    2    1    2    0    0 -0.53477375030E+02 -0.35238092728E+03 -0.90442907029E+03  0.97538489547E+03  0.79696948355E+02 0.  0.
        254    2    1    2    0    0  0.53477375030E+02  0.35238092728E+03  0.39722165385E+02  0.96922212389E+03  0.90043407725E+03 0.  0.
         23    2    4    4    0    0  0.19946623373E+03 -0.19888751259E+03  0.21409939308E+03  0.36482122704E+03  0.88954800439E+02 0.  0.
         23    2    4    4    0    0 -0.14598885870E+03  0.55126843987E+03 -0.17437722769E+03  0.60440089685E+03  0.98404201739E+02 0.  0.
          4    1    3    3  502    0 -0.46890683704E+02 -0.22681313987E+03 -0.67683763110E+03  0.71536851727E+03  0.00000000000E+00 0. -1.
         -3    1    3    3    0  502 -0.65866913257E+01 -0.12556778741E+03 -0.22759143919E+03  0.26001637820E+03  0.00000000000E+00 0.  1.
         11    1    5    5    0    0  0.16767224366E+02 -0.59813671712E+02  0.70691309251E+02  0.94106728454E+02  0.00000000000E+00 0.  1.
        -11    1    5    5    0    0  0.18269900936E+03 -0.13907384088E+03  0.14340808383E+03  0.27071449859E+03  0.00000000000E+00 0. -1.
          1    1    6    6  503    0 -0.93039100802E+02  0.48048764279E+03 -0.13541940211E+03  0.50780218946E+03  0.00000000000E+00 0. -1.
         -1    1    6    6    0  503 -0.52949757893E+02  0.70780797081E+02 -0.38957825580E+02  0.96598707394E+02  0.00000000000E+00 0.  1.
<mgrwt>
<rscale>  0 0.17417745E+04</rscale>
<asrwt>0</asrwt>
<pdfrwt beam="1">  1        2 0.21610107E+00 0.17417745E+04</pdfrwt>
<pdfrwt beam="2">  1       -1 0.83069240E-01 0.17417745E+04</pdfrwt>
<totfact> 0.22369911E+01</totfact>
</mgrwt>
</event>
<event>
12    6  0.1586493E-007  0.1268149E+04  0.7818608E-02  0.9055212E-01
         -1   -1    0    0    0  501 -0.00000000000E+00  0.00000000000E+00  0.51443734945E+03  0.51443734945E+03  0.00000000000E+00 0.  1.
          2   -1    0    0  501    0  0.00000000000E+00 -0.00000000000E+00 -0.78153460276E+03  0.78153460276E+03  0.00000000000E+00 0. -1.
         24    2    1    2    0    0 -0.68894741932E+02 -0.22843907953E+03 -0.18176969873E+03  0.30919330403E+03  0.75029176724E+02 0.  0.
        254    2    1    2    0    0  0.68894741932E+02  0.22843907953E+03 -0.85327554572E+02  0.98677864817E+03  0.95368779504E+03 0.  0.
         23    2    4    4    0    0  0.11308320536E+03  0.43638351486E+03  0.29180439067E+03  0.54462046931E+03  0.90792454538E+02 0.  0.
         23    2    4    4    0    0 -0.44188463426E+02 -0.20794443533E+03 -0.37713194525E+03  0.44215817886E+03  0.89899068537E+02 0.  0.
          4    1    3    3  502    0 -0.75485999293E+02 -0.13999406471E+03 -0.13663096987E+03  0.20967712362E+03  0.00000000000E+00 0. -1.
         -3    1    3    3    0  502  0.65912573609E+01 -0.88445014820E+02 -0.45138728859E+02  0.99516180408E+02  0.00000000000E+00 0.  1.
         11    1    5    5    0    0  0.11231874682E+03  0.43447898999E+03  0.27210179177E+03  0.52481127914E+03  0.00000000000E+00 0. -1.
        -11    1    5    5    0    0  0.76445854225E+00  0.19045248754E+01  0.19702598902E+02  0.19809190174E+02  0.00000000000E+00 0.  1.
          3    1    6    6  503    0 -0.11868111597E+02 -0.18914470411E+03 -0.28027837756E+03  0.33833790815E+03  0.00000000000E+00 0. -1.
         -3    1    6    6    0  503 -0.32320351829E+02 -0.18799731222E+02 -0.96853567690E+02  0.10382027071E+03  0.00000000000E+00 0.  1.
<mgrwt>
<rscale>  0 0.12681492E+04</rscale>
<asrwt>0</asrwt>
<pdfrwt beam="1">  1        2 0.12023609E+00 0.12681492E+04</pdfrwt>
<pdfrwt beam="2">  1       -1 0.79144208E-01 0.12681492E+04</pdfrwt>
<totfact> 0.63627986E+01</totfact>
</mgrwt>
</event>
<event>
12    6  0.1586493E-007  0.1471803E+04  0.7818608E-02  0.8903423E-01
         -1   -1    0    0    0  501 -0.00000000000E+00  0.00000000000E+00  0.17711596105E+03  0.17711596105E+03  0.00000000000E+00 0.  1.
          2   -1    0    0  501    0  0.00000000000E+00 -0.00000000000E+00 -0.30576072814E+04  0.30576072814E+04  0.00000000000E+00 0. -1.
         24    2    1    2    0    0 -0.72697796100E+02  0.24221765013E+03 -0.17495404711E+04  0.17695495122E+04  0.80369500301E+02 0.  0.
        254    2    1    2    0    0  0.72697796100E+02 -0.24221765013E+03 -0.11309508492E+04  0.14651737302E+04  0.89650983081E+03 0.  0.
         23    2    4    4    0    0  0.30177169814E+03 -0.39625445245E+03 -0.30846138528E+03  0.59268152346E+03  0.89661659352E+02 0.  0.
         23    2    4    4    0    0 -0.22907390204E+03  0.15403680231E+03 -0.82248946390E+03  0.87249220671E+03  0.92474555875E+02 0.  0.
          4    1    3    3  502    0 -0.31369811526E+02  0.20728389010E+03 -0.14629349321E+04  0.14778799991E+04  0.00000000000E+00 0. -1.
         -3    1    3    3    0  502 -0.41327984574E+02  0.34933760038E+02 -0.28660553900E+03  0.29166951312E+03  0.00000000000E+00 0.  1.
         11    1    5    5    0    0  0.15962601385E+03 -0.28009736868E+03 -0.19015118410E+03  0.37428929059E+03  0.00000000000E+00 0. -1.
        -11    1    5    5    0    0  0.14214568430E+03 -0.11615708377E+03 -0.11831020118E+03  0.21839223287E+03  0.00000000000E+00 0.  1.
          2    1    6    6  503    0 -0.55620401070E+02  0.89466856093E+02 -0.26988433043E+03  0.28971623905E+03  0.00000000000E+00 0. -1.
         -2    1    6    6    0  503 -0.17345350097E+03  0.64569946219E+02 -0.55260513346E+03  0.58277596766E+03  0.00000000000E+00 0.  1.
<mgrwt>
<rscale>  0 0.14718030E+04</rscale>
<asrwt>0</asrwt>
<pdfrwt beam="1">  1        2 0.47040109E+00 0.14718030E+04</pdfrwt>
<pdfrwt beam="2">  1       -1 0.27248611E-01 0.14718030E+04</pdfrwt>
<totfact> 0.21496503E+01</totfact>
</mgrwt>
</event>
<event>
12    6  0.1586493E-007  0.1295658E+04  0.7818608E-02  0.9033015E-01
         -1   -1    0    0    0  501 -0.00000000000E+00  0.00000000000E+00  0.23462077687E+03  0.23462077687E+03  0.00000000000E+00 0.  1.
          2   -1    0    0  501    0  0.00000000000E+00 -0.00000000000E+00 -0.17887701909E+04  0.17887701909E+04  0.00000000000E+00 0. -1.
         24    2    1    2    0    0  0.26356317793E+02  0.24688934598E+02  0.10019511519E+03  0.12991361907E+03  0.74392797583E+02 0.  0.
        254    2    1    2    0    0 -0.26356317793E+02 -0.24688934598E+02 -0.16543445292E+04  0.18934773487E+04  0.92037842746E+03 0.  0.
         23    2    4    4    0    0 -0.34985711971E+03  0.24137126164E+03 -0.50206646248E+03  0.66410207458E+03  0.91108410957E+02 0.  0.
         23    2    4    4    0    0  0.32350080192E+03 -0.26606019623E+03 -0.11522780667E+04  0.12293752741E+04  0.90432431687E+02 0.  0.
          4    1    3    3  502    0  0.52071394494E+02  0.10211985259E+02  0.67722418220E+02  0.86035113164E+02  0.00000000000E+00 0. -1.
         -3    1    3    3    0  502 -0.25715076701E+02  0.14476949339E+02  0.32472696970E+02  0.43878505905E+02  0.00000000000E+00 0.  1.
         11    1    5    5    0    0 -0.70140005085E+02  0.13993540700E+02 -0.57601222694E+02  0.91833220300E+02  0.00000000000E+00 0.  1.
        -11    1    5    5    0    0 -0.27971711463E+03  0.22737772093E+03 -0.44446523979E+03  0.57226885428E+03  0.00000000000E+00 0. -1.
          4    1    6    6  503    0  0.32427499291E+03 -0.26153358933E+03 -0.11517187270E+04  0.12247490010E+04  0.00000000000E+00 0. -1.
         -4    1    6    6    0  503 -0.77419098517E+00 -0.45266069012E+01 -0.55933970270E+00  0.46262730813E+01  0.00000000000E+00 0.  1.
<mgrwt>
<rscale>  0 0.12956584E+04</rscale>
<asrwt>0</asrwt>
<pdfrwt beam="1">  1        2 0.27519540E+00 0.12956584E+04</pdfrwt>
<pdfrwt beam="2">  1       -1 0.36095506E-01 0.12956584E+04</pdfrwt>
<totfact> 0.71785599E+01</totfact>
</mgrwt>
</event>
<event>
12    6  0.1586493E-007  0.1187855E+04  0.7818608E-02  0.9123554E-01
         -1   -1    0    0    0  501 -0.00000000000E+00  0.00000000000E+00  0.19739006051E+03  0.19739006051E+03  0.00000000000E+00 0.  1.
          2   -1    0    0  501    0  0.00000000000E+00 -0.00000000000E+00 -0.17870692856E+04  0.17870692856E+04  0.00000000000E+00 0. -1.
         24    2    1    2    0    0 -0.18184514276E+03  0.14134146585E+03 -0.25229443873E+03  0.35176871398E+03  0.83926625140E+02 0.  0.
        254    2    1    2    0    0  0.18184514276E+03 -0.14134146585E+03 -0.13373847864E+04  0.16326906322E+04  0.90776404839E+03 0.  0.
         23    2    4    4    0    0 -0.15331719141E+03 -0.15567117771E+03 -0.12521957943E+04  0.12750127479E+04  0.99616882809E+02 0.  0.
         23    2    4    4    0    0  0.33516233417E+03  0.14329711863E+02 -0.85188992085E+02  0.35767788423E+03  0.90206283640E+02 0.  0.
          4    1    3    3  502    0 -0.84849557531E+02  0.66415944708E+02 -0.58879177150E+02  0.12278958680E+03  0.00000000000E+00 0. -1.
         -3    1    3    3    0  502 -0.96995585228E+02  0.74925521141E+02 -0.19341526158E+03  0.22897912718E+03  0.00000000000E+00 0.  1.
         11    1    5    5    0    0 -0.51765334613E+02 -0.26773110521E+02 -0.58657088854E+03  0.58945895243E+03  0.00000000000E+00 0. -1.
        -11    1    5    5    0    0 -0.10155185680E+03 -0.12889806719E+03 -0.66562490578E+03  0.68555379551E+03  0.00000000000E+00 0.  1.
          3    1    6    6  503    0  0.30967969697E+03 -0.12348483189E+02 -0.69707421991E+02  0.31766826161E+03  0.00000000000E+00 0. -1.
         -3    1    6    6    0  503  0.25482637199E+02  0.26678195053E+02 -0.15481570094E+02  0.40009622623E+02  0.00000000000E+00 0.  1.
<mgrwt>
<rscale>  0 0.11878547E+04</rscale>
<asrwt>0</asrwt>
<pdfrwt beam="1">  1        2 0.27493373E+00 0.11878547E+04</pdfrwt>
<pdfrwt beam="2">  1       -1 0.30367702E-01 0.11878547E+04</pdfrwt>
<totfact> 0.98591168E+01</totfact>
</mgrwt>
</event>
<event>
12    6  0.1586493E-007  0.1473825E+04  0.7818608E-02  0.8902048E-01
          2   -1    0    0  501    0  0.00000000000E+00  0.00000000000E+00  0.95193407021E+03  0.95193407021E+03  0.00000000000E+00 0. -1.
         -1   -1    0    0    0  501 -0.00000000000E+00 -0.00000000000E+00 -0.57045949632E+03  0.57045949632E+03  0.00000000000E+00 0.  1.
         24    2    1    2    0    0 -0.65420662542E+02 -0.14448581648E+03 -0.32542589246E+03  0.37149346763E+03  0.83362885989E+02 0.  0.
        254    2    1    2    0    0  0.65420662542E+02  0.14448581648E+03  0.70690046635E+03  0.11509000989E+04  0.89426324651E+03 0.  0.
         23    2    4    4    0    0  0.27678290560E+03  0.43609559965E+03  0.32158846754E+03  0.61546110171E+03  0.92655687363E+02 0.  0.
         23    2    4    4    0    0 -0.21136224306E+03 -0.29160978317E+03  0.38531199880E+03  0.53543899719E+03  0.92300161732E+02 0.  0.
          4    1    3    3  502    0 -0.57642666357E+02 -0.79044677602E+02 -0.11496519371E+03  0.15095606581E+03  0.00000000000E+00 0. -1.
         -3    1    3    3    0  502 -0.77779961856E+01 -0.65441138875E+02 -0.21046069875E+03  0.22053740182E+03  0.00000000000E+00 0.  1.
         11    1    5    5    0    0  0.16736124599E+03  0.27996958649E+03  0.15021101998E+03  0.35910458997E+03  0.00000000000E+00 0.  1.
        -11    1    5    5    0    0  0.10942165961E+03  0.15612601316E+03  0.17137744757E+03  0.25635651174E+03  0.00000000000E+00 0. -1.
          2    1    6    6  503    0 -0.94174111787E+02 -0.82565423163E+02  0.85629955348E+02  0.15171783575E+03  0.00000000000E+00 0. -1.
         -2    1    6    6    0  503 -0.11718813127E+03 -0.20904436001E+03  0.29968204346E+03  0.38372116143E+03  0.00000000000E+00 0.  1.
<mgrwt>
<rscale>  0 0.14738247E+04</rscale>
<asrwt>0</asrwt>
<pdfrwt beam="1">  1        2 0.14645139E+00 0.14738247E+04</pdfrwt>
<pdfrwt beam="2">  1       -1 0.87763000E-01 0.14738247E+04</pdfrwt>
<totfact> 0.38191103E+01</totfact>
</mgrwt>
</event>
<event>
12    6  0.1586493E-007  0.1871493E+04  0.7818608E-02  0.8669178E-01
         -1   -1    0    0    0  501 -0.00000000000E+00  0.00000000000E+00  0.60044176545E+03  0.60044176545E+03  0.00000000000E+00 0.  1.
          2   -1    0    0  501    0  0.00000000000E+00 -0.00000000000E+00 -0.14582952772E+04  0.14582952772E+04  0.00000000000E+00 0. -1.
         24    2    1    2    0    0  0.29855358397E+03  0.49426336062E+03  0.13186886736E+03  0.59765673201E+03  0.79835198913E+02 0.  0.
        254    2    1    2    0    0 -0.29855358397E+03 -0.49426336062E+03 -0.98972237915E+03  0.14610803107E+04  0.90651793931E+03 0.  0.
         23    2    4    4    0    0  0.21145571267E+03  0.88084411307E+02 -0.71654178391E+02  0.25687148137E+03  0.91521881133E+02 0.  0.
         23    2    4    4    0    0 -0.51000929664E+03 -0.58234777192E+03 -0.91806820076E+03  0.12042088293E+04  0.89617370989E+02 0.  0.
          4    1    3    3  502    0  0.60260308278E+02  0.52987649773E+02  0.31507857870E+02  0.86207545434E+02  0.00000000000E+00 0. -1.
         -3    1    3    3    0  502  0.23829327570E+03  0.44127571084E+03  0.10036100949E+03  0.51144918657E+03  0.00000000000E+00 0.  1.
         11    1    5    5    0    0  0.16815415366E+03  0.43122467228E+02 -0.17940423870E+02  0.17451998562E+03  0.00000000000E+00 0.  1.
        -11    1    5    5    0    0  0.43301559014E+02  0.44961944078E+02 -0.53713754520E+02  0.82351495755E+02  0.00000000000E+00 0. -1.
          2    1    6    6  503    0 -0.28408499061E+02 -0.36225893820E+02 -0.26617071566E+02  0.53177313779E+02  0.00000000000E+00 0. -1.
         -2    1    6    6    0  503 -0.48160079758E+03 -0.54612187810E+03 -0.89145112919E+03  0.11510315155E+04  0.00000000000E+00 0.  1.
<mgrwt>
<rscale>  0 0.18714929E+04</rscale>
<asrwt>0</asrwt>
<pdfrwt beam="1">  1        2 0.22435312E+00 0.18714929E+04</pdfrwt>
<pdfrwt beam="2">  1       -1 0.92375656E-01 0.18714929E+04</pdfrwt>
<totfact> 0.16346348E+01</totfact>
</mgrwt>
</event>
<event>
12    6  0.1586493E-007  0.2697421E+04  0.7818608E-02  0.8335842E-01
         -1   -1    0    0    0  501 -0.00000000000E+00  0.00000000000E+00  0.46004764141E+03  0.46004764141E+03  0.00000000000E+00 0.  1.
          2   -1    0    0  501    0  0.00000000000E+00 -0.00000000000E+00 -0.39539814525E+04  0.39539814525E+04  0.00000000000E+00 0. -1.
         24    2    1    2    0    0 -0.48736676171E+03  0.24687798957E+03  0.18887794600E+03  0.58352206914E+03  0.79674491090E+02 0.  0.
        254    2    1    2    0    0  0.48736676171E+03 -0.24687798957E+03 -0.36828117571E+04  0.38305070247E+04  0.90067004310E+03 0.  0.
         23    2    4    4    0    0  0.53147237330E+03  0.18342774684E+03 -0.25905284360E+04  0.26521545351E+04  0.83531302968E+02 0.  0.
         23    2    4    4    0    0 -0.44105611595E+02 -0.43030573641E+03 -0.10922833211E+04  0.11783524896E+04  0.91232694585E+02 0.  0.
          2    1    3    3  502    0 -0.79848281544E+02  0.62303695970E+02  0.10202248907E+02  0.10179186844E+03  0.00000000000E+00 0. -1.
         -1    1    3    3    0  502 -0.40751848016E+03  0.18457429360E+03  0.17867569710E+03  0.48173020070E+03  0.00000000000E+00 0.  1.
         11    1    5    5    0    0  0.38401593232E+03  0.10019196715E+03 -0.17047479807E+04  0.17503349234E+04  0.00000000000E+00 0.  1.
        -11    1    5    5    0    0  0.14745644098E+03  0.83235779696E+02 -0.88578045534E+03  0.90181961172E+03  0.00000000000E+00 0. -1.
          1    1    6    6  503    0 -0.39898713767E+01 -0.10190219161E+03 -0.16673335625E+03  0.19544817168E+03  0.00000000000E+00 0. -1.
         -1    1    6    6    0  503 -0.40115740218E+02 -0.32840354480E+03 -0.92554996482E+03  0.98290431794E+03  0.00000000000E+00 0.  1.
<mgrwt>
<rscale>  0 0.26974209E+04</rscale>
<asrwt>0</asrwt>
<pdfrwt beam="1">  1        2 0.60830482E+00 0.26974209E+04</pdfrwt>
<pdfrwt beam="2">  1       -1 0.70776563E-01 0.26974209E+04</pdfrwt>
<totfact> 0.75054313E-01</totfact>
</mgrwt>
</event>
<event>
12    6  0.1586493E-007  0.1629751E+04  0.7818608E-02  0.8802477E-01
          2   -1    0    0  501    0  0.00000000000E+00  0.00000000000E+00  0.24530418989E+04  0.24530418989E+04  0.00000000000E+00 0. -1.
         -1   -1    0    0    0  501 -0.00000000000E+00 -0.00000000000E+00 -0.27069322263E+03  0.27069322263E+03  0.00000000000E+00 0.  1.
         24    2    1    2    0    0 -0.22087412312E+03 -0.51683338534E+03  0.74727874348E+03  0.93846256531E+03  0.79902062387E+02 0.  0.
        254    2    1    2    0    0  0.22087412312E+03  0.51683338534E+03  0.14350699328E+04  0.17852725562E+04  0.90103843509E+03 0.  0.
         23    2    4    4    0    0 -0.11367221806E+03  0.63530995795E+03  0.11473128328E+04  0.13196222045E+04  0.92389990070E+02 0.  0.
         23    2    4    4    0    0  0.33454634118E+03 -0.11847657261E+03  0.28775709998E+03  0.46565035178E+03  0.89822875005E+02 0.  0.
          4    1    3    3  502    0 -0.16621075468E+03 -0.30317489011E+03  0.42354140648E+03  0.54674340596E+03  0.00000000000E+00 0. -1.
         -3    1    3    3    0  502 -0.54663368446E+02 -0.21365849522E+03  0.32373733700E+03  0.39171915935E+03  0.00000000000E+00 0.  1.
         11    1    5    5    0    0 -0.12705745101E+03  0.55531042619E+03  0.97615456734E+03  0.11302172378E+04  0.00000000000E+00 0. -1.
        -11    1    5    5    0    0  0.13385232952E+02  0.79999531758E+02  0.17115826551E+03  0.18940496666E+03  0.00000000000E+00 0.  1.
          3    1    6    6  503    0  0.33799788335E+03 -0.11003361328E+03  0.27256499581E+03  0.44793039877E+03  0.00000000000E+00 0. -1.
         -3    1    6    6    0  503 -0.34515421761E+01 -0.84429593296E+01  0.15192104166E+02  0.17719953009E+02  0.00000000000E+00 0.  1.
<mgrwt>
<rscale>  0 0.16297507E+04</rscale>
<asrwt>0</asrwt>
<pdfrwt beam="1">  1        2 0.37739105E+00 0.16297507E+04</pdfrwt>
<pdfrwt beam="2">  1       -1 0.41645113E-01 0.16297507E+04</pdfrwt>
<totfact> 0.22875138E+01</totfact>
</mgrwt>
</event>
<event>
12    6  0.1586493E-007  0.3154514E+04  0.7818608E-02  0.8200934E-01
         -1   -1    0    0    0  501 -0.00000000000E+00  0.00000000000E+00  0.14648770259E+04  0.14648770259E+04  0.00000000000E+00 0.  1.
          2   -1    0    0  501    0  0.00000000000E+00 -0.00000000000E+00 -0.16982583858E+04  0.16982583858E+04  0.00000000000E+00 0. -1.
         24    2    1    2    0    0 -0.82980106538E+03 -0.77335131885E+03 -0.98842587561E+03  0.15067625626E+04  0.81887959384E+02 0.  0.
        254    2    1    2    0    0  0.82980106538E+03  0.77335131885E+03  0.75504451572E+03  0.16563728492E+04  0.94172008815E+03 0.  0.
         23    2    4    4    0    0  0.94396789320E+02 -0.11452617649E+03  0.41546923199E+03  0.45106050814E+03  0.93882375019E+02 0.  0.
         23    2    4    4    0    0  0.73540427606E+03  0.88787749534E+03  0.33957528373E+03  0.12053123411E+04  0.91217159808E+02 0.  0.
          2    1    3    3  502    0 -0.56654337220E+03 -0.49040718922E+03 -0.68794526440E+03  0.10172213577E+04  0.00000000000E+00 0. -1.
         -1    1    3    3    0  502 -0.26325769318E+03 -0.28294412963E+03 -0.30048061121E+03  0.48954120483E+03  0.00000000000E+00 0.  1.
         11    1    5    5    0    0  0.28991526861E+02  0.84413895246E+01  0.36882256860E+02  0.47666199324E+02  0.00000000000E+00 0.  1.
        -11    1    5    5    0    0  0.65405262460E+02 -0.12296756602E+03  0.37858697513E+03  0.40339430882E+03  0.00000000000E+00 0. -1.
          4    1    6    6  503    0  0.57469568936E+03  0.73259807102E+03  0.24616967988E+03  0.96310673361E+03  0.00000000000E+00 0. -1.
         -4    1    6    6    0  503  0.16070858670E+03  0.15527942432E+03  0.93405603851E+02  0.24220560746E+03  0.00000000000E+00 0.  1.
<mgrwt>
<rscale>  0 0.31545140E+04</rscale>
<asrwt>0</asrwt>
<pdfrwt beam="1">  1        2 0.26127052E+00 0.31545140E+04</pdfrwt>
<pdfrwt beam="2">  1       -1 0.22536570E+00 0.31545140E+04</pdfrwt>
<totfact> 0.95811355E-01</totfact>
</mgrwt>
</event>
<event>
12    6  0.1586493E-007  0.2895833E+04  0.7818608E-02  0.8274118E-01
          2   -1    0    0  501    0  0.00000000000E+00  0.00000000000E+00  0.37334738624E+04  0.37334738624E+04  0.00000000000E+00 0. -1.
         -1   -1    0    0    0  501 -0.00000000000E+00 -0.00000000000E+00 -0.56153106463E+03  0.56153106463E+03  0.00000000000E+00 0.  1.
         24    2    1    2    0    0  0.37683544939E+03 -0.58579635417E+03  0.30924999680E+04  0.31709830541E+04  0.80094647625E+02 0.  0.
        254    2    1    2    0    0 -0.37683544939E+03  0.58579635417E+03  0.79442829712E+02  0.11240218729E+04  0.87860780960E+03 0.  0.
         23    2    4    4    0    0 -0.24460958928E+03  0.75449900850E+03 -0.13339013414E+03  0.80941064762E+03  0.90829860736E+02 0.  0.
         23    2    4    4    0    0 -0.13222586012E+03 -0.16870265433E+03  0.21283296385E+03  0.31461122528E+03  0.87966407850E+02 0.  0.
          2    1    3    3  502    0  0.34743555273E+03 -0.52243682606E+03  0.28698698533E+04  0.29376529195E+04  0.00000000000E+00 0. -1.
         -1    1    3    3    0  502  0.29399896665E+02 -0.63359528110E+02  0.22263011473E+03  0.23333013460E+03  0.00000000000E+00 0.  1.
         11    1    5    5    0    0 -0.11861962508E+02  0.10415613215E+03  0.49931666287E+01  0.10494826217E+03  0.00000000000E+00 0.  1.
        -11    1    5    5    0    0 -0.23274762677E+03  0.65034287635E+03 -0.13838330077E+03  0.70446238545E+03  0.00000000000E+00 0. -1.
          2    1    6    6  503    0 -0.54047551375E+02 -0.43204579977E+02  0.12433877515E+03  0.14229513184E+03  0.00000000000E+00 0. -1.
         -2    1    6    6    0  503 -0.78178308740E+02 -0.12549807436E+03  0.88494188704E+02  0.17231609344E+03  0.00000000000E+00 0.  1.
<mgrwt>
<rscale>  0 0.28958326E+04</rscale>
<asrwt>0</asrwt>
<pdfrwt beam="1">  1        2 0.57438058E+00 0.28958326E+04</pdfrwt>
<pdfrwt beam="2">  1       -1 0.86389397E-01 0.28958326E+04</pdfrwt>
<totfact> 0.71445793E-01</totfact>
</mgrwt>
</event>
<event>
12    6  0.1586493E-007  0.2611154E+04  0.7818608E-02  0.8364422E-01
         -1   -1    0    0    0  501 -0.00000000000E+00  0.00000000000E+00  0.15149883747E+04  0.15149883747E+04  0.00000000000E+00 0.  1.
          2   -1    0    0  501    0  0.00000000000E+00 -0.00000000000E+00 -0.11251114011E+04  0.11251114011E+04  0.00000000000E+00 0. -1.
         24    2    1    2    0    0 -0.45117398559E+03  0.81707490834E+03  0.85165105408E+03  0.12661104486E+04  0.80973939668E+02 0.  0.
        254    2    1    2    0    0  0.45117398559E+03 -0.81707490834E+03 -0.46177408049E+03  0.13739893273E+04  0.89634926172E+03 0.  0.
         23    2    4    4    0    0  0.65536099370E+03 -0.31916487202E+03 -0.16759161832E+03  0.75365369169E+03  0.92426667558E+02 0.  0.
         23    2    4    4    0    0 -0.20418700811E+03 -0.49791003632E+03 -0.29418246217E+03  0.62033563560E+03  0.93092648471E+02 0.  0.
          4    1    3    3  502    0 -0.97398032575E+02  0.22900643757E+03  0.26139171211E+03  0.36090989507E+03  0.00000000000E+00 0. -1.
         -3    1    3    3    0  502 -0.35377595301E+03  0.58806847077E+03  0.59025934197E+03  0.90520055348E+03  0.00000000000E+00 0.  1.
         11    1    5    5    0    0  0.25146528113E+02 -0.94990024786E+01 -0.25875477549E+02  0.37311114465E+02  0.00000000000E+00 0. -1.
        -11    1    5    5    0    0  0.63021446558E+03 -0.30966586954E+03 -0.14171614077E+03  0.71634257722E+03  0.00000000000E+00 0.  1.
          2    1    6    6  503    0 -0.22481734201E+02 -0.36842272466E+02  0.16157494493E+01  0.43190184758E+02  0.00000000000E+00 0. -1.
         -2    1    6    6    0  503 -0.18170527391E+03 -0.46106776385E+03 -0.29579821162E+03  0.57714545085E+03  0.00000000000E+00 0.  1.
<mgrwt>
<rscale>  0 0.26111535E+04</rscale>
<asrwt>0</asrwt>
<pdfrwt beam="1">  1        2 0.17309406E+00 0.26111535E+04</pdfrwt>
<pdfrwt beam="2">  1       -1 0.23307513E+00 0.26111535E+04</pdfrwt>
<totfact> 0.19072363E+00</totfact>
</mgrwt>
</event>
<event>
12    6  0.1586493E-007  0.1896361E+04  0.7818608E-02  0.8656670E-01
          2   -1    0    0  501    0  0.00000000000E+00  0.00000000000E+00  0.10132644327E+04  0.10132644327E+04  0.00000000000E+00 0. -1.
         -1   -1    0    0    0  501 -0.00000000000E+00 -0.00000000000E+00 -0.88727719211E+03  0.88727719211E+03  0.00000000000E+00 0.  1.
         24    2    1    2    0    0 -0.15912739463E+03 -0.19999132468E+03  0.73516002433E+03  0.78236417775E+03  0.79469412945E+02 0.  0.
        254    2    1    2    0    0  0.15912739463E+03  0.19999132468E+03 -0.60917278377E+03  0.11181774470E+04  0.90217030814E+03 0.  0.
         23    2    4    4    0    0  0.13729246867E+02 -0.18544708952E+03 -0.66048020694E+03  0.69234577558E+03  0.92355043013E+02 0.  0.
         23    2    4    4    0    0  0.14539814776E+03  0.38543841420E+03  0.51307423174E+02  0.42583167145E+03  0.94851295291E+02 0.  0.
          2    1    3    3  502    0 -0.84999419788E+02 -0.12250158308E+03  0.53375796453E+03  0.55419229869E+03  0.00000000000E+00 0. -1.
         -1    1    3    3    0  502 -0.74127974838E+02 -0.77489741604E+02  0.20140205980E+03  0.22817187907E+03  0.00000000000E+00 0.  1.
         11    1    5    5    0    0  0.15720519214E+02 -0.18235271161E+03 -0.66305617627E+03  0.68785400998E+03  0.00000000000E+00 0.  1.
        -11    1    5    5    0    0 -0.19912723469E+01 -0.30943779100E+01  0.25759693290E+01  0.44917655987E+01  0.00000000000E+00 0. -1.
          3    1    6    6  503    0 -0.55109894820E+01  0.57081956988E+01  0.13251704257E+02  0.15445457873E+02  0.00000000000E+00 0. -1.
         -3    1    6    6    0  503  0.15090913724E+03  0.37973021850E+03  0.38055718917E+02  0.41038621357E+03  0.00000000000E+00 0.  1.
<mgrwt>
<rscale>  0 0.18963612E+04</rscale>
<asrwt>0</asrwt>
<pdfrwt beam="1">  1        2 0.15588684E+00 0.18963612E+04</pdfrwt>
<pdfrwt beam="2">  1       -1 0.13650418E+00 0.18963612E+04</pdfrwt>
<totfact> 0.11818584E+01</totfact>
</mgrwt>
</event>
<event>
12    6  0.1586493E-007  0.1753911E+04  0.7818608E-02  0.8731200E-01
          2   -1    0    0  501    0  0.00000000000E+00  0.00000000000E+00  0.72979242776E+03  0.72979242776E+03  0.00000000000E+00 0. -1.
         -1   -1    0    0    0  501 -0.00000000000E+00 -0.00000000000E+00 -0.10537944845E+04  0.10537944845E+04  0.00000000000E+00 0.  1.
         24    2    1    2    0    0 -0.13679240373E+03  0.43379816380E+03 -0.53044464936E+03  0.70383945735E+03  0.84412363151E+02 0.  0.
        254    2    1    2    0    0  0.13679240373E+03 -0.43379816380E+03  0.20644259264E+03  0.10797474549E+04  0.95725807056E+03 0.  0.
         23    2    4    4    0    0 -0.34781778897E+03 -0.38535247093E+03 -0.33040591471E+02  0.52891066964E+03  0.95817924262E+02 0.  0.
         23    2    4    4    0    0  0.48461019270E+03 -0.48445692877E+02  0.23948318412E+03  0.55083678525E+03  0.94206923767E+02 0.  0.
          4    1    3    3  502    0 -0.21289617413E+02  0.10918788973E+03 -0.81417105350E+02  0.13785495318E+03  0.00000000000E+00 0. -1.
         -3    1    3    3    0  502 -0.11550278632E+03  0.32461027408E+03 -0.44902754401E+03  0.56598450418E+03  0.00000000000E+00 0.  1.
         11    1    5    5    0    0 -0.79387228403E+02 -0.15114656882E+03 -0.25258454285E+02  0.17258507123E+03  0.00000000000E+00 0. -1.
        -11    1    5    5    0    0 -0.26843056056E+03 -0.23420590211E+03 -0.77821371868E+01  0.35632559842E+03  0.00000000000E+00 0.  1.
          3    1    6    6  503    0  0.10426408611E+03 -0.32047259549E+01  0.11130824922E+02  0.10490550598E+03  0.00000000000E+00 0. -1.
         -3    1    6    6    0  503  0.38034610658E+03 -0.45240966922E+02  0.22835235919E+03  0.44593127927E+03  0.00000000000E+00 0.  1.
<mgrwt>
<rscale>  0 0.17539113E+04</rscale>
<asrwt>0</asrwt>
<pdfrwt beam="1">  1        2 0.11227576E+00 0.17539113E+04</pdfrwt>
<pdfrwt beam="2">  1       -1 0.16212223E+00 0.17539113E+04</pdfrwt>
<totfact> 0.11837151E+01</totfact>
</mgrwt>
</event>
<event>
12    6  0.1586493E-007  0.3283336E+04  0.7818608E-02  0.8167148E-01
          2   -1    0    0  501    0  0.00000000000E+00  0.00000000000E+00  0.31783744477E+04  0.31783744477E+04  0.00000000000E+00 0. -1.
         -1   -1    0    0    0  501 -0.00000000000E+00 -0.00000000000E+00 -0.84794100267E+03  0.84794100267E+03  0.00000000000E+00 0.  1.
         24    2    1    2    0    0 -0.22812779272E+03  0.14959898875E+04  0.11146560453E+04  0.18811901801E+04  0.79939734926E+02 0.  0.
        254    2    1    2    0    0  0.22812779272E+03 -0.14959898875E+04  0.12157773997E+04  0.21451252702E+04  0.91291823626E+03 0.  0.
         23    2    4    4    0    0  0.35009900847E+03 -0.58194285974E+03  0.96760787919E+03  0.11858381942E+04  0.93383120748E+02 0.  0.
         23    2    4    4    0    0 -0.12197121576E+03 -0.91404702772E+03  0.24816952053E+03  0.95928707602E+03  0.91019980978E+02 0.  0.
          2    1    3    3  502    0 -0.21643640369E+03  0.12154006068E+04  0.91334550863E+03  0.15356573088E+04  0.00000000000E+00 0. -1.
         -1    1    3    3    0  502 -0.11691389027E+02  0.28058928068E+03  0.20131053663E+03  0.34553287133E+03  0.00000000000E+00 0.  1.
         11    1    5    5    0    0  0.28541434132E+01 -0.51003231721E+02  0.69042386905E+02  0.85885545758E+02  0.00000000000E+00 0. -1.
        -11    1    5    5    0    0  0.34724486506E+03 -0.53093962802E+03  0.89856549229E+03  0.10999526485E+04  0.00000000000E+00 0.  1.
          4    1    6    6  503    0 -0.26276147778E+02 -0.40417362687E+03  0.71741249224E+02  0.41133145204E+03  0.00000000000E+00 0. -1.
         -4    1    6    6    0  503 -0.95695067979E+02 -0.50987340085E+03  0.17642827131E+03  0.54795562398E+03  0.00000000000E+00 0.  1.
<mgrwt>
<rscale>  0 0.32833361E+04</rscale>
<asrwt>0</asrwt>
<pdfrwt beam="1">  1        2 0.48898068E+00 0.32833361E+04</pdfrwt>
<pdfrwt beam="2">  1       -1 0.13045246E+00 0.32833361E+04</pdfrwt>
<totfact> 0.63894974E-01</totfact>
</mgrwt>
</event>
<event>
12    6  0.1586493E-007  0.1413161E+04  0.7818608E-02  0.8944346E-01
          2   -1    0    0  501    0  0.00000000000E+00  0.00000000000E+00  0.42917400625E+04  0.42917400625E+04  0.00000000000E+00 0. -1.
         -1   -1    0    0    0  501 -0.00000000000E+00 -0.00000000000E+00 -0.11632955322E+03  0.11632955322E+03  0.00000000000E+00 0.  1.
         24    2    1    2    0    0  0.45709741150E+02 -0.64395706864E+02  0.24338958777E+04  0.24361783861E+04  0.69855549193E+02 0.  0.
        254    2    1    2    0    0 -0.45709741150E+02  0.64395706864E+02  0.17415146316E+04  0.19718912296E+04  0.92154523602E+03 0.  0.
         23    2    4    4    0    0  0.24600027354E+03  0.28238690834E+03  0.31746793010E+03  0.49933071317E+03  0.91031719117E+02 0.  0.
         23    2    4    4    0    0 -0.29171001469E+03 -0.21799120148E+03  0.14240467015E+04  0.14725605165E+04  0.88941385738E+02 0.  0.
          2    1    3    3  502    0  0.13167907339E+02 -0.28444125796E+02  0.18520725503E+04  0.18523377645E+04  0.00000000000E+00 0. -1.
         -1    1    3    3    0  502  0.32541833811E+02 -0.35951581069E+02  0.58182332745E+03  0.58384062165E+03  0.00000000000E+00 0.  1.
         11    1    5    5    0    0  0.24450944242E+03  0.24023423459E+03  0.29000313644E+03  0.44899796664E+03  0.00000000000E+00 0. -1.
        -11    1    5    5    0    0  0.14908311153E+01  0.42152673754E+02  0.27464793656E+02  0.50332746524E+02  0.00000000000E+00 0.  1.
          4    1    6    6  503    0 -0.24923318528E+03 -0.15619845316E+03  0.12261064879E+04  0.12608934361E+04  0.00000000000E+00 0. -1.
         -4    1    6    6    0  503 -0.42476829407E+02 -0.61792748321E+02  0.19794021353E+03  0.21166708038E+03  0.00000000000E+00 0.  1.
<mgrwt>
<rscale>  0 0.14131613E+04</rscale>
<asrwt>0</asrwt>
<pdfrwt beam="1">  1        2 0.66026758E+00 0.14131613E+04</pdfrwt>
<pdfrwt beam="2">  1       -1 0.17896858E-01 0.14131613E+04</pdfrwt>
<totfact> 0.54472279E+00</totfact>
</mgrwt>
</event>
<event>
12    6  0.1586493E-007  0.1627003E+04  0.7818608E-02  0.8804128E-01
          2   -1    0    0  501    0  0.00000000000E+00  0.00000000000E+00  0.29630815864E+04  0.29630815864E+04  0.00000000000E+00 0. -1.
         -3   -1    0    0    0  501 -0.00000000000E+00 -0.00000000000E+00 -0.22334347200E+03  0.22334347200E+03  0.00000000000E+00 0.  1.
         24    2    1    2    0    0  0.13117385716E+03  0.88246607704E+02  0.20088173037E+04  0.20163932062E+04  0.74165745978E+02 0.  0.
        254    2    1    2    0    0 -0.13117385716E+03 -0.88246607704E+02  0.73092081068E+03  0.11700318522E+04  0.89985290965E+03 0.  0.
         23    2    4    4    0    0 -0.20812211580E+02  0.38357741002E+03  0.18968570083E+03  0.43760669138E+03  0.89186173909E+02 0.  0.
         23    2    4    4    0    0 -0.11036164558E+03 -0.47182401772E+03  0.54123510985E+03  0.73242516077E+03  0.93346534415E+02 0.  0.
          4    1    3    3  502    0  0.99539768642E+02  0.38357172998E+02  0.15696502679E+04  0.15732709245E+04  0.00000000000E+00 0. -1.
         -3    1    3    3    0  502  0.31634088520E+02  0.49889434706E+02  0.43916703581E+03  0.44312228176E+03  0.00000000000E+00 0.  1.
         11    1    5    5    0    0 -0.43634531265E+02  0.34974203374E+03  0.15961078153E+03  0.38690963294E+03  0.00000000000E+00 0. -1.
        -11    1    5    5    0    0  0.22822319685E+02  0.33835376283E+02  0.30074919298E+02  0.50697058443E+02  0.00000000000E+00 0.  1.
          3    1    6    6  503    0 -0.93726121310E+02 -0.46676246445E+03  0.52233742718E+03  0.70674477138E+03  0.00000000000E+00 0. -1.
         -3    1    6    6    0  503 -0.16635524272E+02 -0.50615532710E+01  0.18897682672E+02  0.25680389399E+02  0.00000000000E+00 0.  1.
<mgrwt>
<rscale>  0 0.16270033E+04</rscale>
<asrwt>0</asrwt>
<pdfrwt beam="1">  1        2 0.45585868E+00 0.16270033E+04</pdfrwt>
<pdfrwt beam="2">  1       -3 0.34360536E-01 0.16270033E+04</pdfrwt>
<totfact> 0.95816100E+00</totfact>
</mgrwt>
</event>
<event>
12    6  0.1586493E-007  0.3063469E+04  0.7818608E-02  0.8225836E-01
          2   -1    0    0  501    0  0.00000000000E+00  0.00000000000E+00  0.21713342533E+04  0.21713342533E+04  0.00000000000E+00 0. -1.
         -1   -1    0    0    0  501 -0.00000000000E+00 -0.00000000000E+00 -0.10805386886E+04  0.10805386886E+04  0.00000000000E+00 0.  1.
         24    2    1    2    0    0  0.77952121239E+03  0.85061031796E+03 -0.34039116584E+03  0.12054714938E+04  0.78129015141E+02 0.  0.
        254    2    1    2    0    0 -0.77952121239E+03 -0.85061031796E+03  0.14311867305E+04  0.20464014481E+04  0.89903959623E+03 0.  0.
         23    2    4    4    0    0 -0.85942857921E+03 -0.84766924158E+03  0.14815883005E+04  0.19132420463E+04  0.90722706861E+02 0.  0.
         23    2    4    4    0    0  0.79907366820E+02 -0.29410763742E+01 -0.50401570040E+02  0.13315940179E+03  0.93793767491E+02 0.  0.
          4    1    3    3  502    0 -0.17384987157E+01  0.37890448780E+01 -0.36723995982E+00  0.41849855507E+01  0.00000000000E+00 0. -1.
         -3    1    3    3    0  502  0.78125971111E+03  0.84682127308E+03 -0.34002392588E+03  0.12012865083E+04  0.00000000000E+00 0.  1.
         11    1    5    5    0    0 -0.53454537899E+02 -0.79772964664E+02  0.95070755524E+02  0.13512794703E+03  0.00000000000E+00 0. -1.
        -11    1    5    5    0    0 -0.80597404132E+03 -0.76789627692E+03  0.13865175450E+04  0.17781140992E+04  0.00000000000E+00 0.  1.
          4    1    6    6  503    0  0.49571404088E+02 -0.42613460005E+02 -0.48257542048E+01  0.65547837344E+02  0.00000000000E+00 0. -1.
         -4    1    6    6    0  503  0.30335962732E+02  0.39672383630E+02 -0.45575815835E+02  0.67611564446E+02  0.00000000000E+00 0.  1.
<mgrwt>
<rscale>  0 0.30634691E+04</rscale>
<asrwt>0</asrwt>
<pdfrwt beam="1">  1        2 0.33405142E+00 0.30634691E+04</pdfrwt>
<pdfrwt beam="2">  1       -1 0.16623672E+00 0.30634691E+04</pdfrwt>
<totfact> 0.13614341E+00</totfact>
</mgrwt>
</event>
<event>
12    6  0.1586493E-007  0.1519186E+04  0.7818608E-02  0.8871793E-01
         -1   -1    0    0    0  501 -0.00000000000E+00  0.00000000000E+00  0.15925793409E+03  0.15925793409E+03  0.00000000000E+00 0.  1.
          2   -1    0    0  501    0  0.00000000000E+00 -0.00000000000E+00 -0.36229396524E+04  0.36229396524E+04  0.00000000000E+00 0. -1.
         24    2    1    2    0    0  0.18455814649E+03 -0.38798332825E+03 -0.55632034781E+03  0.70745992737E+03  0.80090242930E+02 0.  0.
        254    2    1    2    0    0 -0.18455814649E+03  0.38798332825E+03 -0.29073613705E+04  0.30747376591E+04  0.90369727302E+03 0.  0.
         23    2    4    4    0    0 -0.27407483945E+03  0.34603215012E+03 -0.29052505433E+04  0.29400733695E+04  0.93249301690E+02 0.  0.
         23    2    4    4    0    0  0.89516692959E+02  0.41951178125E+02 -0.21108271687E+01  0.13466428957E+03  0.91415948436E+02 0.  0.
          2    1    3    3  502    0  0.88147300850E+02 -0.11801149040E+03 -0.22978378061E+03  0.27294183327E+03  0.00000000000E+00 0. -1.
         -1    1    3    3    0  502  0.96410845636E+02 -0.26997183784E+03 -0.32653656720E+03  0.43451809410E+03  0.00000000000E+00 0.  1.
         11    1    5    5    0    0 -0.22707606808E+03  0.22370958177E+03 -0.19513954688E+04  0.19772591619E+04  0.00000000000E+00 0. -1.
        -11    1    5    5    0    0 -0.46998771370E+02  0.12232256836E+03 -0.95385507451E+03  0.96281420763E+03  0.00000000000E+00 0.  1.
          3    1    6    6  503    0  0.94770918729E+02  0.53676978891E+02 -0.21874292317E+02  0.11109108769E+03  0.00000000000E+00 0. -1.
         -3    1    6    6    0  503 -0.52542257702E+01 -0.11725800766E+02  0.19763465148E+02  0.23573201877E+02  0.00000000000E+00 0.  1.
<mgrwt>
<rscale>  0 0.15191865E+04</rscale>
<asrwt>0</asrwt>
<pdfrwt beam="1">  1        2 0.55737533E+00 0.15191865E+04</pdfrwt>
<pdfrwt beam="2">  1       -1 0.24501220E-01 0.15191865E+04</pdfrwt>
<totfact> 0.10754704E+01</totfact>
</mgrwt>
</event>
<event>
12    6  0.1586493E-007  0.1830491E+04  0.7818608E-02  0.8690251E-01
          2   -1    0    0  501    0  0.00000000000E+00  0.00000000000E+00  0.12701910094E+04  0.12701910094E+04  0.00000000000E+00 0. -1.
         -1   -1    0    0    0  501 -0.00000000000E+00 -0.00000000000E+00 -0.65948680795E+03  0.65948680795E+03  0.00000000000E+00 0.  1.
         24    2    1    2    0    0  0.12952466448E+03 -0.67850776584E+03  0.30378574791E+03  0.75879292727E+03  0.79570715847E+02 0.  0.
        254    2    1    2    0    0 -0.12952466448E+03  0.67850776584E+03  0.30691845358E+03  0.11708848901E+04  0.89421645129E+03 0.  0.
         23    2    4    4    0    0  0.33696242420E+03  0.52438886200E+03  0.15800191379E+03  0.64945637299E+03  0.91113235793E+02 0.  0.
         23    2    4    4    0    0 -0.46648708868E+03  0.15411890384E+03  0.14891653979E+03  0.52142851713E+03  0.91371342488E+02 0.  0.
          2    1    3    3  502    0  0.14056846383E+03 -0.61805033420E+03  0.27473026862E+03  0.69081287562E+03  0.00000000000E+00 0. -1.
         -1    1    3    3    0  502 -0.11043799352E+02 -0.60457431647E+02  0.29055479295E+02  0.67980051651E+02  0.00000000000E+00 0.  1.
         11    1    5    5    0    0  0.17117326675E+03  0.19411763530E+03  0.87830383894E+02  0.27330590905E+03  0.00000000000E+00 0.  1.
        -11    1    5    5    0    0  0.16578915745E+03  0.33027122670E+03  0.70171529898E+02  0.37615046394E+03  0.00000000000E+00 0. -1.
          3    1    6    6  503    0 -0.39017645044E+03  0.11329358660E+03  0.15456555547E+03  0.43469944810E+03  0.00000000000E+00 0. -1.
         -3    1    6    6    0  503 -0.76310638246E+02  0.40825317240E+02 -0.56490156805E+01  0.86729069034E+02  0.00000000000E+00 0.  1.
<mgrwt>
<rscale>  0 0.18304909E+04</rscale>
<asrwt>0</asrwt>
<pdfrwt beam="1">  1        2 0.19541400E+00 0.18304909E+04</pdfrwt>
<pdfrwt beam="2">  1       -1 0.10145951E+00 0.18304909E+04</pdfrwt>
<totfact> 0.17035236E+01</totfact>
</mgrwt>
</event>
<event>
12    6  0.1586493E-007  0.1404861E+04  0.7818608E-02  0.8950307E-01
         -1   -1    0    0    0  501 -0.00000000000E+00  0.00000000000E+00  0.47259904819E+03  0.47259904819E+03  0.00000000000E+00 0.  1.
          2   -1    0    0  501    0  0.00000000000E+00 -0.00000000000E+00 -0.10440320409E+04  0.10440320409E+04  0.00000000000E+00 0. -1.
         24    2    1    2    0    0  0.19883070240E+02 -0.24372724829E+03 -0.51234362836E+03  0.57344966982E+03  0.80933443395E+02 0.  0.
        254    2    1    2    0    0 -0.19883070240E+02  0.24372724829E+03 -0.59089364316E+02  0.94318141924E+03  0.90901118177E+03 0.  0.
         23    2    4    4    0    0 -0.10046027252E+03  0.53806319097E+03 -0.20663767338E+03  0.59220090153E+03  0.91643416999E+02 0.  0.
         23    2    4    4    0    0  0.80577202284E+02 -0.29433594268E+03  0.14754830907E+03  0.35098051771E+03  0.91052114872E+02 0.  0.
          2    1    3    3  502    0 -0.19811509399E+01 -0.17250566123E+03 -0.42480672855E+03  0.45850069219E+03  0.00000000000E+00 0. -1.
         -1    1    3    3    0  502  0.21864221180E+02 -0.71221587059E+02 -0.87536899803E+02  0.11494897763E+03  0.00000000000E+00 0.  1.
         11    1    5    5    0    0 -0.96256289900E+02  0.32539029203E+03 -0.97147454030E+02  0.35296139069E+03  0.00000000000E+00 0. -1.
        -11    1    5    5    0    0 -0.42039826243E+01  0.21267289894E+03 -0.10949021935E+03  0.23923951084E+03  0.00000000000E+00 0.  1.
          2    1    6    6  503    0  0.45416092720E+02 -0.19912624330E+03  0.14311147429E+03  0.24938880552E+03  0.00000000000E+00 0.  1.
         -2    1    6    6    0  503  0.35161109564E+02 -0.95209699385E+02  0.44368347804E+01  0.10159171219E+03  0.00000000000E+00 0. -1.
<mgrwt>
<rscale>  0 0.14048609E+04</rscale>
<asrwt>0</asrwt>
<pdfrwt beam="1">  1        2 0.16062031E+00 0.14048609E+04</pdfrwt>
<pdfrwt beam="2">  1       -1 0.72707546E-01 0.14048609E+04</pdfrwt>
<totfact> 0.49999163E+01</totfact>
</mgrwt>
</event>
<event>
12    6  0.1586493E-007  0.1102864E+04  0.7818608E-02  0.9202405E-01
         -1   -1    0    0    0  501 -0.00000000000E+00  0.00000000000E+00  0.13946708327E+03  0.13946708327E+03  0.00000000000E+00 0.  1.
          2   -1    0    0  501    0  0.00000000000E+00 -0.00000000000E+00 -0.21802792768E+04  0.21802792768E+04  0.00000000000E+00 0. -1.
         24    2    1    2    0    0  0.38896714251E+01 -0.60246762034E+00  0.11225619590E+01  0.81380246656E+02  0.81277253211E+02 0.  0.
        254    2    1    2    0    0 -0.38896714251E+01  0.60246762034E+00 -0.20419347555E+04  0.22383661134E+04  0.91693501380E+03 0.  0.
         23    2    4    4    0    0  0.37259385784E+03  0.12616342862E+03 -0.49571704770E+03  0.63948489445E+03  0.91989919135E+02 0.  0.
         23    2    4    4    0    0 -0.37648352926E+03 -0.12556096100E+03 -0.15462177078E+04  0.15988812190E+04  0.90147378166E+02 0.  0.
          4    1    3    3  502    0  0.34560442812E+02 -0.87460425188E+01 -0.22200853188E+02  0.41997563613E+02  0.00000000000E+00 0. -1.
         -3    1    3    3    0  502 -0.30670771387E+02  0.81435748985E+01  0.23323415147E+02  0.39382683044E+02  0.00000000000E+00 0.  1.
         11    1    5    5    0    0 -0.19491939874E+01  0.12364942499E+02 -0.14278840858E+02  0.18988850846E+02  0.00000000000E+00 0.  1.
        -11    1    5    5    0    0  0.37454305182E+03  0.11379848612E+03 -0.48143820685E+03  0.62049604360E+03  0.00000000000E+00 0. -1.
          4    1    6    6  503    0 -0.36307802671E+03 -0.10152826194E+03 -0.13880814747E+04  0.14383684583E+04  0.00000000000E+00 0. -1.
         -4    1    6    6    0  503 -0.13405502555E+02 -0.24032699060E+02 -0.15813623305E+03  0.16051276064E+03  0.00000000000E+00 0.  1.
<mgrwt>
<rscale>  0 0.11028639E+04</rscale>
<asrwt>0</asrwt>
<pdfrwt beam="1">  1        2 0.33542760E+00 0.11028639E+04</pdfrwt>
<pdfrwt beam="2">  1       -1 0.21456473E-01 0.11028639E+04</pdfrwt>
<totfact> 0.10930846E+02</totfact>
</mgrwt>
</event>
<event>
12    6  0.1586493E-007  0.2281457E+04  0.7818608E-02  0.8485268E-01
          2   -1    0    0  501    0  0.00000000000E+00  0.00000000000E+00  0.61294775298E+03  0.61294775298E+03  0.00000000000E+00 0. -1.
         -1   -1    0    0    0  501 -0.00000000000E+00 -0.00000000000E+00 -0.21229571831E+04  0.21229571831E+04  0.00000000000E+00 0.  1.
         24    2    1    2    0    0  0.83651081779E+03 -0.42816558388E+03 -0.38690100815E+03  0.10186650995E+04  0.70071959008E+02 0.  0.
        254    2    1    2    0    0 -0.83651081779E+03  0.42816558388E+03 -0.11231084220E+04  0.17172398365E+04  0.89691917873E+03 0.  0.
         23    2    4    4    0    0 -0.79420850687E+03  0.62298642162E+01 -0.97073945302E+03  0.12574492996E+04  0.89653174813E+02 0.  0.
         23    2    4    4    0    0 -0.42302310911E+02  0.42193571966E+03 -0.15236896896E+03  0.45979053696E+03  0.91497530805E+02 0.  0.
          4    1    3    3  502    0  0.20599007057E+03 -0.12323162173E+03 -0.70881993669E+02  0.25028423601E+03  0.00000000000E+00 0. -1.
         -3    1    3    3    0  502  0.63052074722E+03 -0.30493396215E+03 -0.31601901448E+03  0.76838086354E+03  0.00000000000E+00 0.  1.
         11    1    5    5    0    0 -0.11964477514E+03  0.14074758052E+02 -0.10425398325E+03  0.15931686683E+03  0.00000000000E+00 0.  1.
        -11    1    5    5    0    0 -0.67456373174E+03 -0.78448938359E+01 -0.86648546977E+03  0.10981324328E+04  0.00000000000E+00 0. -1.
          4    1    6    6  503    0 -0.11818908125E+02  0.38007899033E+03 -0.14717493414E+03  0.40775015232E+03  0.00000000000E+00 0. -1.
         -4    1    6    6    0  503 -0.30483402786E+02  0.41856729330E+02 -0.51940348199E+01  0.52040384639E+02  0.00000000000E+00 0.  1.
<mgrwt>
<rscale>  0 0.22814573E+04</rscale>
<asrwt>0</asrwt>
<pdfrwt beam="1">  1        2 0.94299654E-01 0.22814573E+04</pdfrwt>
<pdfrwt beam="2">  1       -1 0.32660880E+00 0.22814573E+04</pdfrwt>
<totfact> 0.11102549E+00</totfact>
</mgrwt>
</event>
<event>
12    6  0.1586493E-007  0.2611739E+04  0.7818608E-02  0.8364225E-01
         -1   -1    0    0    0  501 -0.00000000000E+00  0.00000000000E+00  0.96588328448E+03  0.96588328448E+03  0.00000000000E+00 0.  1.
          2   -1    0    0  501    0  0.00000000000E+00 -0.00000000000E+00 -0.17655296005E+04  0.17655296005E+04  0.00000000000E+00 0. -1.
         24    2    1    2    0    0  0.15940538726E+02 -0.94912852280E+03 -0.10279563135E+04  0.14014667086E+04  0.79471374452E+02 0.  0.
        254    2    1    2    0    0 -0.15940538726E+02  0.94912852280E+03  0.22830999747E+03  0.13299461764E+04  0.90306828284E+03 0.  0.
         23    2    4    4    0    0 -0.44857426008E+03  0.51962226421E+03  0.89836868232E+02  0.69837446645E+03  0.91815402960E+02 0.  0.
         23    2    4    4    0    0  0.43263372135E+03  0.42950625859E+03  0.13847312924E+03  0.63157170990E+03  0.89780032361E+02 0.  0.
          4    1    3    3  502    0  0.22019149791E+02 -0.31238068224E+03 -0.29071941686E+03  0.42729885670E+03  0.00000000000E+00 0. -1.
         -3    1    3    3    0  502 -0.60786110647E+01 -0.63674784056E+03 -0.73723689659E+03  0.97416785190E+03  0.00000000000E+00 0.  1.
         11    1    5    5    0    0 -0.41947752812E+03  0.51291891212E+03  0.88444730537E+02  0.66848311674E+03  0.00000000000E+00 0.  1.
        -11    1    5    5    0    0 -0.29096731959E+02  0.67033520948E+01  0.13921376955E+01  0.29891349708E+02  0.00000000000E+00 0. -1.
          2    1    6    6  503    0  0.97570431574E+02  0.15050726866E+03  0.25594512280E+02  0.18118362535E+03  0.00000000000E+00 0. -1.
         -2    1    6    6    0  503  0.33506328978E+03  0.27899898993E+03  0.11287861696E+03  0.45038808455E+03  0.00000000000E+00 0.  1.
<mgrwt>
<rscale>  0 0.26117393E+04</rscale>
<asrwt>0</asrwt>
<pdfrwt beam="1">  1        2 0.27161994E+00 0.26117393E+04</pdfrwt>
<pdfrwt beam="2">  1       -1 0.14859743E+00 0.26117393E+04</pdfrwt>
<totfact> 0.32460231E+00</totfact>
</mgrwt>
</event>
<event>
12    6  0.1586493E-007  0.1860825E+04  0.7818608E-02  0.8674606E-01
          2   -1    0    0  501    0  0.00000000000E+00  0.00000000000E+00  0.21282181604E+04  0.21282181604E+04  0.00000000000E+00 0. -1.
         -1   -1    0    0    0  501 -0.00000000000E+00 -0.00000000000E+00 -0.40675694471E+03  0.40675694471E+03  0.00000000000E+00 0.  1.
         24    2    1    2    0    0 -0.58690677244E+02 -0.58787854875E+02  0.16232988125E+04  0.16273786509E+04  0.79759834408E+02 0.  0.
        254    2    1    2    0    0  0.58690677244E+02  0.58787854875E+02  0.98162403130E+02  0.90759645418E+03  0.89844023662E+03 0.  0.
         23    2    4    4    0    0  0.44586007048E+03  0.90897784763E+02 -0.81465169966E+02  0.47009847798E+03  0.85454054098E+02 0.  0.
         23    2    4    4    0    0 -0.38716939323E+03 -0.32109929888E+02  0.17962757310E+03  0.43749797620E+03  0.90593749809E+02 0.  0.
          4    1    3    3  502    0 -0.65893099154E+02 -0.44451868714E+02  0.80329219509E+03  0.80721510135E+03  0.00000000000E+00 0. -1.
         -3    1    3    3    0  502  0.72024219101E+01 -0.14335986161E+02  0.82000661743E+03  0.82016354955E+03  0.00000000000E+00 0.  1.
         11    1    5    5    0    0  0.19119858322E+03  0.47679351213E+02 -0.77554343340E+02  0.21176613263E+03  0.00000000000E+00 0. -1.
        -11    1    5    5    0    0  0.25466148726E+03  0.43218433550E+02 -0.39108266259E+01  0.25833234535E+03  0.00000000000E+00 0.  1.
          3    1    6    6  503    0 -0.36180394750E+03 -0.26912565571E+02  0.13737118193E+03  0.38793971727E+03  0.00000000000E+00 0. -1.
         -3    1    6    6    0  503 -0.25365445732E+02 -0.51973643167E+01  0.42256391166E+02  0.49558258922E+02  0.00000000000E+00 0.  1.
<mgrwt>
<rscale>  0 0.18608251E+04</rscale>
<asrwt>0</asrwt>
<pdfrwt beam="1">  1        2 0.32741817E+00 0.18608251E+04</pdfrwt>
<pdfrwt beam="2">  1       -1 0.62577993E-01 0.18608251E+04</pdfrwt>
<totfact> 0.15701180E+01</totfact>
</mgrwt>
</event>
<event>
12    6  0.1586493E-007  0.1831657E+04  0.7818608E-02  0.8689643E-01
         -1   -1    0    0    0  501 -0.00000000000E+00  0.00000000000E+00  0.23815864487E+03  0.23815864487E+03  0.00000000000E+00 0.  1.
          2   -1    0    0  501    0  0.00000000000E+00 -0.00000000000E+00 -0.35217785697E+04  0.35217785697E+04  0.00000000000E+00 0. -1.
         24    2    1    2    0    0  0.16088215813E+03  0.51334224497E+03 -0.21525501473E+04  0.22201779419E+04  0.79464633417E+02 0.  0.
        254    2    1    2    0    0 -0.16088215813E+03 -0.51334224497E+03 -0.11310697776E+04  0.15397592726E+04  0.89562070473E+03 0.  0.
         23    2    4    4    0    0 -0.99802146636E+02 -0.51383963643E+03 -0.12616409648E+04  0.13689796492E+04  0.91518934898E+02 0.  0.
         23    2    4    4    0    0 -0.61080011494E+02  0.49739145708E+00  0.13057118725E+03  0.17077962344E+03  0.91574175614E+02 0.  0.
          4    1    3    3  502    0  0.16802176071E+03  0.49797645584E+03 -0.21076310690E+04  0.21721695573E+04  0.00000000000E+00 0. -1.
         -3    1    3    3    0  502 -0.71396025775E+01  0.15365789135E+02 -0.44919078296E+02  0.48008384639E+02  0.00000000000E+00 0.  1.
         11    1    5    5    0    0 -0.91903424639E+02 -0.49128050823E+03 -0.12391921415E+04  0.13361885873E+04  0.00000000000E+00 0. -1.
        -11    1    5    5    0    0 -0.78987219969E+01 -0.22559128194E+02 -0.22448823269E+02  0.32791061896E+02  0.00000000000E+00 0.  1.
          2    1    6    6  503    0 -0.17693604741E+02  0.24942168760E+02 -0.48134387142E+00  0.30584426153E+02  0.00000000000E+00 0.  1.
         -2    1    6    6    0  503 -0.43386406753E+02 -0.24444777303E+02  0.13105253112E+03  0.14019519728E+03  0.00000000000E+00 0. -1.
<mgrwt>
<rscale>  0 0.18316572E+04</rscale>
<asrwt>0</asrwt>
<pdfrwt beam="1">  1        2 0.54181208E+00 0.18316572E+04</pdfrwt>
<pdfrwt beam="2">  1       -1 0.36639792E-01 0.18316572E+04</pdfrwt>
<totfact> 0.60599995E+00</totfact>
</mgrwt>
</event>
<event>
12    6  0.1586493E-007  0.2700218E+04  0.7818608E-02  0.8334934E-01
         -1   -1    0    0    0  501 -0.00000000000E+00  0.00000000000E+00  0.76173864147E+03  0.76173864147E+03  0.00000000000E+00 0.  1.
          2   -1    0    0  501    0  0.00000000000E+00 -0.00000000000E+00 -0.23929394538E+04  0.23929394538E+04  0.00000000000E+00 0. -1.
         24    2    1    2    0    0  0.40370067527E+03 -0.10966704394E+04 -0.10305568102E+04  0.15600962406E+04  0.78693410503E+02 0.  0.
        254    2    1    2    0    0 -0.40370067527E+03  0.10966704394E+04 -0.60064400212E+03  0.15945818547E+04  0.90346985898E+03 0.  0.
         23    2    4    4    0    0 -0.59244843594E+03  0.72326974774E+03 -0.11355920178E+03  0.94619543087E+03  0.90971555188E+02 0.  0.
         23    2    4    4    0    0  0.18874776067E+03  0.37340069170E+03 -0.48708480034E+03  0.64838642382E+03  0.89997545269E+02 0.  0.
          2    1    3    3  502    0  0.25365069130E+03 -0.58650637824E+03 -0.54013794732E+03  0.83670628481E+03  0.00000000000E+00 0. -1.
         -1    1    3    3    0  502  0.15004998397E+03 -0.51016406120E+03 -0.49041886288E+03  0.72338995576E+03  0.00000000000E+00 0.  1.
         11    1    5    5    0    0 -0.22613038433E+03  0.26941509129E+03  0.13490183882E+01  0.35174033317E+03  0.00000000000E+00 0. -1.
        -11    1    5    5    0    0 -0.36631805162E+03  0.45385465645E+03 -0.11490822017E+03  0.59445509770E+03  0.00000000000E+00 0.  1.
          1    1    6    6  503    0  0.15540867822E+03  0.35956329927E+03 -0.44096285259E+03  0.58981849820E+03  0.00000000000E+00 0. -1.
         -1    1    6    6    0  503  0.33339082453E+02  0.13837392428E+02 -0.46121947748E+02  0.58567925625E+02  0.00000000000E+00 0.  1.
<mgrwt>
<rscale>  0 0.27002181E+04</rscale>
<asrwt>0</asrwt>
<pdfrwt beam="1">  1        2 0.36814454E+00 0.27002181E+04</pdfrwt>
<pdfrwt beam="2">  1       -1 0.11719056E+00 0.27002181E+04</pdfrwt>
<totfact> 0.26249120E+00</totfact>
</mgrwt>
</event>
<event>
12    6  0.1586493E-007  0.2840037E+04  0.7818608E-02  0.8290945E-01
          2   -1    0    0  501    0  0.00000000000E+00  0.00000000000E+00  0.10053011502E+04  0.10053011502E+04  0.00000000000E+00 0. -1.
         -1   -1    0    0    0  501 -0.00000000000E+00 -0.00000000000E+00 -0.20058199581E+04  0.20058199581E+04  0.00000000000E+00 0.  1.
         24    2    1    2    0    0  0.59890325493E+03 -0.10971765530E+04 -0.76242475934E+03  0.14663153339E+04  0.79420700109E+02 0.  0.
        254    2    1    2    0    0 -0.59890325493E+03  0.10971765530E+04 -0.23809404864E+03  0.15448057744E+04  0.87593070931E+03 0.  0.
         23    2    4    4    0    0 -0.64814945945E+03  0.10468326894E+04 -0.43861957532E+03  0.13102509362E+04  0.91727763403E+02 0.  0.
         23    2    4    4    0    0  0.49246204514E+02  0.50343863548E+02  0.20052552668E+03  0.23455483820E+03  0.99225964443E+02 0.  0.
          2    1    3    3  502    0  0.42004803889E+03 -0.73972002731E+03 -0.55824865431E+03  0.10174810238E+04  0.00000000000E+00 0. -1.
         -1    1    3    3    0  502  0.17885521605E+03 -0.35745652566E+03 -0.20417610503E+03  0.44883431008E+03  0.00000000000E+00 0.  1.
         11    1    5    5    0    0 -0.30430720230E+03  0.53054327094E+03 -0.26127689996E+03  0.66508995945E+03  0.00000000000E+00 0. -1.
        -11    1    5    5    0    0 -0.34384225715E+03  0.51628941848E+03 -0.17734267536E+03  0.64516097676E+03  0.00000000000E+00 0.  1.
          2    1    6    6  503    0  0.66008129550E+02  0.48218992697E+02  0.20168282690E+03  0.21761917905E+03  0.00000000000E+00 0. -1.
         -2    1    6    6    0  503 -0.16761925036E+02  0.21248708512E+01 -0.11573002276E+01  0.16935659151E+02  0.00000000000E+00 0.  1.
<mgrwt>
<rscale>  0 0.28400374E+04</rscale>
<asrwt>0</asrwt>
<pdfrwt beam="1">  1        2 0.15466172E+00 0.28400374E+04</pdfrwt>
<pdfrwt beam="2">  1       -1 0.30858769E+00 0.28400374E+04</pdfrwt>
<totfact> 0.71748390E-01</totfact>
</mgrwt>
</event>
<event>
12    6  0.1586493E-007  0.1743703E+04  0.7818608E-02  0.8736824E-01
         -1   -1    0    0    0  501 -0.00000000000E+00  0.00000000000E+00  0.12475883921E+04  0.12475883921E+04  0.00000000000E+00 0.  1.
          2   -1    0    0  501    0  0.00000000000E+00 -0.00000000000E+00 -0.60927577066E+03  0.60927577066E+03  0.00000000000E+00 0. -1.
         24    2    1    2    0    0  0.24793579389E+03  0.29970903594E+03 -0.30269676797E+03  0.49933460761E+03  0.80075295187E+02 0.  0.
        254    2    1    2    0    0 -0.24793579389E+03 -0.29970903594E+03  0.94100938937E+03  0.13575295551E+04  0.89782523800E+03 0.  0.
         23    2    4    4    0    0  0.25453065619E+03 -0.28949881468E+03  0.16802760411E+03  0.43084786148E+03  0.93814632941E+02 0.  0.
         23    2    4    4    0    0 -0.50246645008E+03 -0.10210221263E+02  0.77298178526E+03  0.92668169363E+03  0.93066314457E+02 0.  0.
          4    1    3    3  502    0  0.78584488553E+02  0.46927717988E+02 -0.87784600180E+02  0.12682219280E+03  0.00000000000E+00 0. -1.
         -3    1    3    3    0  502  0.16935130534E+03  0.25278131795E+03 -0.21491216779E+03  0.37251241482E+03  0.00000000000E+00 0.  1.
         11    1    5    5    0    0  0.11421492953E+03 -0.10039288681E+03  0.21690837019E+02  0.15360427813E+03  0.00000000000E+00 0. -1.
        -11    1    5    5    0    0  0.14031572667E+03 -0.18910592787E+03  0.14633676709E+03  0.27724358335E+03  0.00000000000E+00 0.  1.
          3    1    6    6  503    0 -0.41072668242E+02 -0.95528930699E+01  0.28774178279E+02  0.51050711828E+02  0.00000000000E+00 0. -1.
         -3    1    6    6    0  503 -0.46139378184E+03 -0.65732819319E+00  0.74420760698E+03  0.87563098180E+03  0.00000000000E+00 0.  1.
<mgrwt>
<rscale>  0 0.17437034E+04</rscale>
<asrwt>0</asrwt>
<pdfrwt beam="1">  1        2 0.93734734E-01 0.17437034E+04</pdfrwt>
<pdfrwt beam="2">  1       -1 0.19193668E+00 0.17437034E+04</pdfrwt>
<totfact> 0.90295123E+00</totfact>
</mgrwt>
</event>
<event>
12    6  0.1586493E-007  0.1362252E+04  0.7818608E-02  0.8981605E-01
          2   -1    0    0  501    0  0.00000000000E+00  0.00000000000E+00  0.20929285976E+04  0.20929285976E+04  0.00000000000E+00 0. -1.
         -1   -1    0    0    0  501 -0.00000000000E+00 -0.00000000000E+00 -0.22166672049E+03  0.22166672049E+03  0.00000000000E+00 0.  1.
         24    2    1    2    0    0 -0.77630003712E+02  0.36563516666E+02 -0.95025652211E+02  0.15159039310E+03  0.81157035890E+02 0.  0.
        254    2    1    2    0    0  0.77630003712E+02 -0.36563516666E+02  0.19662875293E+04  0.21630049250E+04  0.89718467963E+03 0.  0.
         23    2    4    4    0    0 -0.37316650795E+03  0.13768157400E+03  0.85027098556E+03  0.94355543425E+03  0.95533502739E+02 0.  0.
         23    2    4    4    0    0  0.45079651166E+03 -0.17424509066E+03  0.11160165438E+04  0.12194494907E+04  0.89360438529E+02 0.  0.
          2    1    3    3  502    0  0.97862596979E+01 -0.72676368349E+01  0.35924340744E+01  0.12708068564E+02  0.00000000000E+00 0. -1.
         -1    1    3    3    0  502 -0.87416263410E+02  0.43831153501E+02 -0.98618086285E+02  0.13888232454E+03  0.00000000000E+00 0.  1.
         11    1    5    5    0    0 -0.22400865756E+03  0.77801266073E+02  0.39463871398E+03  0.46040485471E+03  0.00000000000E+00 0.  1.
        -11    1    5    5    0    0 -0.14915785039E+03  0.59880307925E+02  0.45563227158E+03  0.48315057954E+03  0.00000000000E+00 0. -1.
          2    1    6    6  503    0  0.24821933173E+03 -0.94379689600E+02  0.72165082174E+03  0.76896051327E+03  0.00000000000E+00 0.  1.
         -2    1    6    6    0  503  0.20257717994E+03 -0.79865401064E+02  0.39436572203E+03  0.45048897748E+03  0.00000000000E+00 0. -1.
<mgrwt>
<rscale>  0 0.13622520E+04</rscale>
<asrwt>0</asrwt>
<pdfrwt beam="1">  1        2 0.32198900E+00 0.13622520E+04</pdfrwt>
<pdfrwt beam="2">  1       -1 0.34102574E-01 0.13622520E+04</pdfrwt>
<totfact> 0.53648571E+01</totfact>
</mgrwt>
</event>
<event>
12    6  0.1586493E-007  0.2214744E+04  0.7818608E-02  0.8512316E-01
          2   -1    0    0  501    0  0.00000000000E+00  0.00000000000E+00  0.31954845477E+04  0.31954845477E+04  0.00000000000E+00 0. -1.
         -1   -1    0    0    0  501 -0.00000000000E+00 -0.00000000000E+00 -0.38375157031E+03  0.38375157031E+03  0.00000000000E+00 0.  1.
         24    2    1    2    0    0 -0.33598851322E+03  0.77984165624E+03  0.59146102327E+03  0.10379102919E+04  0.79939615806E+02 0.  0.
        254    2    1    2    0    0  0.33598851322E+03 -0.77984165624E+03  0.22202719542E+04  0.25413258261E+04  0.89871470131E+03 0.  0.
         23    2    4    4    0    0  0.14093564396E+03 -0.22164704606E+03  0.17718300615E+04  0.17934472307E+04  0.89894014352E+02 0.  0.
         23    2    4    4    0    0  0.19505286927E+03 -0.55819461018E+03  0.44844189267E+03  0.74787859542E+03  0.92711475780E+02 0.  0.
          2    1    3    3  502    0  0.36882381199E+01  0.20242272319E+02  0.10702347498E+02  0.23192518859E+02  0.00000000000E+00 0. -1.
         -1    1    3    3    0  502 -0.33967675134E+03  0.75959938392E+03  0.58075867577E+03  0.10147177731E+04  0.00000000000E+00 0.  1.
         11    1    5    5    0    0 -0.12532807948E+02 -0.26732574941E+02  0.19349690329E+03  0.19573643866E+03  0.00000000000E+00 0.  1.
        -11    1    5    5    0    0  0.15346845190E+03 -0.19491447112E+03  0.15783331582E+04  0.15977107921E+04  0.00000000000E+00 0. -1.
          4    1    6    6  503    0  0.12723848535E+03 -0.44952399049E+03  0.31855742174E+03  0.56545581713E+03  0.00000000000E+00 0. -1.
         -4    1    6    6    0  503  0.67814383916E+02 -0.10867061969E+03  0.12988447093E+03  0.18242277829E+03  0.00000000000E+00 0.  1.
<mgrwt>
<rscale>  0 0.22147435E+04</rscale>
<asrwt>0</asrwt>
<pdfrwt beam="1">  1        2 0.49161299E+00 0.22147435E+04</pdfrwt>
<pdfrwt beam="2">  1       -1 0.59038705E-01 0.22147435E+04</pdfrwt>
<totfact> 0.39512593E+00</totfact>
</mgrwt>
</event>
<event>
12    6  0.1586493E-007  0.1407266E+04  0.7818608E-02  0.8948576E-01
         -1   -1    0    0    0  501 -0.00000000000E+00  0.00000000000E+00  0.11291022086E+04  0.11291022086E+04  0.00000000000E+00 0.  1.
          2   -1    0    0  501    0  0.00000000000E+00 -0.00000000000E+00 -0.43848938700E+03  0.43848938700E+03  0.00000000000E+00 0. -1.
         24    2    1    2    0    0 -0.31031451616E+03 -0.26136362142E+03  0.30381551078E+03  0.51319705383E+03  0.80382273678E+02 0.  0.
        254    2    1    2    0    0  0.31031451616E+03  0.26136362142E+03  0.38679731078E+03  0.10543945417E+04  0.89304515478E+03 0.  0.
         23    2    4    4    0    0 -0.44365674235E+02  0.10032583747E+03 -0.25828136371E+03  0.29533093066E+03  0.92073389490E+02 0.  0.
         23    2    4    4    0    0  0.35468019040E+03  0.16103778395E+03  0.64507867449E+03  0.75906361108E+03  0.91213288876E+02 0.  0.
          4    1    3    3  502    0 -0.11642961134E+03 -0.10191655164E+03  0.68851619158E+02  0.16936169389E+03  0.00000000000E+00 0. -1.
         -3    1    3    3    0  502 -0.19388490482E+03 -0.15944706979E+03  0.23496389162E+03  0.34383535994E+03  0.00000000000E+00 0.  1.
         11    1    5    5    0    0 -0.60053421620E+02  0.27445387940E+02 -0.93428739521E+02  0.11440538508E+03  0.00000000000E+00 0. -1.
        -11    1    5    5    0    0  0.15687747385E+02  0.72880449531E+02 -0.16485262418E+03  0.18092554558E+03  0.00000000000E+00 0.  1.
          3    1    6    6  503    0  0.14461547510E+03  0.84246204264E+02  0.19875872656E+03  0.25983858442E+03  0.00000000000E+00 0. -1.
         -3    1    6    6    0  503  0.21006471530E+03  0.76791579690E+02  0.44631994793E+03  0.49922502666E+03  0.00000000000E+00 0.  1.
<mgrwt>
<rscale>  0 0.14072659E+04</rscale>
<asrwt>0</asrwt>
<pdfrwt beam="1">  1        2 0.67459906E-01 0.14072659E+04</pdfrwt>
<pdfrwt beam="2">  1       -1 0.17370803E+00 0.14072659E+04</pdfrwt>
<totfact> 0.18425224E+01</totfact>
</mgrwt>
</event>
<event>
12    6  0.1586493E-007  0.1411800E+04  0.7818608E-02  0.8945321E-01
          2   -1    0    0  501    0  0.00000000000E+00  0.00000000000E+00  0.20099016908E+04  0.20099016908E+04  0.00000000000E+00 0. -1.
         -1   -1    0    0    0  501 -0.00000000000E+00 -0.00000000000E+00 -0.24792010029E+03  0.24792010029E+03  0.00000000000E+00 0.  1.
         24    2    1    2    0    0 -0.36094592630E+03 -0.22143935006E+03  0.53567308829E+03  0.68720260129E+03  0.77358969953E+02 0.  0.
        254    2    1    2    0    0  0.36094592630E+03  0.22143935006E+03  0.12263085022E+04  0.15706191898E+04  0.88526535531E+03 0.  0.
         23    2    4    4    0    0  0.43223941218E+03  0.13978646807E+03  0.15292504158E+03  0.48801738814E+03  0.91671896916E+02 0.  0.
         23    2    4    4    0    0 -0.71293485876E+02  0.81652881987E+02  0.10733834607E+04  0.10826018017E+04  0.90136857848E+02 0.  0.
          4    1    3    3  502    0 -0.19071905914E+03 -0.11770490100E+03  0.22136040826E+03  0.31500576754E+03  0.00000000000E+00 0. -1.
         -3    1    3    3    0  502 -0.17022686717E+03 -0.10373444906E+03  0.31431268003E+03  0.37219683376E+03  0.00000000000E+00 0.  1.
         11    1    5    5    0    0  0.16294821745E+03  0.29736347242E+02  0.96456023222E+02  0.19167716696E+03  0.00000000000E+00 0.  1.
        -11    1    5    5    0    0  0.26929119473E+03  0.11005012083E+03  0.56469018361E+02  0.29634022118E+03  0.00000000000E+00 0. -1.
          3    1    6    6  503    0 -0.83978708559E+01  0.68673987839E+02  0.72947139186E+03  0.73274494361E+03  0.00000000000E+00 0. -1.
         -3    1    6    6    0  503 -0.62895615020E+02  0.12978894147E+02  0.34391206880E+03  0.34985685808E+03  0.00000000000E+00 0.  1.
<mgrwt>
<rscale>  0 0.14118003E+04</rscale>
<asrwt>0</asrwt>
<pdfrwt beam="1">  1        2 0.30921563E+00 0.14118003E+04</pdfrwt>
<pdfrwt beam="2">  1       -1 0.38141555E-01 0.14118003E+04</pdfrwt>
<totfact> 0.48580516E+01</totfact>
</mgrwt>
</event>
<event>
12    6  0.1586493E-007  0.1535907E+04  0.7818608E-02  0.8860920E-01
          2   -1    0    0  501    0  0.00000000000E+00  0.00000000000E+00  0.24469855882E+04  0.24469855882E+04  0.00000000000E+00 0. -1.
         -1   -1    0    0    0  501 -0.00000000000E+00 -0.00000000000E+00 -0.24101189174E+03  0.24101189174E+03  0.00000000000E+00 0.  1.
         24    2    1    2    0    0  0.27848203773E+03 -0.11639296677E+03  0.14196855084E+04  0.14536251044E+04  0.80121366657E+02 0.  0.
        254    2    1    2    0    0 -0.27848203773E+03  0.11639296677E+03  0.78628818800E+03  0.12343723755E+04  0.90240039819E+03 0.  0.
         23    2    4    4    0    0 -0.27929183081E+02 -0.26594476000E+03  0.70761939115E+03  0.76200294136E+03  0.91742167335E+02 0.  0.
         23    2    4    4    0    0 -0.25055285465E+03  0.38233772678E+03  0.78668796842E+02  0.47236943410E+03  0.89360127479E+02 0.  0.
          2    1    3    3  502    0  0.24121641324E+03 -0.10806435283E+03  0.13322217226E+04  0.13581892285E+04  0.00000000000E+00 0. -1.
         -1    1    3    3    0  502  0.37265624488E+02 -0.83286139451E+01  0.87463785858E+02  0.95435875934E+02  0.00000000000E+00 0.  1.
         11    1    5    5    0    0  0.13448906308E+02 -0.98695042644E+02  0.36715334360E+03  0.38042497584E+03  0.00000000000E+00 0.  1.
        -11    1    5    5    0    0 -0.41378089389E+02 -0.16724971736E+03  0.34046604755E+03  0.38157796553E+03  0.00000000000E+00 0. -1.
          2    1    6    6  503    0 -0.28165544537E+02  0.12607718103E+02  0.20404978657E+02  0.36994805160E+02  0.00000000000E+00 0. -1.
         -2    1    6    6    0  503 -0.22238731011E+03  0.36973000867E+03  0.58263818185E+02  0.43537462893E+03  0.00000000000E+00 0.  1.
<mgrwt>
<rscale>  0 0.15359071E+04</rscale>
<asrwt>0</asrwt>
<pdfrwt beam="1">  1        2 0.37645930E+00 0.15359071E+04</pdfrwt>
<pdfrwt beam="2">  1       -1 0.37078754E-01 0.15359071E+04</pdfrwt>
<totfact> 0.28732059E+01</totfact>
</mgrwt>
</event>
<event>
12    6  0.1586493E-007  0.1519250E+04  0.7818608E-02  0.8871752E-01
         -1   -1    0    0    0  501 -0.00000000000E+00  0.00000000000E+00  0.30679633547E+03  0.30679633547E+03  0.00000000000E+00 0.  1.
          2   -1    0    0  501    0  0.00000000000E+00 -0.00000000000E+00 -0.18808238906E+04  0.18808238906E+04  0.00000000000E+00 0. -1.
         24    2    1    2    0    0 -0.25594081259E+03  0.68708817948E+02  0.81250559005E+02  0.28729814714E+03  0.75577581326E+02 0.  0.
        254    2    1    2    0    0  0.25594081259E+03 -0.68708817948E+02 -0.16552781141E+04  0.19003220789E+04  0.89501495368E+03 0.  0.
         23    2    4    4    0    0  0.14169461554E+03  0.14129548687E+03  0.86544399855E+01  0.21690398042E+03  0.83250577832E+02 0.  0.
         23    2    4    4    0    0  0.11424619704E+03 -0.21000430481E+03 -0.16639325541E+04  0.16834180985E+04  0.89838455881E+02 0.  0.
          2    1    3    3  502    0 -0.64888924931E+02  0.91652143723E+01  0.54831229588E+02  0.85446108579E+02  0.00000000000E+00 0. -1.
         -1    1    3    3    0  502 -0.19105188766E+03  0.59543603575E+02  0.26419329417E+02  0.20185203856E+03  0.00000000000E+00 0.  1.
         11    1    5    5    0    0  0.14397875431E+03  0.12734457167E+03  0.26613552622E+02  0.19404845480E+03  0.00000000000E+00 0. -1.
        -11    1    5    5    0    0 -0.22841387725E+01  0.13950915200E+02 -0.17959112636E+02  0.22855525624E+02  0.00000000000E+00 0.  1.
          3    1    6    6  503    0  0.33360173302E+02 -0.12079278235E+03 -0.10765211943E+04  0.10837904222E+04  0.00000000000E+00 0. -1.
         -3    1    6    6    0  503  0.80886023742E+02 -0.89211522469E+02 -0.58741135980E+03  0.59962767631E+03  0.00000000000E+00 0.  1.
<mgrwt>
<rscale>  0 0.15192497E+04</rscale>
<asrwt>0</asrwt>
<pdfrwt beam="1">  1        2 0.28935753E+00 0.15192497E+04</pdfrwt>
<pdfrwt beam="2">  1       -1 0.47199436E-01 0.15192497E+04</pdfrwt>
<totfact> 0.38298777E+01</totfact>
</mgrwt>
</event>
<event>
12    6  0.1586493E-007  0.1741351E+04  0.7818608E-02  0.8738126E-01
          2   -1    0    0  501    0  0.00000000000E+00  0.00000000000E+00  0.96540347342E+03  0.96540347342E+03  0.00000000000E+00 0. -1.
         -1   -1    0    0    0  501 -0.00000000000E+00 -0.00000000000E+00 -0.78524246133E+03  0.78524246133E+03  0.00000000000E+00 0.  1.
         24    2    1    2    0    0 -0.45673294555E+03 -0.22025458405E+03 -0.32846543312E+03  0.60986774944E+03  0.83259027825E+02 0.  0.
        254    2    1    2    0    0  0.45673294555E+03  0.22025458405E+03  0.50862644522E+03  0.11407781853E+04  0.88631650213E+03 0.  0.
         23    2    4    4    0    0  0.42958949689E+02 -0.25768868173E+03  0.41112207191E+03  0.49473335413E+03  0.86549440364E+02 0.  0.
         23    2    4    4    0    0  0.41377399586E+03  0.47794326578E+03  0.97504373306E+02  0.64604483117E+03  0.90709074056E+02 0.  0.
          4    1    3    3  502    0 -0.24186165473E+02  0.66360149548E+01 -0.11478563220E+02  0.27581963461E+02  0.00000000000E+00 0. -1.
         -3    1    3    3    0  502 -0.43254678007E+03 -0.22689059900E+03 -0.31698686990E+03  0.58228578598E+03  0.00000000000E+00 0.  1.
         11    1    5    5    0    0  0.20871120782E+02 -0.20799562147E+02  0.92533566662E+02  0.97111721369E+02  0.00000000000E+00 0. -1.
        -11    1    5    5    0    0  0.22087828907E+02 -0.23688911959E+03  0.31858850525E+03  0.39762163276E+03  0.00000000000E+00 0.  1.
          4    1    6    6  503    0  0.40134804981E+03  0.48004019325E+03  0.92632774215E+02  0.63253432719E+03  0.00000000000E+00 0.  1.
         -4    1    6    6    0  503  0.12425946052E+02 -0.20969274673E+01  0.48715990914E+01  0.13510503980E+02  0.00000000000E+00 0. -1.
<mgrwt>
<rscale>  0 0.17413510E+04</rscale>
<asrwt>0</asrwt>
<pdfrwt beam="1">  1        2 0.14852361E+00 0.17413510E+04</pdfrwt>
<pdfrwt beam="2">  1       -1 0.12080653E+00 0.17413510E+04</pdfrwt>
<totfact> 0.17483505E+01</totfact>
</mgrwt>
</event>
<event>
12    6  0.1586493E-007  0.2005249E+04  0.7818608E-02  0.8604171E-01
          2   -1    0    0  501    0  0.00000000000E+00  0.00000000000E+00  0.28012555619E+04  0.28012555619E+04  0.00000000000E+00 0. -1.
         -1   -1    0    0    0  501 -0.00000000000E+00 -0.00000000000E+00 -0.35885904120E+03  0.35885904120E+03  0.00000000000E+00 0.  1.
         24    2    1    2    0    0  0.30327753203E+02 -0.78583409267E+03  0.12071573686E+04  0.14428983470E+04  0.79194276124E+02 0.  0.
        254    2    1    2    0    0 -0.30327753203E+02  0.78583409267E+03  0.12352391520E+04  0.17172162560E+04  0.89697319553E+03 0.  0.
         23    2    4    4    0    0  0.12648757280E+03  0.87685087243E+03  0.66430103210E+03  0.11111154936E+04  0.91734510000E+02 0.  0.
         23    2    4    4    0    0 -0.15681532601E+03 -0.91016779753E+02  0.57093811992E+03  0.60610076243E+03  0.92264276844E+02 0.  0.
          4    1    3    3  502    0  0.39896679718E+02 -0.73320004308E+03  0.11515270480E+04  0.13657190745E+04  0.00000000000E+00 0. -1.
         -3    1    3    3    0  502 -0.95689265145E+01 -0.52634049592E+02  0.55630320668E+02  0.77179272534E+02  0.00000000000E+00 0.  1.
         11    1    5    5    0    0  0.89247699408E+02  0.39531793152E+03  0.34407049169E+03  0.53162573497E+03  0.00000000000E+00 0.  1.
        -11    1    5    5    0    0  0.37239873395E+02  0.48153294091E+03  0.32023054042E+03  0.57948975864E+03  0.00000000000E+00 0. -1.
          4    1    6    6  503    0 -0.70698679768E+02 -0.48669252360E+02  0.13691029864E+03  0.16159031320E+03  0.00000000000E+00 0. -1.
         -4    1    6    6    0  503 -0.86116646238E+02 -0.42347527393E+02  0.43402782128E+03  0.44451044924E+03  0.00000000000E+00 0.  1.
<mgrwt>
<rscale>  0 0.20052490E+04</rscale>
<asrwt>0</asrwt>
<pdfrwt beam="1">  1        2 0.43096238E+00 0.20052490E+04</pdfrwt>
<pdfrwt beam="2">  1       -1 0.55209085E-01 0.20052490E+04</pdfrwt>
<totfact> 0.81045022E+00</totfact>
</mgrwt>
</event>
<event>
12    6  0.1586493E-007  0.1086033E+04  0.7818608E-02  0.9218913E-01
          2   -1    0    0  501    0  0.00000000000E+00  0.00000000000E+00  0.92176573193E+03  0.92176573193E+03  0.00000000000E+00 0. -1.
         -1   -1    0    0    0  501 -0.00000000000E+00 -0.00000000000E+00 -0.31989332372E+03  0.31989332372E+03  0.00000000000E+00 0.  1.
         24    2    1    2    0    0  0.12120320098E+02  0.82235057225E+02  0.43297638393E+03  0.44775705641E+03  0.78155778600E+02 0.  0.
        254    2    1    2    0    0 -0.12120320098E+02 -0.82235057225E+02  0.16889602428E+03  0.79390199924E+03  0.77126195977E+03 0.  0.
         23    2    4    4    0    0  0.22373802856E+03 -0.25220677189E+03 -0.12412061159E+03  0.37056783317E+03  0.90816471780E+02 0.  0.
         23    2    4    4    0    0 -0.23585834866E+03  0.16997171467E+03  0.29301663587E+03  0.42333416607E+03  0.93986822725E+02 0.  0.
          2    1    3    3  502    0 -0.26980018323E+02  0.51290329239E+02  0.30404931759E+03  0.30952319265E+03  0.00000000000E+00 0. -1.
         -1    1    3    3    0  502  0.39100338422E+02  0.30944727986E+02  0.12892706634E+03  0.13823386376E+03  0.00000000000E+00 0.  1.
         11    1    5    5    0    0  0.13327635441E+03 -0.13754077473E+03 -0.11681008043E+03  0.22433155428E+03  0.00000000000E+00 0. -1.
        -11    1    5    5    0    0  0.90461674154E+02 -0.11466599717E+03 -0.73105311534E+01  0.14623627889E+03  0.00000000000E+00 0.  1.
          3    1    6    6  503    0 -0.24070324914E+03  0.14969396022E+03  0.26220538112E+03  0.38613209885E+03  0.00000000000E+00 0. -1.
         -3    1    6    6    0  503  0.48449004830E+01  0.20277754448E+02  0.30811254750E+02  0.37202067220E+02  0.00000000000E+00 0.  1.
<mgrwt>
<rscale>  0 0.10860326E+04</rscale>
<asrwt>0</asrwt>
<pdfrwt beam="1">  1        2 0.14181011E+00 0.10860326E+04</pdfrwt>
<pdfrwt beam="2">  1       -1 0.49214358E-01 0.10860326E+04</pdfrwt>
<totfact> 0.13288680E+02</totfact>
</mgrwt>
</event>
<event>
12    6  0.1586493E-007  0.1092692E+04  0.7818608E-02  0.9212344E-01
          2   -1    0    0  501    0  0.00000000000E+00  0.00000000000E+00  0.86828231451E+03  0.86828231451E+03  0.00000000000E+00 0. -1.
         -1   -1    0    0    0  501 -0.00000000000E+00 -0.00000000000E+00 -0.34377513074E+03  0.34377513074E+03  0.00000000000E+00 0.  1.
         24    2    1    2    0    0 -0.92499261637E+02 -0.12095912498E+03  0.39757495436E+02  0.17876274891E+03  0.84783480908E+02 0.  0.
        254    2    1    2    0    0  0.92499261637E+02  0.12095912498E+03  0.48474968833E+03  0.10332946963E+04  0.89973798733E+03 0.  0.
         23    2    4    4    0    0 -0.82863126358E+02 -0.16192057875E+03  0.62732236790E+03  0.65992850633E+03  0.94274644897E+02 0.  0.
         23    2    4    4    0    0  0.17536238800E+03  0.28287970372E+03 -0.14257267957E+03  0.37336619002E+03  0.91117775359E+02 0.  0.
          2    1    3    3  502    0 -0.18257627318E+01 -0.65664974327E+02  0.29674696930E+02  0.72081966544E+02  0.00000000000E+00 0. -1.
         -1    1    3    3    0  502 -0.90673498905E+02 -0.55294150648E+02  0.10082798505E+02  0.10668078236E+03  0.00000000000E+00 0.  1.
         11    1    5    5    0    0  0.20290579885E+02 -0.28403228631E+02  0.82560373060E+02  0.89636299726E+02  0.00000000000E+00 0. -1.
        -11    1    5    5    0    0 -0.10315370624E+03 -0.13351735012E+03  0.54476199484E+03  0.57029220661E+03  0.00000000000E+00 0.  1.
          3    1    6    6  503    0  0.14161130205E+03  0.14330712610E+03 -0.82136689296E+02  0.21757097460E+03  0.00000000000E+00 0. -1.
         -3    1    6    6    0  503  0.33751085945E+02  0.13957257762E+03 -0.60435990270E+02  0.15579521542E+03  0.00000000000E+00 0.  1.
<mgrwt>
<rscale>  0 0.10926918E+04</rscale>
<asrwt>0</asrwt>
<pdfrwt beam="1">  1        2 0.13358189E+00 0.10926918E+04</pdfrwt>
<pdfrwt beam="2">  1       -1 0.52888482E-01 0.10926918E+04</pdfrwt>
<totfact> 0.12589123E+02</totfact>
</mgrwt>
</event>
<event>
12    6  0.1586493E-007  0.1111167E+04  0.7818608E-02  0.9194375E-01
          2   -1    0    0  501    0  0.00000000000E+00  0.00000000000E+00  0.31950885905E+03  0.31950885905E+03  0.00000000000E+00 0. -1.
         -1   -1    0    0    0  501 -0.00000000000E+00 -0.00000000000E+00 -0.96608655640E+03  0.96608655640E+03  0.00000000000E+00 0.  1.
         24    2    1    2    0    0  0.15235275065E+02  0.10407427948E+03  0.45052854223E+02  0.13971568475E+03  0.80169468233E+02 0.  0.
        254    2    1    2    0    0 -0.15235275065E+02 -0.10407427948E+03 -0.69163055158E+03  0.11458797307E+04  0.90753730948E+03 0.  0.
         23    2    4    4    0    0  0.11509152102E+03 -0.22262679949E+03  0.13452090879E+03  0.29651641688E+03  0.83769687345E+02 0.  0.
         23    2    4    4    0    0 -0.13032679609E+03  0.11855252001E+03 -0.82615146036E+03  0.84936331382E+03  0.88611678801E+02 0.  0.
          2    1    3    3  502    0  0.22614760738E+02  0.10684744017E+03  0.58674118592E+02  0.12397763938E+03  0.00000000000E+00 0. -1.
         -1    1    3    3    0  502 -0.73794856730E+01 -0.27731606931E+01 -0.13621264369E+02  0.15738045369E+02  0.00000000000E+00 0.  1.
         11    1    5    5    0    0  0.10909848941E+03 -0.12319670582E+03  0.87234657328E+02  0.18625196416E+03  0.00000000000E+00 0. -1.
        -11    1    5    5    0    0  0.59930316063E+01 -0.99430093675E+02  0.47286251457E+02  0.11026445272E+03  0.00000000000E+00 0.  1.
          2    1    6    6  503    0 -0.13116925135E+03  0.12498804421E+03 -0.70075426360E+03  0.72379826032E+03  0.00000000000E+00 0. -1.
         -2    1    6    6    0  503  0.84245526607E+00 -0.64355241978E+01 -0.12539719677E+03  0.12556505350E+03  0.00000000000E+00 0.  1.
<mgrwt>
<rscale>  0 0.11111673E+04</rscale>
<asrwt>0</asrwt>
<pdfrwt beam="1">  1        2 0.49155210E-01 0.11111673E+04</pdfrwt>
<pdfrwt beam="2">  1       -1 0.14862870E+00 0.11111673E+04</pdfrwt>
<totfact> 0.41608018E+01</totfact>
</mgrwt>
</event>
<event>
12    6  0.1586493E-007  0.3423499E+04  0.7818608E-02  0.8132163E-01
          2   -1    0    0  501    0  0.00000000000E+00  0.00000000000E+00  0.21633617199E+04  0.21633617199E+04  0.00000000000E+00 0. -1.
         -1   -1    0    0    0  501 -0.00000000000E+00 -0.00000000000E+00 -0.13544131529E+04  0.13544131529E+04  0.00000000000E+00 0.  1.
         24    2    1    2    0    0 -0.23178289965E+03 -0.15698358809E+04  0.24702328927E+03  0.16079638955E+04  0.80121023020E+02 0.  0.
        254    2    1    2    0    0  0.23178289965E+03  0.15698358809E+04  0.56192527778E+03  0.19098109773E+04  0.90194786183E+03 0.  0.
         23    2    4    4    0    0 -0.28077028945E+03  0.10210329732E+04  0.25585500705E+03  0.10937352890E+04  0.97235846756E+02 0.  0.
         23    2    4    4    0    0  0.51255318910E+03  0.54880290772E+03  0.30607027074E+03  0.81607568830E+03  0.91679415466E+02 0.  0.
          2    1    3    3  502    0 -0.92629971811E+02 -0.59484319294E+03  0.54734948652E+02  0.60449536844E+03  0.00000000000E+00 0. -1.
         -1    1    3    3    0  502 -0.13915292784E+03 -0.97499268798E+03  0.19228834062E+03  0.10034685271E+04  0.00000000000E+00 0.  1.
         11    1    5    5    0    0 -0.13427175158E+03  0.33092370437E+03  0.10576487186E+03  0.37245886955E+03  0.00000000000E+00 0.  1.
        -11    1    5    5    0    0 -0.14649853787E+03  0.69010926883E+03  0.15009013518E+03  0.72127641942E+03  0.00000000000E+00 0. -1.
          2    1    6    6  503    0  0.42148881613E+03  0.46009544074E+03  0.28954070893E+03  0.68787677591E+03  0.00000000000E+00 0. -1.
         -2    1    6    6    0  503  0.91064372973E+02  0.88707466982E+02  0.16529561804E+02  0.12819891239E+03  0.00000000000E+00 0.  1.
<mgrwt>
<rscale>  0 0.34234985E+04</rscale>
<asrwt>0</asrwt>
<pdfrwt beam="1">  1        2 0.33282488E+00 0.34234985E+04</pdfrwt>
<pdfrwt beam="2">  1       -1 0.20837125E+00 0.34234985E+04</pdfrwt>
<totfact> 0.67138528E-01</totfact>
</mgrwt>
</event>
<event>
12    6  0.1586493E-007  0.1595790E+04  0.7818608E-02  0.8823138E-01
         -1   -1    0    0    0  501 -0.00000000000E+00  0.00000000000E+00  0.38498955518E+03  0.38498955518E+03  0.00000000000E+00 0.  1.
          2   -1    0    0  501    0  0.00000000000E+00 -0.00000000000E+00 -0.16536463533E+04  0.16536463533E+04  0.00000000000E+00 0. -1.
         24    2    1    2    0    0  0.14354864650E+03  0.42418473192E+03 -0.84579038228E+02  0.46294727943E+03  0.81410497601E+02 0.  0.
        254    2    1    2    0    0 -0.14354864650E+03 -0.42418473192E+03 -0.11840777599E+04  0.15756886290E+04  0.93819806733E+03 0.  0.
         23    2    4    4    0    0  0.21534604322E+03 -0.28686982333E+03 -0.48646520127E+02  0.37343905403E+03  0.91771614834E+02 0.  0.
         23    2    4    4    0    0 -0.35889468972E+03 -0.13731490859E+03 -0.11354312398E+04  0.12022495750E+04  0.92407564435E+02 0.  0.
          4    1    3    3  502    0  0.10228224858E+03  0.32979229936E+03 -0.98324180889E+02  0.35901568718E+03  0.00000000000E+00 0. -1.
         -3    1    3    3    0  502  0.41266397917E+02  0.94392432561E+02  0.13745142661E+02  0.10393159225E+03  0.00000000000E+00 0.  1.
         11    1    5    5    0    0  0.11355134356E+03 -0.79704312507E+02 -0.29405172838E+02  0.14181448885E+03  0.00000000000E+00 0. -1.
        -11    1    5    5    0    0  0.10179469966E+03 -0.20716551082E+03 -0.19241347289E+02  0.23162456519E+03  0.00000000000E+00 0.  1.
          4    1    6    6  503    0 -0.18537417774E+03 -0.57976985718E+02 -0.43687187735E+03  0.47810245122E+03  0.00000000000E+00 0. -1.
         -4    1    6    6    0  503 -0.17352051198E+03 -0.79337922872E+02 -0.69855936241E+03  0.72414712379E+03  0.00000000000E+00 0.  1.
<mgrwt>
<rscale>  0 0.15957902E+04</rscale>
<asrwt>0</asrwt>
<pdfrwt beam="1">  1        2 0.25440713E+00 0.15957902E+04</pdfrwt>
<pdfrwt beam="2">  1       -1 0.59229162E-01 0.15957902E+04</pdfrwt>
<totfact> 0.32864829E+01</totfact>
</mgrwt>
</event>
<event>
12    6  0.1586493E-007  0.1905312E+04  0.7818608E-02  0.8652217E-01
         -1   -1    0    0    0  501 -0.00000000000E+00  0.00000000000E+00  0.26444489341E+03  0.26444489341E+03  0.00000000000E+00 0.  1.
          2   -1    0    0  501    0  0.00000000000E+00 -0.00000000000E+00 -0.34319204670E+04  0.34319204670E+04  0.00000000000E+00 0. -1.
         24    2    1    2    0    0 -0.26198668713E+03  0.19382135189E+03  0.50587421054E+02  0.33915714891E+03  0.79150134598E+02 0.  0.
        254    2    1    2    0    0  0.26198668713E+03 -0.19382135189E+03 -0.32180629947E+04  0.33572082115E+04  0.89928515904E+03 0.  0.
         23    2    4    4    0    0  0.31670838142E+03 -0.38852896387E+03 -0.95489247904E+03  0.10830805240E+04  0.99924072764E+02 0.  0.
         23    2    4    4    0    0 -0.54721694287E+02  0.19470761198E+03 -0.22631705156E+04  0.22741276875E+04  0.93863935627E+02 0.  0.
          2    1    3    3  502    0 -0.44680895596E+02  0.77592866205E+00  0.74755106740E+01  0.45308583694E+02  0.00000000000E+00 0. -1.
         -1    1    3    3    0  502 -0.21730579153E+03  0.19304542323E+03  0.43111910380E+02  0.29384856521E+03  0.00000000000E+00 0.  1.
         11    1    5    5    0    0  0.17757299365E+03 -0.24028785461E+03 -0.66461906581E+03  0.72868986804E+03  0.00000000000E+00 0.  1.
        -11    1    5    5    0    0  0.13913538777E+03 -0.14824110926E+03 -0.29027341323E+03  0.35439065596E+03  0.00000000000E+00 0. -1.
          3    1    6    6  503    0 -0.35735272492E+02  0.44337627492E+02 -0.31778159383E+03  0.32284357867E+03  0.00000000000E+00 0. -1.
         -3    1    6    6    0  503 -0.18986421795E+02  0.15036998449E+03 -0.19453889218E+04  0.19512841089E+04  0.00000000000E+00 0.  1.
<mgrwt>
<rscale>  0 0.19053124E+04</rscale>
<asrwt>0</asrwt>
<pdfrwt beam="1">  1        2 0.52798772E+00 0.19053124E+04</pdfrwt>
<pdfrwt beam="2">  1       -1 0.40683833E-01 0.19053124E+04</pdfrwt>
<totfact> 0.57389689E+00</totfact>
</mgrwt>
</event>
<event>
12    6  0.1586493E-007  0.1761120E+04  0.7818608E-02  0.8727253E-01
          2   -1    0    0  501    0  0.00000000000E+00  0.00000000000E+00  0.24882465058E+04  0.24882465058E+04  0.00000000000E+00 0. -1.
         -3   -1    0    0    0  501 -0.00000000000E+00 -0.00000000000E+00 -0.31161948292E+03  0.31161948292E+03  0.00000000000E+00 0.  1.
         24    2    1    2    0    0 -0.30224457335E+03 -0.15421395649E+03 -0.67408941077E+02  0.35502635392E+03  0.79787343272E+02 0.  0.
        254    2    1    2    0    0  0.30224457335E+03  0.15421395649E+03  0.22440359640E+04  0.24448396348E+04  0.90907079256E+03 0.  0.
         23    2    4    4    0    0 -0.27435063396E+02  0.31041348198E+03  0.23464033329E+03  0.40053944096E+03  0.90920543627E+02 0.  0.
         23    2    4    4    0    0  0.32967963675E+03 -0.15619952550E+03  0.20093956307E+04  0.20443001939E+04  0.91681663293E+02 0.  0.
          4    1    3    3  502    0 -0.43096236384E+02  0.31549354079E+01 -0.21892852741E+02  0.48441059124E+02  0.00000000000E+00 0. -1.
         -3    1    3    3    0  502 -0.25914833697E+03 -0.15736889190E+03 -0.45516088336E+02  0.30658529480E+03  0.00000000000E+00 0.  1.
         11    1    5    5    0    0  0.40689074834E+01  0.27810562501E+03  0.18845139305E+03  0.33596610277E+03  0.00000000000E+00 0. -1.
        -11    1    5    5    0    0 -0.31503970879E+02  0.32307856975E+02  0.46188940244E+02  0.64573338185E+02  0.00000000000E+00 0.  1.
          4    1    6    6  503    0  0.88776411309E+02 -0.84110473682E+02  0.77024097025E+03  0.77988907880E+03  0.00000000000E+00 0. -1.
         -4    1    6    6    0  503  0.24090322544E+03 -0.72089051814E+02  0.12391546604E+04  0.12644111151E+04  0.00000000000E+00 0.  1.
<mgrwt>
<rscale>  0 0.17611202E+04</rscale>
<asrwt>0</asrwt>
<pdfrwt beam="1">  1        2 0.38280714E+00 0.17611202E+04</pdfrwt>
<pdfrwt beam="2">  1       -3 0.47941460E-01 0.17611202E+04</pdfrwt>
<totfact> 0.93406567E+00</totfact>
</mgrwt>
</event>
<event>
12    6  0.1586493E-007  0.2294550E+04  0.7818608E-02  0.8480073E-01
          2   -1    0    0  501    0  0.00000000000E+00  0.00000000000E+00  0.30079046608E+04  0.30079046608E+04  0.00000000000E+00 0. -1.
         -1   -1    0    0    0  501 -0.00000000000E+00 -0.00000000000E+00 -0.43759362798E+03  0.43759362798E+03  0.00000000000E+00 0.  1.
         24    2    1    2    0    0 -0.15382690276E+03  0.31457653136E+03 -0.26813758281E+03  0.44835919553E+03  0.80666565592E+02 0.  0.
        254    2    1    2    0    0  0.15382690276E+03 -0.31457653136E+03  0.28384486156E+04  0.29971390932E+04  0.89634317675E+03 0.  0.
         23    2    4    4    0    0 -0.14276038335E+03 -0.54250834229E+01  0.55212134710E+02  0.17952859240E+03  0.93659901168E+02 0.  0.
         23    2    4    4    0    0  0.29658728611E+03 -0.30915144794E+03  0.27832364809E+04  0.28176105008E+04  0.94789185092E+02 0.  0.
          4    1    3    3  502    0 -0.45096127181E+02  0.75239046265E+02 -0.27382049639E+02  0.91893152149E+02  0.00000000000E+00 0. -1.
         -3    1    3    3    0  502 -0.10873077558E+03  0.23933748510E+03 -0.24075553317E+03  0.35646604339E+03  0.00000000000E+00 0.  1.
         11    1    5    5    0    0 -0.63878652539E+01  0.88876250382E+01  0.40111623955E+02  0.41578084103E+02  0.00000000000E+00 0. -1.
        -11    1    5    5    0    0 -0.13637251810E+03 -0.14312708461E+02  0.15100510755E+02  0.13795050830E+03  0.00000000000E+00 0.  1.
          3    1    6    6  503    0  0.21266374070E+03 -0.16322607523E+03  0.15643306115E+04  0.15871354323E+04  0.00000000000E+00 0. -1.
         -3    1    6    6    0  503  0.83923545411E+02 -0.14592537271E+03  0.12189058694E+04  0.12304750685E+04  0.00000000000E+00 0.  1.
<mgrwt>
<rscale>  0 0.22945500E+04</rscale>
<asrwt>0</asrwt>
<pdfrwt beam="1">  1        2 0.46275455E+00 0.22945500E+04</pdfrwt>
<pdfrwt beam="2">  1       -1 0.67322099E-01 0.22945500E+04</pdfrwt>
<totfact> 0.39729247E+00</totfact>
</mgrwt>
</event>
<event>
12    6  0.1586493E-007  0.3914723E+04  0.7818608E-02  0.8021974E-01
          2   -1    0    0  501    0  0.00000000000E+00  0.00000000000E+00  0.31500650243E+04  0.31500650243E+04  0.00000000000E+00 0. -1.
         -1   -1    0    0    0  501 -0.00000000000E+00 -0.00000000000E+00 -0.12162491282E+04  0.12162491282E+04  0.00000000000E+00 0.  1.
         24    2    1    2    0    0  0.91110176576E+03 -0.51009717824E+03  0.26276877131E+04  0.28287314635E+04  0.81690980631E+02 0.  0.
        254    2    1    2    0    0 -0.91110176576E+03  0.51009717824E+03 -0.69387181705E+03  0.15375826890E+04  0.89016676419E+03 0.  0.
         23    2    4    4    0    0 -0.10780730889E+04  0.43611443417E+03 -0.58232031623E+03  0.13038099111E+04  0.91574826879E+02 0.  0.
         23    2    4    4    0    0  0.16697132310E+03  0.73982744066E+02 -0.11155150082E+03  0.23377277788E+03  0.94090941050E+02 0.  0.
          2    1    3    3  502    0  0.44256981515E+03 -0.24346967356E+03  0.13811538329E+04  0.14706228046E+04  0.00000000000E+00 0. -1.
         -1    1    3    3    0  502  0.46853195062E+03 -0.26662750468E+03  0.12465338802E+04  0.13581086589E+04  0.00000000000E+00 0.  1.
         11    1    5    5    0    0 -0.53773201150E+03  0.25987768458E+03 -0.27205535173E+03  0.65628213562E+03  0.00000000000E+00 0. -1.
        -11    1    5    5    0    0 -0.54034107736E+03  0.17623674959E+03 -0.31026496450E+03  0.64752777545E+03  0.00000000000E+00 0.  1.
          4    1    6    6  503    0 -0.94116844866E+01 -0.28578820160E+01  0.24540743183E+01  0.10137542861E+02  0.00000000000E+00 0. -1.
         -4    1    6    6    0  503  0.17638300758E+03  0.76840626082E+02 -0.11400557514E+03  0.22363523502E+03  0.00000000000E+00 0.  1.
<mgrwt>
<rscale>  0 0.39147229E+04</rscale>
<asrwt>0</asrwt>
<pdfrwt beam="1">  1        2 0.48462539E+00 0.39147229E+04</pdfrwt>
<pdfrwt beam="2">  1       -1 0.18711525E+00 0.39147229E+04</pdfrwt>
<totfact> 0.23313314E-01</totfact>
</mgrwt>
</event>
<event>
12    6  0.1586493E-007  0.1796485E+04  0.7818608E-02  0.8708171E-01
         -1   -1    0    0    0  501 -0.00000000000E+00  0.00000000000E+00  0.44484056242E+03  0.44484056242E+03  0.00000000000E+00 0.  1.
          2   -1    0    0  501    0  0.00000000000E+00 -0.00000000000E+00 -0.18137717425E+04  0.18137717425E+04  0.00000000000E+00 0. -1.
         24    2    1    2    0    0  0.27324583594E+03 -0.23144921827E+03  0.19781496707E+03  0.42053955817E+03  0.97420384403E+02 0.  0.
        254    2    1    2    0    0 -0.27324583594E+03  0.23144921827E+03 -0.15667461471E+04  0.18380727467E+04  0.89195622382E+03 0.  0.
         23    2    4    4    0    0  0.92776938096E+02 -0.67797592833E+02  0.46816092115E+02  0.15428113449E+03  0.91688865966E+02 0.  0.
         23    2    4    4    0    0 -0.36602277403E+03  0.29924681111E+03 -0.16135622392E+04  0.16837916122E+04  0.89720501859E+02 0.  0.
          4    1    3    3  502    0  0.98513708700E+02 -0.14705670592E+03  0.98165800695E+02  0.20240343373E+03  0.00000000000E+00 0. -1.
         -3    1    3    3    0  502  0.17473212724E+03 -0.84392512350E+02  0.99649166373E+02  0.21813612445E+03  0.00000000000E+00 0.  1.
         11    1    5    5    0    0  0.87227948339E+02 -0.97025660581E+01  0.36325571776E+02  0.94986324934E+02  0.00000000000E+00 0. -1.
        -11    1    5    5    0    0  0.55489897570E+01 -0.58095026775E+02  0.10490520340E+02  0.59294809556E+02  0.00000000000E+00 0.  1.
          4    1    6    6  503    0 -0.25719865847E+03  0.16845056429E+03 -0.93648185489E+03  0.98565968116E+03  0.00000000000E+00 0. -1.
         -4    1    6    6    0  503 -0.10882411556E+03  0.13079624681E+03 -0.67708038433E+03  0.69813193105E+03  0.00000000000E+00 0.  1.
<mgrwt>
<rscale>  0 0.17964846E+04</rscale>
<asrwt>0</asrwt>
<pdfrwt beam="1">  1        2 0.27904181E+00 0.17964846E+04</pdfrwt>
<pdfrwt beam="2">  1       -1 0.68437010E-01 0.17964846E+04</pdfrwt>
<totfact> 0.19705488E+01</totfact>
</mgrwt>
</event>
<event>
12    6  0.1586493E-007  0.1271190E+04  0.7818608E-02  0.9052729E-01
         -1   -1    0    0    0  501 -0.00000000000E+00  0.00000000000E+00  0.78991230183E+03  0.78991230183E+03  0.00000000000E+00 0.  1.
          2   -1    0    0  501    0  0.00000000000E+00 -0.00000000000E+00 -0.51142505920E+03  0.51142505920E+03  0.00000000000E+00 0. -1.
         24    2    1    2    0    0  0.22158247045E+03  0.12087447604E+03  0.26518449150E+03  0.37458421335E+03  0.79253316590E+02 0.  0.
        254    2    1    2    0    0 -0.22158247045E+03 -0.12087447604E+03  0.13302751125E+02  0.92675314768E+03  0.89161931528E+03 0.  0.
         23    2    4    4    0    0  0.30496963627E+03 -0.19504772397E+03 -0.74267153303E+02  0.38003190252E+03  0.88648424669E+02 0.  0.
         23    2    4    4    0    0 -0.52655210673E+03  0.74173247937E+02  0.87569904427E+02  0.54672124516E+03  0.92069755865E+02 0.  0.
          4    1    3    3  502    0  0.18659195779E+02 -0.82712431970E+01  0.40888218198E+02  0.45699293633E+02  0.00000000000E+00 0. -1.
         -3    1    3    3    0  502  0.20292327467E+03  0.12914571923E+03  0.22429627331E+03  0.32888491972E+03  0.00000000000E+00 0.  1.
         11    1    5    5    0    0  0.27766617388E+03 -0.19323917698E+03 -0.47241398202E+02  0.34157229592E+03  0.00000000000E+00 0. -1.
        -11    1    5    5    0    0  0.27303462392E+02 -0.18085469949E+01 -0.27025755100E+02  0.38459606596E+02  0.00000000000E+00 0.  1.
          2    1    6    6  503    0 -0.14457561115E+03 -0.88228977225E+01  0.53271333668E+02  0.15433011972E+03  0.00000000000E+00 0.  1.
         -2    1    6    6    0  503 -0.38197649558E+03  0.82996145660E+02  0.34298570759E+02  0.39239112544E+03  0.00000000000E+00 0. -1.
<mgrwt>
<rscale>  0 0.12711899E+04</rscale>
<asrwt>0</asrwt>
<pdfrwt beam="1">  1        2 0.78680779E-01 0.12711899E+04</pdfrwt>
<pdfrwt beam="2">  1       -1 0.12152497E+00 0.12711899E+04</pdfrwt>
<totfact> 0.40437102E+01</totfact>
</mgrwt>
</event>
<event>
12    6  0.1586493E-007  0.2370627E+04  0.7818608E-02  0.8450583E-01
          2   -1    0    0  501    0  0.00000000000E+00  0.00000000000E+00  0.12292563283E+04  0.12292563283E+04  0.00000000000E+00 0. -1.
         -1   -1    0    0    0  501 -0.00000000000E+00 -0.00000000000E+00 -0.11429414800E+04  0.11429414800E+04  0.00000000000E+00 0.  1.
         24    2    1    2    0    0 -0.99163257853E+02 -0.93456769569E+03  0.29838989831E+03  0.98933721547E+03  0.80631662357E+02 0.  0.
        254    2    1    2    0    0  0.99163257853E+02  0.93456769569E+03 -0.21207505001E+03  0.13828605928E+04  0.99200678564E+03 0.  0.
         23    2    4    4    0    0  0.13030755314E+02  0.61521083975E+03 -0.60048668005E+03  0.86468863797E+03  0.91913055592E+02 0.  0.
         23    2    4    4    0    0  0.86132502539E+02  0.31935685593E+03  0.38841163004E+03  0.51817195483E+03  0.90724698931E+02 0.  0.
          4    1    3    3  502    0 -0.96383563077E+02 -0.73582170572E+03  0.26370485104E+03  0.78756816994E+03  0.00000000000E+00 0. -1.
         -3    1    3    3    0  502 -0.27796947757E+01 -0.19874598997E+03  0.34685047274E+02  0.20176904553E+03  0.00000000000E+00 0.  1.
         11    1    5    5    0    0 -0.25329478678E+02  0.62001087892E+02 -0.77594232821E+02  0.10250162124E+03  0.00000000000E+00 0. -1.
        -11    1    5    5    0    0  0.38360233992E+02  0.55320975186E+03 -0.52289244723E+03  0.76218701673E+03  0.00000000000E+00 0.  1.
          3    1    6    6  503    0 -0.63090876982E+01  0.11469103155E+03  0.16793597423E+03  0.20346087768E+03  0.00000000000E+00 0. -1.
         -3    1    6    6    0  503  0.92441590237E+02  0.20466582438E+03  0.22047565581E+03  0.31471107715E+03  0.00000000000E+00 0.  1.
<mgrwt>
<rscale>  0 0.23706270E+04</rscale>
<asrwt>0</asrwt>
<pdfrwt beam="1">  1        2 0.18911636E+00 0.23706270E+04</pdfrwt>
<pdfrwt beam="2">  1       -1 0.17583715E+00 0.23706270E+04</pdfrwt>
<totfact> 0.41694571E+00</totfact>
</mgrwt>
</event>
<event>
12    6  0.1586493E-007  0.2520433E+04  0.7818608E-02  0.8395742E-01
         -1   -1    0    0    0  501 -0.00000000000E+00  0.00000000000E+00  0.23584077815E+04  0.23584077815E+04  0.00000000000E+00 0.  1.
          2   -1    0    0  501    0  0.00000000000E+00 -0.00000000000E+00 -0.67339719541E+03  0.67339719541E+03  0.00000000000E+00 0. -1.
         24    2    1    2    0    0 -0.55244089759E+03  0.86633569894E+03  0.26605215558E+03  0.10643351012E+04  0.79353447033E+02 0.  0.
        254    2    1    2    0    0  0.55244089759E+03 -0.86633569894E+03  0.14189584305E+04  0.19674698757E+04  0.89541398008E+03 0.  0.
         23    2    4    4    0    0  0.15404552142E+03  0.15795673007E+03  0.13656982517E+03  0.27614775082E+03  0.94477044259E+02 0.  0.
         23    2    4    4    0    0  0.39839537618E+03 -0.10242924290E+04  0.12823886053E+04  0.16913221249E+04  0.90311345742E+02 0.  0.
          2    1    3    3  502    0 -0.50781403138E+03  0.76424762996E+03  0.21874373152E+03  0.94329123311E+03  0.00000000000E+00 0. -1.
         -1    1    3    3    0  502 -0.44626866208E+02  0.10208806898E+03  0.47308424058E+02  0.12104386809E+03  0.00000000000E+00 0.  1.
         11    1    5    5    0    0  0.95628570027E+01  0.44809170308E+02  0.64213181142E+02  0.78883728424E+02  0.00000000000E+00 0.  1.
        -11    1    5    5    0    0  0.14448266441E+03  0.11314755976E+03  0.72356644032E+02  0.19726402239E+03  0.00000000000E+00 0. -1.
          3    1    6    6  503    0  0.39597222610E+03 -0.97153814322E+03  0.12062524703E+04  0.15986636262E+04  0.00000000000E+00 0. -1.
         -3    1    6    6    0  503  0.24231500795E+01 -0.52754285789E+02  0.76136135005E+02  0.92658498687E+02  0.00000000000E+00 0.  1.
<mgrwt>
<rscale>  0 0.25204326E+04</rscale>
<asrwt>0</asrwt>
<pdfrwt beam="1">  1        2 0.10359957E+00 0.25204326E+04</pdfrwt>
<pdfrwt beam="2">  1       -1 0.36283196E+00 0.25204326E+04</pdfrwt>
<totfact> 0.55788440E-01</totfact>
</mgrwt>
</event>
<event>
12    6  0.1586493E-007  0.2269034E+04  0.7818608E-02  0.8490232E-01
         -1   -1    0    0    0  501 -0.00000000000E+00  0.00000000000E+00  0.10069083914E+04  0.10069083914E+04  0.00000000000E+00 0.  1.
          2   -1    0    0  501    0  0.00000000000E+00 -0.00000000000E+00 -0.12782973696E+04  0.12782973696E+04  0.00000000000E+00 0. -1.
         24    2    1    2    0    0 -0.48408475467E+03 -0.59409927883E+03  0.43355971268E+03  0.88416059712E+03  0.80460762132E+02 0.  0.
        254    2    1    2    0    0  0.48408475467E+03  0.59409927883E+03 -0.70494869090E+03  0.14010451638E+04  0.93738086788E+03 0.  0.
         23    2    4    4    0    0  0.45256212142E+03  0.83551001227E+02  0.63214919517E+02  0.47363295057E+03  0.92405639823E+02 0.  0.
         23    2    4    4    0    0  0.31522633254E+02  0.51054827760E+03 -0.76816361042E+03  0.92741221325E+03  0.91459612659E+02 0.  0.
          4    1    3    3  502    0 -0.21430392669E+03 -0.21595004647E+03  0.20137077732E+03  0.36484350827E+03  0.00000000000E+00 0. -1.
         -3    1    3    3    0  502 -0.26978082798E+03 -0.37814923235E+03  0.23218893535E+03  0.51931708885E+03  0.00000000000E+00 0.  1.
         11    1    5    5    0    0  0.43432702355E+03  0.58927675770E+02  0.64164195940E+02  0.44297796604E+03  0.00000000000E+00 0. -1.
        -11    1    5    5    0    0  0.18235097863E+02  0.24623325457E+02 -0.94927642287E+00  0.30654984527E+02  0.00000000000E+00 0.  1.
          3    1    6    6  503    0  0.25291063507E+02  0.35782261334E+03 -0.60860162490E+03  0.70645070482E+03  0.00000000000E+00 0. -1.
         -3    1    6    6    0  503  0.62315697470E+01  0.15272566426E+03 -0.15956198552E+03  0.22096150843E+03  0.00000000000E+00 0.  1.
<mgrwt>
<rscale>  0 0.22690336E+04</rscale>
<asrwt>0</asrwt>
<pdfrwt beam="1">  1        2 0.19666113E+00 0.22690336E+04</pdfrwt>
<pdfrwt beam="2">  1       -1 0.15490898E+00 0.22690336E+04</pdfrwt>
<totfact> 0.56366174E+00</totfact>
</mgrwt>
</event>
<event>
12    6  0.1586493E-007  0.2830109E+04  0.7818608E-02  0.8293981E-01
          2   -1    0    0  501    0  0.00000000000E+00  0.00000000000E+00  0.12175174610E+04  0.12175174610E+04  0.00000000000E+00 0. -1.
         -1   -1    0    0    0  501 -0.00000000000E+00 -0.00000000000E+00 -0.16446405379E+04  0.16446405379E+04  0.00000000000E+00 0.  1.
         24    2    1    2    0    0  0.33613666176E+03 -0.55162754917E+03 -0.12929320837E+04  0.14474842533E+04  0.79097927103E+02 0.  0.
        254    2    1    2    0    0 -0.33613666176E+03  0.55162754917E+03  0.86580900683E+03  0.14146737456E+04  0.91345265982E+03 0.  0.
         23    2    4    4    0    0 -0.15512889834E+03 -0.44749793431E+02 -0.13662966159E+03  0.23072118967E+03  0.92179628028E+02 0.  0.
         23    2    4    4    0    0 -0.18100776342E+03  0.59637734260E+03  0.10024386684E+04  0.11839525559E+04  0.91818437829E+02 0.  0.
          2    1    3    3  502    0  0.36436999598E+02 -0.45331307603E+02 -0.17137158120E+03  0.18097182441E+03  0.00000000000E+00 0. -1.
         -3    1    3    3    0  502  0.29969966216E+03 -0.50629624156E+03 -0.11215605025E+04  0.12665124289E+04  0.00000000000E+00 0.  1.
         11    1    5    5    0    0 -0.16459949928E+03 -0.41236185122E+02 -0.14009128727E+03  0.22004314781E+03  0.00000000000E+00 0.  1.
        -11    1    5    5    0    0  0.94706009437E+01 -0.35136083085E+01  0.34616256828E+01  0.10678041859E+02  0.00000000000E+00 0. -1.
          3    1    6    6  503    0 -0.91070992854E+02  0.28037080774E+03  0.38915346544E+03  0.48820296521E+03  0.00000000000E+00 0. -1.
         -3    1    6    6    0  503 -0.89936770563E+02  0.31600653485E+03  0.61328520298E+03  0.69574959070E+03  0.00000000000E+00 0.  1.
<mgrwt>
<rscale>  0 0.28301085E+04</rscale>
<asrwt>0</asrwt>
<pdfrwt beam="1">  1        2 0.18731038E+00 0.28301085E+04</pdfrwt>
<pdfrwt beam="2">  1       -1 0.25302162E+00 0.28301085E+04</pdfrwt>
<totfact> 0.12182163E+00</totfact>
</mgrwt>
</event>
<event>
12    6  0.1586493E-007  0.1417857E+04  0.7818608E-02  0.8940993E-01
          2   -1    0    0  501    0  0.00000000000E+00  0.00000000000E+00  0.13714373007E+04  0.13714373007E+04  0.00000000000E+00 0. -1.
         -1   -1    0    0    0  501 -0.00000000000E+00 -0.00000000000E+00 -0.36646186484E+03  0.36646186484E+03  0.00000000000E+00 0.  1.
         24    2    1    2    0    0 -0.12091957708E+03  0.29957576647E+03 -0.28412437933E+02  0.33387365143E+03  0.79354675444E+02 0.  0.
        254    2    1    2    0    0  0.12091957708E+03 -0.29957576647E+03  0.10333878738E+04  0.14040255141E+04  0.89388475911E+03 0.  0.
         23    2    4    4    0    0  0.12783619917E+03 -0.29287352011E+03 -0.32856270607E+02  0.33387039272E+03  0.90955549655E+02 0.  0.
         23    2    4    4    0    0 -0.69166220874E+01 -0.67022463580E+01  0.10662441444E+04  0.10701551214E+04  0.90899112189E+02 0.  0.
          4    1    3    3  502    0 -0.70357814083E+02  0.15168808042E+03 -0.53542097703E+02  0.17557406406E+03  0.00000000000E+00 0. -1.
         -3    1    3    3    0  502 -0.50561762997E+02  0.14788768605E+03  0.25129659769E+02  0.15829958737E+03  0.00000000000E+00 0.  1.
         11    1    5    5    0    0  0.44477037291E+02 -0.13484760228E+03 -0.58122233503E+02  0.15342840908E+03  0.00000000000E+00 0. -1.
        -11    1    5    5    0    0  0.83359161877E+02 -0.15802591783E+03  0.25265962895E+02  0.18044198363E+03  0.00000000000E+00 0.  1.
          1    1    6    6  503    0  0.39717898119E+02  0.54859796644E+01  0.34956996287E+03  0.35186185691E+03  0.00000000000E+00 0. -1.
         -1    1    6    6    0  503 -0.46634520207E+02 -0.12188226022E+02  0.71667418153E+03  0.71829326448E+03  0.00000000000E+00 0.  1.
<mgrwt>
<rscale>  0 0.14178568E+04</rscale>
<asrwt>0</asrwt>
<pdfrwt beam="1">  1        2 0.21099035E+00 0.14178568E+04</pdfrwt>
<pdfrwt beam="2">  1       -1 0.56378749E-01 0.14178568E+04</pdfrwt>
<totfact> 0.53001950E+01</totfact>
</mgrwt>
</event>
<event>
12    6  0.1586493E-007  0.1579070E+04  0.7818608E-02  0.8833510E-01
         -1   -1    0    0    0  501 -0.00000000000E+00  0.00000000000E+00  0.29397935130E+03  0.29397935130E+03  0.00000000000E+00 0.  1.
          2   -1    0    0  501    0  0.00000000000E+00 -0.00000000000E+00 -0.21204409030E+04  0.21204409030E+04  0.00000000000E+00 0. -1.
         24    2    1    2    0    0 -0.16709791272E+03 -0.32635222376E+03 -0.39252684501E+02  0.37723684765E+03  0.79620221022E+02 0.  0.
        254    2    1    2    0    0  0.16709791272E+03  0.32635222376E+03 -0.17872088672E+04  0.20371834067E+04  0.90640675802E+03 0.  0.
         23    2    4    4    0    0 -0.10896959725E+03 -0.14212424067E+03 -0.41211873590E+02  0.20612342421E+03  0.93352956944E+02 0.  0.
         23    2    4    4    0    0  0.27606750997E+03  0.46847646443E+03 -0.17459969937E+04  0.18310599825E+04  0.92691368813E+02 0.  0.
          2    1    3    3  502    0 -0.61012950092E+02 -0.95654123284E+02  0.23074564649E+02  0.11577878439E+03  0.00000000000E+00 0. -1.
         -1    1    3    3    0  502 -0.10608496263E+03 -0.23069810047E+03 -0.62327249150E+02  0.26145806326E+03  0.00000000000E+00 0.  1.
         11    1    5    5    0    0 -0.17752482248E+02 -0.39866594908E+02  0.28757262658E+02  0.52263526202E+02  0.00000000000E+00 0. -1.
        -11    1    5    5    0    0 -0.91217114999E+02 -0.10225764577E+03 -0.69969136248E+02  0.15385989800E+03  0.00000000000E+00 0.  1.
          2    1    6    6  503    0  0.14467512979E+03  0.29477553426E+03 -0.11720133645E+04  0.12171437201E+04  0.00000000000E+00 0.  1.
         -2    1    6    6    0  503  0.13139238018E+03  0.17370093017E+03 -0.57398362916E+03  0.61391626241E+03  0.00000000000E+00 0. -1.
<mgrwt>
<rscale>  0 0.15790704E+04</rscale>
<asrwt>0</asrwt>
<pdfrwt beam="1">  1        2 0.32622169E+00 0.15790704E+04</pdfrwt>
<pdfrwt beam="2">  1       -1 0.45227591E-01 0.15790704E+04</pdfrwt>
<totfact> 0.30390678E+01</totfact>
</mgrwt>
</event>
<event>
12    6  0.1586493E-007  0.1456919E+04  0.7818608E-02  0.8913618E-01
         -1   -1    0    0    0  501 -0.00000000000E+00  0.00000000000E+00  0.17726853894E+03  0.17726853894E+03  0.00000000000E+00 0.  1.
          2   -1    0    0  501    0  0.00000000000E+00 -0.00000000000E+00 -0.29934975246E+04  0.29934975246E+04  0.00000000000E+00 0. -1.
         24    2    1    2    0    0  0.41634485283E+02 -0.22787184854E+03 -0.16477839218E+04  0.16652872770E+04  0.65809209546E+02 0.  0.
        254    2    1    2    0    0 -0.41634485283E+02  0.22787184854E+03 -0.11684450638E+04  0.15054787865E+04  0.92062125757E+03 0.  0.
         23    2    4    4    0    0  0.10783969347E+03 -0.32807022423E+03 -0.55296451908E+03  0.65782702025E+03  0.87790419143E+02 0.  0.
         23    2    4    4    0    0 -0.14947417875E+03  0.55594207277E+03 -0.61548054471E+03  0.84765176628E+03  0.91011524431E+02 0.  0.
          2    1    3    3  502    0  0.42695901916E+02 -0.19992236887E+03 -0.15549693712E+04  0.15683499734E+04  0.00000000000E+00 0. -1.
         -1    1    3    3    0  502 -0.10614166334E+01 -0.27949479666E+02 -0.92814550653E+02  0.96937303613E+02  0.00000000000E+00 0.  1.
         11    1    5    5    0    0  0.10860344560E+02 -0.14861738501E+03 -0.18991179159E+03  0.24139503474E+03  0.00000000000E+00 0. -1.
        -11    1    5    5    0    0  0.96979348908E+02 -0.17945283923E+03 -0.36305272749E+03  0.41643198551E+03  0.00000000000E+00 0.  1.
          2    1    6    6  503    0 -0.10886989315E+03  0.50951094805E+03 -0.55596656797E+03  0.76194021059E+03  0.00000000000E+00 0. -1.
         -2    1    6    6    0  503 -0.40604285597E+02  0.46431124720E+02 -0.59513976739E+02  0.85711555691E+02  0.00000000000E+00 0.  1.
<mgrwt>
<rscale>  0 0.14569186E+04</rscale>
<asrwt>0</asrwt>
<pdfrwt beam="1">  1        2 0.46053805E+00 0.14569186E+04</pdfrwt>
<pdfrwt beam="2">  1       -1 0.27272085E-01 0.14569186E+04</pdfrwt>
<totfact> 0.23571796E+01</totfact>
</mgrwt>
</event>
<event>
12    6  0.1586493E-007  0.2087055E+04  0.7818608E-02  0.8566967E-01
         -1   -1    0    0    0  501 -0.00000000000E+00  0.00000000000E+00  0.86876156234E+03  0.86876156234E+03  0.00000000000E+00 0.  1.
          2   -1    0    0  501    0  0.00000000000E+00 -0.00000000000E+00 -0.12534508421E+04  0.12534508421E+04  0.00000000000E+00 0. -1.
         24    2    1    2    0    0 -0.11314725888E+03 -0.53114134065E+03  0.49974623304E+03  0.74232436787E+03  0.79910848823E+02 0.  0.
        254    2    1    2    0    0  0.11314725888E+03  0.53114134065E+03 -0.88443551277E+03  0.13798880365E+04  0.90936867725E+03 0.  0.
         23    2    4    4    0    0  0.22526938336E+03  0.21557227249E+03 -0.96944480085E+03  0.10228148450E+04  0.95442577361E+02 0.  0.
         23    2    4    4    0    0 -0.11212212448E+03  0.31556906816E+03  0.85009288081E+02  0.35707319150E+03  0.90108143082E+02 0.  0.
          2    1    3    3  502    0 -0.45381640557E+02 -0.24547236649E+03  0.28314614077E+03  0.37747571186E+03  0.00000000000E+00 0. -1.
         -1    1    3    3    0  502 -0.67765618322E+02 -0.28566897416E+03  0.21660009227E+03  0.36484865602E+03  0.00000000000E+00 0.  1.
         11    1    5    5    0    0  0.15333216485E+03  0.18011775478E+03 -0.81709154841E+03  0.85064196749E+03  0.00000000000E+00 0. -1.
        -11    1    5    5    0    0  0.71937218507E+02  0.35454517710E+02 -0.15235325243E+03  0.17217287754E+03  0.00000000000E+00 0.  1.
          1    1    6    6  503    0 -0.64087480154E+02  0.16531931267E+03  0.90843484845E+02  0.19922404220E+03  0.00000000000E+00 0. -1.
         -1    1    6    6    0  503 -0.48034644324E+02  0.15024975550E+03 -0.58341967634E+01  0.15784914930E+03  0.00000000000E+00 0.  1.
<mgrwt>
<rscale>  0 0.20870553E+04</rscale>
<asrwt>0</asrwt>
<pdfrwt beam="1">  1        2 0.19283859E+00 0.20870553E+04</pdfrwt>
<pdfrwt beam="2">  1       -1 0.13365563E+00 0.20870553E+04</pdfrwt>
<totfact> 0.87504068E+00</totfact>
</mgrwt>
</event>
<event>
12    6  0.1586493E-007  0.1588880E+04  0.7818608E-02  0.8827409E-01
         -1   -1    0    0    0  501 -0.00000000000E+00  0.00000000000E+00  0.31215778965E+03  0.31215778965E+03  0.00000000000E+00 0.  1.
          2   -1    0    0  501    0  0.00000000000E+00 -0.00000000000E+00 -0.20218457289E+04  0.20218457289E+04  0.00000000000E+00 0. -1.
         24    2    1    2    0    0  0.31507639906E+03 -0.35068955990E+03 -0.12747928239E+03  0.49502041765E+03  0.80857540077E+02 0.  0.
        254    2    1    2    0    0 -0.31507639906E+03  0.35068955990E+03 -0.15822086569E+04  0.18389831009E+04  0.81007302562E+03 0.  0.
         23    2    4    4    0    0 -0.46407566670E+03  0.51367937978E+03 -0.12030383546E+04  0.13907684184E+04  0.87765490529E+02 0.  0.
         23    2    4    4    0    0  0.14899926764E+03 -0.16298981988E+03 -0.37917030222E+03  0.44821468246E+03  0.91432053140E+02 0.  0.
          2    1    3    3  502    0  0.67257816640E+02 -0.46124669981E+02 -0.47265825466E+02  0.94261112538E+02  0.00000000000E+00 0. -1.
         -1    1    3    3    0  502  0.24781858242E+03 -0.30456488992E+03 -0.80213456922E+02  0.40075930512E+03  0.00000000000E+00 0.  1.
         11    1    5    5    0    0 -0.22777930793E+03  0.27116187231E+03 -0.69847126297E+03  0.78311830480E+03  0.00000000000E+00 0.  1.
        -11    1    5    5    0    0 -0.23629635877E+03  0.24251750748E+03 -0.50456709167E+03  0.60765011363E+03  0.00000000000E+00 0. -1.
          3    1    6    6  503    0  0.13098338776E+03 -0.10620464298E+03 -0.33146322815E+03  0.37189238454E+03  0.00000000000E+00 0. -1.
         -3    1    6    6    0  503  0.18015879876E+02 -0.56785176903E+02 -0.47707074072E+02  0.76322297922E+02  0.00000000000E+00 0.  1.
<mgrwt>
<rscale>  0 0.15888800E+04</rscale>
<asrwt>0</asrwt>
<pdfrwt beam="1">  1        2 0.31105318E+00 0.15888800E+04</pdfrwt>
<pdfrwt beam="2">  1       -1 0.48024277E-01 0.15888800E+04</pdfrwt>
<totfact> 0.30784413E+01</totfact>
</mgrwt>
</event>
<event>
12    6  0.1586493E-007  0.1873061E+04  0.7818608E-02  0.8668383E-01
          2   -1    0    0  501    0  0.00000000000E+00  0.00000000000E+00  0.34014191953E+04  0.34014191953E+04  0.00000000000E+00 0. -1.
         -1   -1    0    0    0  501 -0.00000000000E+00 -0.00000000000E+00 -0.25785995568E+03  0.25785995568E+03  0.00000000000E+00 0.  1.
         24    2    1    2    0    0 -0.21542184711E+03  0.40715466673E+03  0.23121145058E+04  0.23599393794E+04  0.10610792515E+03 0.  0.
        254    2    1    2    0    0  0.21542184711E+03 -0.40715466673E+03  0.83144473380E+03  0.12993397715E+04  0.88589051336E+03 0.  0.
         23    2    4    4    0    0  0.43031916772E+03 -0.41001938597E+03  0.21160424950E+03  0.63752361109E+03  0.91485044233E+02 0.  0.
         23    2    4    4    0    0 -0.21489732060E+03  0.28647192429E+01  0.61984048429E+03  0.66181616043E+03  0.87231526512E+02 0.  0.
          2    1    3    3  502    0 -0.18125312677E+03  0.38762953960E+03  0.21969746079E+04  0.22382597668E+04  0.00000000000E+00 0. -1.
         -1    1    3    3    0  502 -0.34168720344E+02  0.19525127124E+02  0.11513989789E+03  0.12167961261E+03  0.00000000000E+00 0.  1.
         11    1    5    5    0    0 -0.31779345987E+01 -0.13250836953E+02  0.65120041131E+01  0.15102653602E+02  0.00000000000E+00 0.  1.
        -11    1    5    5    0    0  0.43349710232E+03 -0.39676854902E+03  0.20509224539E+03  0.62242095749E+03  0.00000000000E+00 0. -1.
          3    1    6    6  503    0 -0.12797484373E+03 -0.40446216396E+02  0.38313969557E+03  0.40596734274E+03  0.00000000000E+00 0. -1.
         -3    1    6    6    0  503 -0.86922476870E+02  0.43310935639E+02  0.23670078872E+03  0.25584881769E+03  0.00000000000E+00 0.  1.
<mgrwt>
<rscale>  0 0.18730615E+04</rscale>
<asrwt>0</asrwt>
<pdfrwt beam="1">  1        2 0.52329523E+00 0.18730615E+04</pdfrwt>
<pdfrwt beam="2">  1       -1 0.39670765E-01 0.18730615E+04</pdfrwt>
<totfact> 0.63247279E+00</totfact>
</mgrwt>
</event>
<event>
12    6  0.1586493E-007  0.1913878E+04  0.7818608E-02  0.8647979E-01
         -1   -1    0    0    0  501 -0.00000000000E+00  0.00000000000E+00  0.15932270057E+03  0.15932270057E+03  0.00000000000E+00 0.  1.
          2   -1    0    0  501    0  0.00000000000E+00 -0.00000000000E+00 -0.57476558306E+04  0.57476558306E+04  0.00000000000E+00 0. -1.
         24    2    1    2    0    0  0.44392140388E+03  0.56205488112E+03 -0.23910073064E+04  0.24972543961E+04  0.79947969010E+02 0.  0.
        254    2    1    2    0    0 -0.44392140388E+03 -0.56205488112E+03 -0.31973258236E+04  0.34097241350E+04  0.94358590075E+03 0.  0.
         23    2    4    4    0    0  0.31780673779E+02 -0.50942395884E+02  0.24282615761E+02  0.11201919663E+03  0.91397571415E+02 0.  0.
         23    2    4    4    0    0 -0.47570207766E+03 -0.51111248524E+03 -0.32216084394E+04  0.32977049384E+04  0.92566108909E+02 0.  0.
          4    1    3    3  502    0  0.35565829868E+03  0.47850225849E+03 -0.20643334275E+04  0.21487041995E+04  0.00000000000E+00 0. -1.
         -3    1    3    3    0  502  0.88263105195E+02  0.83552622631E+02 -0.32667387883E+03  0.34855019667E+03  0.00000000000E+00 0.  1.
         11    1    5    5    0    0  0.55639300607E+02 -0.23167730730E+02  0.39827855985E+02  0.72240803093E+02  0.00000000000E+00 0.  1.
        -11    1    5    5    0    0 -0.23858626828E+02 -0.27774665154E+02 -0.15545240223E+02  0.39778393534E+02  0.00000000000E+00 0. -1.
          3    1    6    6  503    0 -0.31942033357E+02 -0.22796063765E+02 -0.10695104262E+03  0.11392312994E+03  0.00000000000E+00 0. -1.
         -3    1    6    6    0  503 -0.44376004430E+03 -0.48831642147E+03 -0.31146573968E+04  0.31837818084E+04  0.00000000000E+00 0.  1.
<mgrwt>
<rscale>  0 0.19138778E+04</rscale>
<asrwt>0</asrwt>
<pdfrwt beam="1">  1        2 0.88425481E+00 0.19138778E+04</pdfrwt>
<pdfrwt beam="2">  1       -1 0.24511183E-01 0.19138778E+04</pdfrwt>
<totfact> 0.29391534E-02</totfact>
</mgrwt>
</event>
<event>
12    6  0.1586493E-007  0.1477358E+04  0.7818608E-02  0.8899650E-01
         -1   -1    0    0    0  501 -0.00000000000E+00  0.00000000000E+00  0.48610733604E+03  0.48610733604E+03  0.00000000000E+00 0.  1.
          2   -1    0    0  501    0  0.00000000000E+00 -0.00000000000E+00 -0.11224824837E+04  0.11224824837E+04  0.00000000000E+00 0. -1.
         24    2    1    2    0    0 -0.45075560017E+03  0.13472310062E+03 -0.20120648896E+03  0.51695138735E+03  0.73646186311E+02 0.  0.
        254    2    1    2    0    0  0.45075560017E+03 -0.13472310062E+03 -0.43516865868E+03  0.10916384324E+04  0.88372607783E+03 0.  0.
         23    2    4    4    0    0 -0.14228439993E+03  0.28243831814E+02  0.15812054677E+03  0.23244301080E+03  0.89359283008E+02 0.  0.
         23    2    4    4    0    0  0.59304000009E+03 -0.16296693243E+03 -0.59328920546E+03  0.85919542159E+03  0.89275015473E+02 0.  0.
          4    1    3    3  502    0 -0.27667062463E+03  0.10907775768E+03 -0.15330139373E+03  0.33458318708E+03  0.00000000000E+00 0. -1.
         -3    1    3    3    0  502 -0.17408497553E+03  0.25645342944E+02 -0.47905095234E+02  0.18236820027E+03  0.00000000000E+00 0.  1.
         11    1    5    5    0    0 -0.13833120007E+03  0.19894222380E+02  0.16825757520E+03  0.21872794200E+03  0.00000000000E+00 0.  1.
        -11    1    5    5    0    0 -0.39531998535E+01  0.83496094339E+01 -0.10137028431E+02  0.13715068800E+02  0.00000000000E+00 0. -1.
          3    1    6    6  503    0  0.51679107123E+03 -0.11992310501E+03 -0.53834813776E+03  0.75582622331E+03  0.00000000000E+00 0.  1.
         -3    1    6    6    0  503  0.76248928864E+02 -0.43043827426E+02 -0.54941067698E+02  0.10336919828E+03  0.00000000000E+00 0. -1.
<mgrwt>
<rscale>  0 0.14773584E+04</rscale>
<asrwt>0</asrwt>
<pdfrwt beam="1">  1        2 0.17268961E+00 0.14773584E+04</pdfrwt>
<pdfrwt beam="2">  1       -1 0.74785744E-01 0.14773584E+04</pdfrwt>
<totfact> 0.41902028E+01</totfact>
</mgrwt>
</event>
<event>
12    6  0.1780171E-007  0.1723626E+04  0.7818608E-02  0.8748003E-01
          2   -1    0    0  501    0  0.00000000000E+00  0.00000000000E+00  0.77690629741E+03  0.77690629741E+03  0.00000000000E+00 0. -1.
         -1   -1    0    0    0  501 -0.00000000000E+00 -0.00000000000E+00 -0.95599951019E+03  0.95599951019E+03  0.00000000000E+00 0.  1.
         24    2    1    2    0    0  0.20620820355E+03 -0.46425242731E+03 -0.33204545574E+03  0.61159486565E+03  0.75775692283E+02 0.  0.
        254    2    1    2    0    0 -0.20620820355E+03  0.46425242731E+03  0.15295224296E+03  0.11213109419E+04  0.98787230978E+03 0.  0.
         23    2    4    4    0    0  0.34237031242E+03  0.39720595154E+03 -0.22578212751E+02  0.53421259752E+03  0.99414912860E+02 0.  0.
         23    2    4    4    0    0 -0.54857851596E+03  0.67046475769E+02  0.17553045571E+03  0.58709834443E+03  0.91868966798E+02 0.  0.
          2    1    3    3  502    0  0.62134911972E+02 -0.15764326416E+03 -0.15358115838E+03  0.22869044193E+03  0.00000000000E+00 0. -1.
         -1    1    3    3    0  502  0.14407329158E+03 -0.30660916315E+03 -0.17846429736E+03  0.38290442372E+03  0.00000000000E+00 0.  1.
         11    1    5    5    0    0  0.33531221484E+03  0.34868812331E+03 -0.29723958362E+02  0.48466607315E+03  0.00000000000E+00 0. -1.
        -11    1    5    5    0    0  0.70580975738E+01  0.48517828223E+02  0.71457456114E+01  0.49546524370E+02  0.00000000000E+00 0.  1.
          3    1    6    6  503    0 -0.46457367975E+03  0.36550685272E+02  0.11767613005E+03  0.48063741853E+03  0.00000000000E+00 0. -1.
         -3    1    6    6    0  503 -0.84004836217E+02  0.30495790497E+02  0.57854325661E+02  0.10646092590E+03  0.00000000000E+00 0.  1.
<mgrwt>
<rscale>  0 0.17236265E+04</rscale>
<asrwt>0</asrwt>
<pdfrwt beam="1">  1        2 0.11952405E+00 0.17236265E+04</pdfrwt>
<pdfrwt beam="2">  1       -1 0.14707685E+00 0.17236265E+04</pdfrwt>
<totfact> 0.14284915E+01</totfact>
</mgrwt>
</event>
<event>
12    6  0.1586493E-007  0.1516548E+04  0.7818608E-02  0.8873523E-01
         -1   -1    0    0    0  501 -0.00000000000E+00  0.00000000000E+00  0.26571526999E+03  0.26571526999E+03  0.00000000000E+00 0.  1.
          2   -1    0    0  501    0  0.00000000000E+00 -0.00000000000E+00 -0.21638920307E+04  0.21638920307E+04  0.00000000000E+00 0. -1.
         24    2    1    2    0    0 -0.27521578439E+02  0.13353865695E+03  0.13132706410E+03  0.20496773439E+03  0.78580940428E+02 0.  0.
        254    2    1    2    0    0  0.27521578439E+02 -0.13353865695E+03 -0.20295038248E+04  0.22246395663E+04  0.90085815465E+03 0.  0.
         23    2    4    4    0    0  0.40633346419E+03  0.12988439207E+03 -0.10908825664E+04  0.11747244628E+04  0.89308176272E+02 0.  0.
         23    2    4    4    0    0 -0.37881188576E+03 -0.26342304902E+03 -0.93862125839E+03  0.10499151035E+04  0.91769876801E+02 0.  0.
          2    1    3    3  502    0 -0.22527173721E+02  0.20419620638E+00  0.10083639755E+02  0.24681876805E+02  0.00000000000E+00 0. -1.
         -1    1    3    3    0  502 -0.49944047179E+01  0.13333446074E+03  0.12124342435E+03  0.18028585759E+03  0.00000000000E+00 0.  1.
         11    1    5    5    0    0  0.86927383382E+02  0.32707427740E+02 -0.34961896823E+03  0.36174517102E+03  0.00000000000E+00 0.  1.
        -11    1    5    5    0    0  0.31940608081E+03  0.97176964335E+02 -0.74126359820E+03  0.81297929179E+03  0.00000000000E+00 0. -1.
          3    1    6    6  503    0 -0.37309740986E+03 -0.26447510158E+03 -0.93861900712E+03  0.10441045911E+04  0.00000000000E+00 0. -1.
         -3    1    6    6    0  503 -0.57144758958E+01  0.10520525545E+01 -0.22512706649E-02  0.58105124051E+01  0.00000000000E+00 0.  1.
<mgrwt>
<rscale>  0 0.15165476E+04</rscale>
<asrwt>0</asrwt>
<pdfrwt beam="1">  1        2 0.33290648E+00 0.15165476E+04</pdfrwt>
<pdfrwt beam="2">  1       -1 0.40879271E-01 0.15165476E+04</pdfrwt>
<totfact> 0.34836314E+01</totfact>
</mgrwt>
</event>
<event>
12    6  0.1586493E-007  0.2524316E+04  0.7818608E-02  0.8394374E-01
         -1   -1    0    0    0  501 -0.00000000000E+00  0.00000000000E+00  0.13436293388E+04  0.13436293388E+04  0.00000000000E+00 0.  1.
          2   -1    0    0  501    0  0.00000000000E+00 -0.00000000000E+00 -0.11856264851E+04  0.11856264851E+04  0.00000000000E+00 0. -1.
         24    2    1    2    0    0  0.66315157629E+03  0.51674769474E+03  0.82804041813E+03  0.11827431543E+04  0.80201258198E+02 0.  0.
        254    2    1    2    0    0 -0.66315157629E+03 -0.51674769474E+03 -0.67003756440E+03  0.13465126696E+04  0.81076990479E+03 0.  0.
         23    2    4    4    0    0 -0.29324188388E+03 -0.47574569296E+03 -0.76485421994E+03  0.95161259609E+03  0.90773280456E+02 0.  0.
         23    2    4    4    0    0 -0.36990969241E+03 -0.41002001782E+02  0.94816655545E+02  0.39490007350E+03  0.91877773119E+02 0.  0.
          4    1    3    3  502    0  0.11284056318E+01  0.11875053772E+02  0.10506955323E+02  0.15896109949E+02  0.00000000000E+00 0. -1.
         -3    1    3    3    0  502  0.66202317066E+03  0.50487264097E+03  0.81753346281E+03  0.11668470443E+04  0.00000000000E+00 0.  1.
         11    1    5    5    0    0 -0.66803296407E+02 -0.17623426800E+03 -0.29651088402E+03  0.35134015138E+03  0.00000000000E+00 0. -1.
        -11    1    5    5    0    0 -0.22643858747E+03 -0.29951142496E+03 -0.46834333592E+03  0.60027244471E+03  0.00000000000E+00 0.  1.
          1    1    6    6  503    0 -0.29533755974E+03 -0.11736107572E+02  0.41019847439E+02  0.29840348239E+03  0.00000000000E+00 0. -1.
         -1    1    6    6    0  503 -0.74572132667E+02 -0.29265894210E+02  0.53796808107E+02  0.96496591115E+02  0.00000000000E+00 0.  1.
<mgrwt>
<rscale>  0 0.25243158E+04</rscale>
<asrwt>0</asrwt>
<pdfrwt beam="1">  1        2 0.18240407E+00 0.25243158E+04</pdfrwt>
<pdfrwt beam="2">  1       -1 0.20671221E+00 0.25243158E+04</pdfrwt>
<totfact> 0.26529260E+00</totfact>
</mgrwt>
</event>
<event>
12    6  0.1586493E-007  0.2292510E+04  0.7818608E-02  0.8480880E-01
          2   -1    0    0  501    0  0.00000000000E+00  0.00000000000E+00  0.17248432354E+04  0.17248432354E+04  0.00000000000E+00 0. -1.
         -1   -1    0    0    0  501 -0.00000000000E+00 -0.00000000000E+00 -0.76175067154E+03  0.76175067154E+03  0.00000000000E+00 0.  1.
         24    2    1    2    0    0 -0.22594777086E+03 -0.60016670334E+03  0.11912361818E+04  0.13554101715E+04  0.82708070958E+02 0.  0.
        254    2    1    2    0    0  0.22594777086E+03  0.60016670334E+03 -0.22814361799E+03  0.11311837355E+04  0.90347920067E+03 0.  0.
         23    2    4    4    0    0  0.47294355686E+03  0.12939400489E+03  0.88718717264E+02  0.50662333243E+03  0.91530179135E+02 0.  0.
         23    2    4    4    0    0 -0.24699578601E+03  0.47077269845E+03 -0.31686233526E+03  0.62456040305E+03  0.83905337427E+02 0.  0.
          4    1    3    3  502    0 -0.20034787260E+03 -0.47233342845E+03  0.89245513503E+03  0.10294242593E+04  0.00000000000E+00 0. -1.
         -3    1    3    3    0  502 -0.25599898256E+02 -0.12783327488E+03  0.29878104682E+03  0.32598591211E+03  0.00000000000E+00 0.  1.
         11    1    5    5    0    0  0.37838589514E+03  0.11204183836E+03  0.10675300457E+03  0.40880981295E+03  0.00000000000E+00 0.  1.
        -11    1    5    5    0    0  0.94557661725E+02  0.17352166528E+02 -0.18034287306E+02  0.97813519478E+02  0.00000000000E+00 0. -1.
          2    1    6    6  503    0 -0.76248871294E+02  0.90765168598E+02 -0.43476546246E+02  0.12626328159E+03  0.00000000000E+00 0. -1.
         -2    1    6    6    0  503 -0.17074691471E+03  0.38000752985E+03 -0.27338578901E+03  0.49829712146E+03  0.00000000000E+00 0.  1.
<mgrwt>
<rscale>  0 0.22925100E+04</rscale>
<asrwt>0</asrwt>
<pdfrwt beam="1">  1        2 0.26536050E+00 0.22925100E+04</pdfrwt>
<pdfrwt beam="2">  1       -1 0.11719241E+00 0.22925100E+04</pdfrwt>
<totfact> 0.64354810E+00</totfact>
</mgrwt>
</event>
<event>
12    6  0.1586493E-007  0.1635598E+04  0.7818608E-02  0.8798972E-01
          2   -1    0    0  501    0  0.00000000000E+00  0.00000000000E+00  0.10501782481E+04  0.10501782481E+04  0.00000000000E+00 0. -1.
         -1   -1    0    0    0  501 -0.00000000000E+00 -0.00000000000E+00 -0.63683987212E+03  0.63683987212E+03  0.00000000000E+00 0.  1.
         24    2    1    2    0    0  0.32957145276E+03 -0.38344366360E+03 -0.11341721100E+03  0.52446484550E+03  0.80953843525E+02 0.  0.
        254    2    1    2    0    0 -0.32957145276E+03  0.38344366360E+03  0.52675558702E+03  0.11625532748E+04  0.90466141876E+03 0.  0.
         23    2    4    4    0    0 -0.26870533345E+03 -0.25193412474E+03  0.11037712001E+03  0.39499642257E+03  0.90364294870E+02 0.  0.
         23    2    4    4    0    0 -0.60866119317E+02  0.63537778834E+03  0.41637846701E+03  0.76755685220E+03  0.91448757116E+02 0.  0.
          2    1    3    3  502    0  0.68401164266E+02 -0.13089123773E+03 -0.48177782700E+02  0.15534585329E+03  0.00000000000E+00 0. -1.
         -1    1    3    3    0  502  0.26117028850E+03 -0.25255242587E+03 -0.65239428296E+02  0.36911899221E+03  0.00000000000E+00 0.  1.
         11    1    5    5    0    0 -0.12471551627E+03 -0.97434966049E+02  0.91861468540E+02  0.18299197253E+03  0.00000000000E+00 0. -1.
        -11    1    5    5    0    0 -0.14398981718E+03 -0.15449915869E+03  0.18515651474E+02  0.21200445004E+03  0.00000000000E+00 0.  1.
          1    1    6    6  503    0 -0.47620545944E+01  0.44726738507E+03  0.26740435932E+03  0.52112942950E+03  0.00000000000E+00 0. -1.
         -1    1    6    6    0  503 -0.56104064723E+02  0.18811040327E+03  0.14897410768E+03  0.24642742270E+03  0.00000000000E+00 0.  1.
<mgrwt>
<rscale>  0 0.16355982E+04</rscale>
<asrwt>0</asrwt>
<pdfrwt beam="1">  1        2 0.16156588E+00 0.16355982E+04</pdfrwt>
<pdfrwt beam="2">  1       -1 0.97975365E-01 0.16355982E+04</pdfrwt>
<totfact> 0.25500436E+01</totfact>
</mgrwt>
</event>
<event>
12    6  0.1586493E-007  0.2235591E+04  0.7818608E-02  0.8503759E-01
          2   -1    0    0  501    0  0.00000000000E+00  0.00000000000E+00  0.18830397199E+04  0.18830397199E+04  0.00000000000E+00 0. -1.
         -1   -1    0    0    0  501 -0.00000000000E+00 -0.00000000000E+00 -0.66353705370E+03  0.66353705370E+03  0.00000000000E+00 0.  1.
         24    2    1    2    0    0 -0.63551043091E+02  0.90122073793E+03  0.72496657766E+03  0.11611153180E+04  0.79841652254E+02 0.  0.
        254    2    1    2    0    0  0.63551043091E+02 -0.90122073793E+03  0.49453608857E+03  0.13854614556E+04  0.92666064369E+03 0.  0.
         23    2    4    4    0    0  0.35386921994E+03 -0.65434956794E+03 -0.56751379589E+01  0.75020238785E+03  0.96822691905E+02 0.  0.
         23    2    4    4    0    0 -0.29031817685E+03 -0.24687116999E+03  0.50021122653E+03  0.63525906777E+03  0.90071047817E+02 0.  0.
          4    1    3    3  502    0 -0.60521380748E+02  0.79760638906E+03  0.60740379887E+03  0.10043794922E+04  0.00000000000E+00 0. -1.
         -3    1    3    3    0  502 -0.30296623424E+01  0.10361434886E+03  0.11756277880E+03  0.15673582584E+03  0.00000000000E+00 0.  1.
         11    1    5    5    0    0  0.28493835617E+03 -0.52029735470E+03 -0.43465107801E+02  0.59480115982E+03  0.00000000000E+00 0. -1.
        -11    1    5    5    0    0  0.68930863765E+02 -0.13405221324E+03  0.37789969842E+02  0.15540122803E+03  0.00000000000E+00 0.  1.
          2    1    6    6  503    0 -0.14223788620E+03 -0.17854246304E+03  0.30248471665E+03  0.37895386420E+03  0.00000000000E+00 0. -1.
         -2    1    6    6    0  503 -0.14808029064E+03 -0.68328706954E+02  0.19772650988E+03  0.25630520357E+03  0.00000000000E+00 0.  1.
<mgrwt>
<rscale>  0 0.22355909E+04</rscale>
<asrwt>0</asrwt>
<pdfrwt beam="1">  1        2 0.28969842E+00 0.22355909E+04</pdfrwt>
<pdfrwt beam="2">  1       -1 0.10208262E+00 0.22355909E+04</pdfrwt>
<totfact> 0.73172448E+00</totfact>
</mgrwt>
</event>
<event>
12    6  0.1586493E-007  0.1871439E+04  0.7818608E-02  0.8669205E-01
          2   -1    0    0  501    0  0.00000000000E+00  0.00000000000E+00  0.73319236332E+03  0.73319236332E+03  0.00000000000E+00 0. -1.
         -1   -1    0    0    0  501 -0.00000000000E+00 -0.00000000000E+00 -0.11941904134E+04  0.11941904134E+04  0.00000000000E+00 0.  1.
         24    2    1    2    0    0 -0.52074081253E+03  0.28519029389E+03 -0.45622523120E+03  0.75318712078E+03  0.81516131914E+02 0.  0.
        254    2    1    2    0    0  0.52074081253E+03 -0.28519029389E+03 -0.47728188862E+01  0.11741956559E+04  0.10130193291E+04 0.  0.
         23    2    4    4    0    0  0.23088472692E+03  0.26976760696E+03  0.29808600634E+03  0.47320830929E+03  0.94807794602E+02 0.  0.
         23    2    4    4    0    0  0.28985608561E+03 -0.55495790085E+03 -0.30285882523E+03  0.70098734664E+03  0.87549814720E+02 0.  0.
          2    1    3    3  502    0 -0.51178904403E+02  0.31140649309E+02 -0.18203557976E+02  0.62613016364E+02  0.00000000000E+00 0. -1.
         -1    1    3    3    0  502 -0.46956190813E+03  0.25404964458E+03 -0.43802167323E+03  0.69057410442E+03  0.00000000000E+00 0.  1.
         11    1    5    5    0    0  0.39836601237E+02  0.71766929345E+02  0.25624263418E+02  0.85988661005E+02  0.00000000000E+00 0.  1.
        -11    1    5    5    0    0  0.19104812568E+03  0.19800067761E+03  0.27246174293E+03  0.38721964829E+03  0.00000000000E+00 0. -1.
          4    1    6    6  503    0  0.25041051119E+03 -0.41881361876E+03 -0.25997361077E+03  0.55289831766E+03  0.00000000000E+00 0. -1.
         -4    1    6    6    0  503  0.39445574419E+02 -0.13614428209E+03 -0.42885214459E+02  0.14808902898E+03  0.00000000000E+00 0.  1.
<mgrwt>
<rscale>  0 0.18714393E+04</rscale>
<asrwt>0</asrwt>
<pdfrwt beam="1">  1        2 0.11279883E+00 0.18714393E+04</pdfrwt>
<pdfrwt beam="2">  1       -1 0.18372160E+00 0.18714393E+04</pdfrwt>
<totfact> 0.80991646E+00</totfact>
</mgrwt>
</event>
<event>
12    6  0.1586493E-007  0.1714420E+04  0.7818608E-02  0.8753183E-01
          2   -1    0    0  501    0  0.00000000000E+00  0.00000000000E+00  0.77157071947E+03  0.77157071947E+03  0.00000000000E+00 0. -1.
         -1   -1    0    0    0  501 -0.00000000000E+00 -0.00000000000E+00 -0.95235426076E+03  0.95235426076E+03  0.00000000000E+00 0.  1.
         24    2    1    2    0    0 -0.14750863108E+03 -0.43897590352E+03 -0.47649741831E+03  0.66921900992E+03  0.79659610024E+02 0.  0.
        254    2    1    2    0    0  0.14750863108E+03  0.43897590352E+03  0.29571387702E+03  0.10547059703E+04  0.90027737206E+03 0.  0.
         23    2    4    4    0    0 -0.35942178033E+03  0.10805245779E+03  0.35779515708E+02  0.38804319922E+03  0.91858591892E+02 0.  0.
         23    2    4    4    0    0  0.50693041141E+03  0.33092344573E+03  0.25993436132E+03  0.66666277110E+03  0.10190490287E+03 0.  0.
          2    1    3    3  502    0  0.30818327674E+01 -0.17363134672E+01  0.17570780269E+01  0.39496583213E+01  0.00000000000E+00 0. -1.
         -1    1    3    3    0  502 -0.15059046385E+03 -0.43723959005E+03 -0.47825449634E+03  0.66526935160E+03  0.00000000000E+00 0.  1.
         11    1    5    5    0    0 -0.28065119160E+03  0.55468644975E+02  0.55215930780E+02  0.29136001945E+03  0.00000000000E+00 0.  1.
        -11    1    5    5    0    0 -0.78770588729E+02  0.52583812816E+02 -0.19436415072E+02  0.96683179767E+02  0.00000000000E+00 0. -1.
          3    1    6    6  503    0  0.36560357697E+03  0.27460816751E+03  0.22911586786E+03  0.51143885466E+03  0.00000000000E+00 0. -1.
         -3    1    6    6    0  503  0.14132683444E+03  0.56315278216E+02  0.30818493460E+02  0.15522391643E+03  0.00000000000E+00 0.  1.
<mgrwt>
<rscale>  0 0.17144196E+04</rscale>
<asrwt>0</asrwt>
<pdfrwt beam="1">  1        2 0.11870319E+00 0.17144196E+04</pdfrwt>
<pdfrwt beam="2">  1       -1 0.14651604E+00 0.17144196E+04</pdfrwt>
<totfact> 0.14574017E+01</totfact>
</mgrwt>
</event>
<event>
12    6  0.1586493E-007  0.1604652E+04  0.7818608E-02  0.8817695E-01
          2   -1    0    0  501    0  0.00000000000E+00  0.00000000000E+00  0.30625524983E+04  0.30625524983E+04  0.00000000000E+00 0. -1.
         -1   -1    0    0    0  501 -0.00000000000E+00 -0.00000000000E+00 -0.21019301621E+03  0.21019301621E+03  0.00000000000E+00 0.  1.
         24    2    1    2    0    0 -0.40320514893E+02 -0.43418599063E+03  0.31378640835E+03  0.54306741563E+03  0.79480120023E+02 0.  0.
        254    2    1    2    0    0  0.40320514893E+02  0.43418599063E+03  0.25385730738E+04  0.27296780989E+04  0.90368470965E+03 0.  0.
         23    2    4    4    0    0 -0.29117566172E+03 -0.66033847022E+01  0.16642833609E+04  0.16919524113E+04  0.89649237945E+02 0.  0.
         23    2    4    4    0    0  0.33149617662E+03  0.44078937533E+03  0.87428971286E+03  0.10377256877E+04  0.91143361336E+02 0.  0.
          2    1    3    3  502    0 -0.18916819890E+02 -0.18812078045E+02  0.12359362754E+02  0.29402282272E+02  0.00000000000E+00 0. -1.
         -3    1    3    3    0  502 -0.21403695002E+02 -0.41537391258E+03  0.30142704559E+03  0.51366513336E+03  0.00000000000E+00 0.  1.
         11    1    5    5    0    0 -0.21576014157E+03 -0.43385447044E+02  0.12561207997E+04  0.12752545625E+04  0.00000000000E+00 0.  1.
        -11    1    5    5    0    0 -0.75415520154E+02  0.36782062342E+02  0.40816256120E+03  0.41669784875E+03  0.00000000000E+00 0. -1.
          1    1    6    6  503    0  0.28654193246E+02  0.72648104388E+01  0.36137730687E+02  0.46688069574E+02  0.00000000000E+00 0. -1.
         -1    1    6    6    0  503  0.30284198337E+03  0.43352456489E+03  0.83815198217E+03  0.99103761809E+03  0.00000000000E+00 0.  1.
<mgrwt>
<rscale>  0 0.16046522E+04</rscale>
<asrwt>0</asrwt>
<pdfrwt beam="1">  1        2 0.47116189E+00 0.16046522E+04</pdfrwt>
<pdfrwt beam="2">  1       -1 0.32337389E-01 0.16046522E+04</pdfrwt>
<totfact> 0.15610847E+01</totfact>
</mgrwt>
</event>
<event>
12    6  0.1586493E-007  0.1105578E+04  0.7818608E-02  0.9199772E-01
         -1   -1    0    0    0  501 -0.00000000000E+00  0.00000000000E+00  0.27825435810E+03  0.27825435810E+03  0.00000000000E+00 0.  1.
          2   -1    0    0  501    0  0.00000000000E+00 -0.00000000000E+00 -0.10981887056E+04  0.10981887056E+04  0.00000000000E+00 0. -1.
         24    2    1    2    0    0  0.47355827308E+02 -0.89685238018E+02  0.39114338634E+02  0.13336970283E+03  0.77275674353E+02 0.  0.
        254    2    1    2    0    0 -0.47355827308E+02  0.89685238018E+02 -0.85904868615E+03  0.12430733609E+04  0.89273776612E+03 0.  0.
         23    2    4    4    0    0  0.43757629636E+02  0.41402435470E+03 -0.14941660904E+03  0.45171970884E+03  0.91621372277E+02 0.  0.
         23    2    4    4    0    0 -0.91113456944E+02 -0.32433911668E+03 -0.70963207711E+03  0.79135365205E+03  0.95736059519E+02 0.  0.
          2    1    3    3  502    0  0.23974811790E+02 -0.19342632944E+02  0.49718847785E+02  0.58488399487E+02  0.00000000000E+00 0. -1.
         -1    1    3    3    0  502  0.23381015518E+02 -0.70342605075E+02 -0.10604509151E+02  0.74881303339E+02  0.00000000000E+00 0.  1.
         11    1    5    5    0    0 -0.20311624638E+02  0.29765350379E+02 -0.20049858952E+02  0.41237543848E+02  0.00000000000E+00 0. -1.
        -11    1    5    5    0    0  0.64069254274E+02  0.38425900432E+03 -0.12936675009E+03  0.41048216499E+03  0.00000000000E+00 0.  1.
          1    1    6    6  503    0 -0.26257848381E+02 -0.97372759285E+02 -0.12331475398E+03  0.15930303639E+03  0.00000000000E+00 0. -1.
         -1    1    6    6    0  503 -0.64855608563E+02 -0.22696635740E+03 -0.58631732313E+03  0.63205061566E+03  0.00000000000E+00 0.  1.
<mgrwt>
<rscale>  0 0.11055782E+04</rscale>
<asrwt>0</asrwt>
<pdfrwt beam="1">  1        2 0.16895211E+00 0.11055782E+04</pdfrwt>
<pdfrwt beam="2">  1       -1 0.42808363E-01 0.11055782E+04</pdfrwt>
<totfact> 0.13275940E+02</totfact>
</mgrwt>
</event>
<event>
12    6  0.1586493E-007  0.1879087E+04  0.7818608E-02  0.8665337E-01
          2   -1    0    0  501    0  0.00000000000E+00  0.00000000000E+00  0.20648064558E+04  0.20648064558E+04  0.00000000000E+00 0. -1.
         -1   -1    0    0    0  501 -0.00000000000E+00 -0.00000000000E+00 -0.42751819002E+03  0.42751819002E+03  0.00000000000E+00 0.  1.
         24    2    1    2    0    0 -0.76751672291E+02  0.36820582006E+03  0.14769820502E+04  0.15262456550E+04  0.80520045745E+02 0.  0.
        254    2    1    2    0    0  0.76751672291E+02 -0.36820582006E+03  0.16030621560E+03  0.96607899080E+03  0.87529662890E+03 0.  0.
         23    2    4    4    0    0  0.86729222934E+02  0.25717229609E+03  0.17141142428E+03  0.33362335511E+03  0.90901698087E+02 0.  0.
         23    2    4    4    0    0 -0.99775506430E+01 -0.62537811615E+03 -0.11105208683E+02  0.63245563569E+03  0.93163650488E+02 0.  0.
          4    1    3    3  502    0 -0.90297382115E+02  0.32019214945E+03  0.12248704892E+04  0.12692455811E+04  0.00000000000E+00 0. -1.
         -3    1    3    3    0  502  0.13545709824E+02  0.48013670609E+02  0.25211156098E+03  0.25700007393E+03  0.00000000000E+00 0.  1.
         11    1    5    5    0    0  0.78295119682E+02  0.17502726513E+03  0.16104179584E+03  0.25039794191E+03  0.00000000000E+00 0. -1.
        -11    1    5    5    0    0  0.84341032522E+01  0.82145030955E+02  0.10369628442E+02  0.83225413200E+02  0.00000000000E+00 0.  1.
          4    1    6    6  503    0 -0.44632099091E+02 -0.50791548491E+03 -0.10811058093E+02  0.50998729695E+03  0.00000000000E+00 0. -1.
         -4    1    6    6    0  503  0.34654548448E+02 -0.11746263125E+03 -0.29415058944E+00  0.12246833873E+03  0.00000000000E+00 0.  1.
<mgrwt>
<rscale>  0 0.18790874E+04</rscale>
<asrwt>0</asrwt>
<pdfrwt beam="1">  1        2 0.31766253E+00 0.18790874E+04</pdfrwt>
<pdfrwt beam="2">  1       -1 0.65772030E-01 0.18790874E+04</pdfrwt>
<totfact> 0.15388361E+01</totfact>
</mgrwt>
</event>
<event>
12    6  0.1586493E-007  0.2210414E+04  0.7818608E-02  0.8514106E-01
          2   -1    0    0  501    0  0.00000000000E+00  0.00000000000E+00  0.31333670660E+04  0.31333670660E+04  0.00000000000E+00 0. -1.
         -1   -1    0    0    0  501 -0.00000000000E+00 -0.00000000000E+00 -0.38983048513E+03  0.38983048513E+03  0.00000000000E+00 0.  1.
         24    2    1    2    0    0  0.29294771841E+03 -0.76916766981E+03  0.49057256630E+03  0.96149418153E+03  0.79826989911E+02 0.  0.
        254    2    1    2    0    0 -0.29294771841E+03  0.76916766981E+03  0.22529640146E+04  0.25617033696E+04  0.89946652681E+03 0.  0.
         23    2    4    4    0    0 -0.16109756477E+03 -0.19251980248E+02  0.13043403778E+04  0.13175444288E+04  0.91084776865E+02 0.  0.
         23    2    4    4    0    0 -0.13185015364E+03  0.78841965005E+03  0.94862363678E+03  0.12441589408E+04  0.95155967353E+02 0.  0.
          4    1    3    3  502    0  0.12677831379E+03 -0.23293426069E+03  0.17029469843E+03  0.31516883565E+03  0.00000000000E+00 0. -1.
         -3    1    3    3    0  502  0.16616940462E+03 -0.53623340911E+03  0.32027786787E+03  0.64632534588E+03  0.00000000000E+00 0.  1.
         11    1    5    5    0    0  0.55989081488E+01 -0.13987172175E+02  0.51713441919E+02  0.53863427602E+02  0.00000000000E+00 0. -1.
        -11    1    5    5    0    0 -0.16669647292E+03 -0.52648080736E+01  0.12526269359E+04  0.12636810012E+04  0.00000000000E+00 0.  1.
          2    1    6    6  503    0 -0.10090366046E+03  0.32784086413E+03  0.42329909430E+03  0.54483328104E+03  0.00000000000E+00 0. -1.
         -2    1    6    6    0  503 -0.30946493186E+02  0.46057878592E+03  0.52532454248E+03  0.69932565977E+03  0.00000000000E+00 0.  1.
<mgrwt>
<rscale>  0 0.22104135E+04</rscale>
<asrwt>0</asrwt>
<pdfrwt beam="1">  1        2 0.48205645E+00 0.22104135E+04</pdfrwt>
<pdfrwt beam="2">  1       -1 0.59973923E-01 0.22104135E+04</pdfrwt>
<totfact> 0.42029890E+00</totfact>
</mgrwt>
</event>
<event>
12    6  0.1586493E-007  0.2049673E+04  0.7818608E-02  0.8583743E-01
         -1   -1    0    0    0  501 -0.00000000000E+00  0.00000000000E+00  0.88951174483E+03  0.88951174483E+03  0.00000000000E+00 0.  1.
          2   -1    0    0  501    0  0.00000000000E+00 -0.00000000000E+00 -0.11807485993E+04  0.11807485993E+04  0.00000000000E+00 0. -1.
         24    2    1    2    0    0  0.93128519021E+02 -0.58524466715E+02 -0.93067440167E+03  0.94014761379E+03  0.74997730248E+02 0.  0.
        254    2    1    2    0    0 -0.93128519021E+02  0.58524466715E+02  0.63943754721E+03  0.11301127303E+04  0.92529799102E+03 0.  0.
         23    2    4    4    0    0 -0.38755152307E+03  0.76793457904E+02  0.70548974087E+03  0.81376197634E+03  0.91648030316E+02 0.  0.
         23    2    4    4    0    0  0.29442300405E+03 -0.18268991189E+02 -0.66052193661E+02  0.31635075398E+03  0.93253664288E+02 0.  0.
          2    1    3    3  502    0  0.88207843623E+02 -0.23925122436E+02 -0.78676144013E+03  0.79205214401E+03  0.00000000000E+00 0. -1.
         -1    1    3    3    0  502  0.49206753980E+01 -0.34599344279E+02 -0.14391296154E+03  0.14809546978E+03  0.00000000000E+00 0.  1.
         11    1    5    5    0    0 -0.25760685345E+03  0.17504087085E+02  0.51019255334E+03  0.57180776970E+03  0.00000000000E+00 0. -1.
        -11    1    5    5    0    0 -0.12994466961E+03  0.59289370819E+02  0.19529718753E+03  0.24195420664E+03  0.00000000000E+00 0.  1.
          3    1    6    6  503    0  0.21191070820E+03 -0.28813989476E+01 -0.88187421428E+02  0.22954623066E+03  0.00000000000E+00 0. -1.
         -3    1    6    6    0  503  0.82512295843E+02 -0.15387592241E+02  0.22135227767E+02  0.86804523318E+02  0.00000000000E+00 0.  1.
<mgrwt>
<rscale>  0 0.20496729E+04</rscale>
<asrwt>0</asrwt>
<pdfrwt beam="1">  1        2 0.18165363E+00 0.20496729E+04</pdfrwt>
<pdfrwt beam="2">  1       -1 0.13684796E+00 0.20496729E+04</pdfrwt>
<totfact> 0.91287636E+00</totfact>
</mgrwt>
</event>
<event>
12    6  0.1586493E-007  0.1357517E+04  0.7818608E-02  0.8985158E-01
         -1   -1    0    0    0  501 -0.00000000000E+00  0.00000000000E+00  0.44092541502E+03  0.44092541502E+03  0.00000000000E+00 0.  1.
          2   -1    0    0  501    0  0.00000000000E+00 -0.00000000000E+00 -0.10448770573E+04  0.10448770573E+04  0.00000000000E+00 0. -1.
         24    2    1    2    0    0  0.30713856594E+03  0.20182319876E+03 -0.10445634484E+03  0.39016215517E+03  0.79048574338E+02 0.  0.
        254    2    1    2    0    0 -0.30713856594E+03 -0.20182319876E+03 -0.49949529739E+03  0.10956403171E+04  0.90325270556E+03 0.  0.
         23    2    4    4    0    0 -0.45838466894E+03 -0.31051209528E+03 -0.63560225895E+03  0.84784573581E+03  0.91202489599E+02 0.  0.
         23    2    4    4    0    0  0.15124610300E+03  0.10868889652E+03  0.13610696156E+03  0.24779458130E+03  0.90489721170E+02 0.  0.
          2    1    3    3  502    0  0.93596553975E+02  0.52935533591E+02  0.52738993199E+01  0.10765825396E+03  0.00000000000E+00 0. -1.
         -1    1    3    3    0  502  0.21354201197E+03  0.14888766517E+03 -0.10973024416E+03  0.28250390121E+03  0.00000000000E+00 0.  1.
         11    1    5    5    0    0 -0.27717257551E+03 -0.20039734332E+03 -0.32536182386E+03  0.47206360615E+03  0.00000000000E+00 0. -1.
        -11    1    5    5    0    0 -0.18121209343E+03 -0.11011475196E+03 -0.31024043510E+03  0.37578212966E+03  0.00000000000E+00 0.  1.
          4    1    6    6  503    0  0.16083208525E+03  0.10933097384E+03  0.13737887799E+03  0.23810329188E+03  0.00000000000E+00 0. -1.
         -4    1    6    6    0  503 -0.95859822578E+01 -0.64207731804E+00 -0.12719164302E+01  0.96912894155E+01  0.00000000000E+00 0.  1.
<mgrwt>
<rscale>  0 0.13575166E+04</rscale>
<asrwt>0</asrwt>
<pdfrwt beam="1">  1        2 0.16075032E+00 0.13575166E+04</pdfrwt>
<pdfrwt beam="2">  1       -1 0.67834680E-01 0.13575166E+04</pdfrwt>
<totfact> 0.57796793E+01</totfact>
</mgrwt>
</event>
<event>
12    6  0.1586493E-007  0.2997301E+04  0.7818608E-02  0.8244502E-01
          2   -1    0    0  501    0  0.00000000000E+00  0.00000000000E+00  0.32489238531E+04  0.32489238531E+04  0.00000000000E+00 0. -1.
         -1   -1    0    0    0  501 -0.00000000000E+00 -0.00000000000E+00 -0.69129152625E+03  0.69129152625E+03  0.00000000000E+00 0.  1.
         24    2    1    2    0    0  0.15962021870E+03 -0.33467783378E+03 -0.55969737757E+03  0.67605291031E+03  0.79363193264E+02 0.  0.
        254    2    1    2    0    0 -0.15962021870E+03  0.33467783378E+03  0.31173297044E+04  0.32641624690E+04  0.89416121119E+03 0.  0.
         23    2    4    4    0    0 -0.15481249565E+03 -0.70761389517E+02  0.98598052212E+02  0.21685293505E+03  0.91266294346E+02 0.  0.
         23    2    4    4    0    0 -0.48077230501E+01  0.40543922329E+03  0.30187316522E+04  0.30473095339E+04  0.94607240410E+02 0.  0.
          2    1    3    3  502    0  0.24684090981E+02 -0.20578418980E+02 -0.86584211115E+02  0.92355840582E+02  0.00000000000E+00 0. -1.
         -1    1    3    3    0  502  0.13493612772E+03 -0.31409941480E+03 -0.47311316646E+03  0.58369706973E+03  0.00000000000E+00 0.  1.
         11    1    5    5    0    0 -0.27609943203E+02 -0.27336641884E+02 -0.14216359245E+02  0.41372766687E+02  0.00000000000E+00 0.  1.
        -11    1    5    5    0    0 -0.12720255245E+03 -0.43424747633E+02  0.11281441146E+03  0.17548016836E+03  0.00000000000E+00 0. -1.
          4    1    6    6  503    0  0.43198794402E+02  0.14743052121E+03  0.11703430300E+04  0.11803832862E+04  0.00000000000E+00 0. -1.
         -4    1    6    6    0  503 -0.48006517452E+02  0.25800870208E+03  0.18483886222E+04  0.18669262478E+04  0.00000000000E+00 0.  1.
<mgrwt>
<rscale>  0 0.29973011E+04</rscale>
<asrwt>0</asrwt>
<pdfrwt beam="1">  1        2 0.49983443E+00 0.29973011E+04</pdfrwt>
<pdfrwt beam="2">  1       -1 0.10635254E+00 0.29973011E+04</pdfrwt>
<totfact> 0.96721867E-01</totfact>
</mgrwt>
</event>
<event>
12    6  0.1586493E-007  0.1210737E+04  0.7818608E-02  0.9103510E-01
         -1   -1    0    0    0  501 -0.00000000000E+00  0.00000000000E+00  0.10146536990E+04  0.10146536990E+04  0.00000000000E+00 0.  1.
          2   -1    0    0  501    0  0.00000000000E+00 -0.00000000000E+00 -0.36117845214E+03  0.36117845214E+03  0.00000000000E+00 0. -1.
         24    2    1    2    0    0 -0.51574685211E+02 -0.51512074739E+02  0.43752298332E+03  0.45028805366E+03  0.77585619360E+02 0.  0.
        254    2    1    2    0    0  0.51574685211E+02  0.51512074739E+02  0.21595226349E+03  0.92554409744E+03  0.89704127787E+03 0.  0.
         23    2    4    4    0    0  0.10575953086E+03 -0.39570548938E+03  0.66928143249E+01  0.42059726266E+03  0.95338087381E+02 0.  0.
         23    2    4    4    0    0 -0.54184845652E+02  0.44721756412E+03  0.20925944916E+03  0.50494683478E+03  0.90786792729E+02 0.  0.
          4    1    3    3  502    0 -0.13043644043E+02  0.16754522882E+01  0.72213964858E+01  0.15003078268E+02  0.00000000000E+00 0. -1.
         -3    1    3    3    0  502 -0.38531041167E+02 -0.53187527028E+02  0.43030158684E+03  0.43528497539E+03  0.00000000000E+00 0.  1.
         11    1    5    5    0    0  0.12675216203E+02 -0.15056424116E+03 -0.34964958956E+02  0.15508965206E+03  0.00000000000E+00 0. -1.
        -11    1    5    5    0    0  0.93084314659E+02 -0.24514124822E+03  0.41657773281E+02  0.26550761061E+03  0.00000000000E+00 0.  1.
          2    1    6    6  503    0 -0.36730513825E+02  0.16781399523E+03  0.12546949942E+03  0.21272814324E+03  0.00000000000E+00 0. -1.
         -2    1    6    6    0  503 -0.17454331827E+02  0.27940356888E+03  0.83789949740E+02  0.29221869153E+03  0.00000000000E+00 0.  1.
<mgrwt>
<rscale>  0 0.12107371E+04</rscale>
<asrwt>0</asrwt>
<pdfrwt beam="1">  1        2 0.55565916E-01 0.12107371E+04</pdfrwt>
<pdfrwt beam="2">  1       -1 0.15610057E+00 0.12107371E+04</pdfrwt>
<totfact> 0.31521268E+01</totfact>
</mgrwt>
</event>
<event>
12    6  0.1586493E-007  0.1922578E+04  0.7818608E-02  0.8643699E-01
         -1   -1    0    0    0  501 -0.00000000000E+00  0.00000000000E+00  0.25382184657E+03  0.25382184657E+03  0.00000000000E+00 0.  1.
          2   -1    0    0  501    0  0.00000000000E+00 -0.00000000000E+00 -0.36406489449E+04  0.36406489449E+04  0.00000000000E+00 0. -1.
         24    2    1    2    0    0 -0.55437840818E+03 -0.40519232841E+03 -0.19137000520E+04  0.20347938491E+04  0.81374914203E+02 0.  0.
        254    2    1    2    0    0  0.55437840818E+03  0.40519232841E+03 -0.14731270463E+04  0.18596769424E+04  0.90375814963E+03 0.  0.
         23    2    4    4    0    0 -0.36657546217E+02 -0.21393797527E+03 -0.54677175584E+03  0.59526855365E+03  0.90950893478E+02 0.  0.
         23    2    4    4    0    0  0.59103595440E+03  0.61913030368E+03 -0.92635529048E+03  0.12644083888E+04  0.89155016696E+02 0.  0.
          4    1    3    3  502    0 -0.55072560686E+03 -0.38747350132E+03 -0.18652193485E+04  0.19830475603E+04  0.00000000000E+00 0. -1.
         -3    1    3    3    0  502 -0.36528013223E+01 -0.17718827092E+02 -0.48480703470E+02  0.51746288755E+02  0.00000000000E+00 0.  1.
         11    1    5    5    0    0  0.16692674217E+02 -0.53306487096E+02 -0.71344859454E+02  0.90610793559E+02  0.00000000000E+00 0. -1.
        -11    1    5    5    0    0 -0.53350220434E+02 -0.16063148817E+03 -0.47542689639E+03  0.50465776009E+03  0.00000000000E+00 0.  1.
          1    1    6    6  503    0  0.13351360874E+03  0.19004849003E+03 -0.22282011299E+03  0.32185884334E+03  0.00000000000E+00 0. -1.
         -1    1    6    6    0  503  0.45752234567E+03  0.42908181365E+03 -0.70353517749E+03  0.94254954541E+03  0.00000000000E+00 0.  1.
<mgrwt>
<rscale>  0 0.19225777E+04</rscale>
<asrwt>0</asrwt>
<pdfrwt beam="1">  1        2 0.56009983E+00 0.19225777E+04</pdfrwt>
<pdfrwt beam="2">  1       -1 0.39049516E-01 0.19225777E+04</pdfrwt>
<totfact> 0.44048401E+00</totfact>
</mgrwt>
</event>
<event>
12    6  0.1586493E-007  0.2564235E+04  0.7818608E-02  0.8380452E-01
         -1   -1    0    0    0  501 -0.00000000000E+00  0.00000000000E+00  0.10840747842E+04  0.10840747842E+04  0.00000000000E+00 0.  1.
          2   -1    0    0  501    0  0.00000000000E+00 -0.00000000000E+00 -0.15163390535E+04  0.15163390535E+04  0.00000000000E+00 0. -1.
         24    2    1    2    0    0 -0.10095416688E+04  0.17221819595E+03 -0.56046520476E+03  0.11701400681E+04  0.79202557661E+02 0.  0.
        254    2    1    2    0    0  0.10095416688E+04 -0.17221819595E+03  0.12820093544E+03  0.14302737697E+04  0.99015861769E+03 0.  0.
         23    2    4    4    0    0 -0.18197692004E+03 -0.89105368825E+02 -0.19668947357E+02  0.22320695462E+03  0.91537483694E+02 0.  0.
         23    2    4    4    0    0  0.11915185889E+04 -0.83112827122E+02  0.14786988280E+03  0.12070668150E+04  0.92306576494E+02 0.  0.
          2    1    3    3  502    0 -0.93161191295E+03  0.14867113646E+03 -0.53647553931E+03  0.10852694907E+04  0.00000000000E+00 0. -1.
         -3    1    3    3    0  502 -0.77929755881E+02  0.23547059490E+02 -0.23989665448E+02  0.84870577415E+02  0.00000000000E+00 0.  1.
         11    1    5    5    0    0 -0.50336891572E+02 -0.45759704626E+02 -0.46019736623E+02  0.82131415301E+02  0.00000000000E+00 0.  1.
        -11    1    5    5    0    0 -0.13164002847E+03 -0.43345664199E+02  0.26350789265E+02  0.14107553932E+03  0.00000000000E+00 0. -1.
          1    1    6    6  503    0  0.74736056253E+03 -0.68638257387E+02  0.50993843112E+02  0.75223626132E+03  0.00000000000E+00 0. -1.
         -1    1    6    6    0  503  0.44415802633E+03 -0.14474569735E+02  0.96876039687E+02  0.45483055371E+03  0.00000000000E+00 0.  1.
<mgrwt>
<rscale>  0 0.25642347E+04</rscale>
<asrwt>0</asrwt>
<pdfrwt beam="1">  1        2 0.23328293E+00 0.25642347E+04</pdfrwt>
<pdfrwt beam="2">  1       -1 0.16678074E+00 0.25642347E+04</pdfrwt>
<totfact> 0.32638459E+00</totfact>
</mgrwt>
</event>
<event>
12    6  0.1586493E-007  0.1866586E+04  0.7818608E-02  0.8671670E-01
          2   -1    0    0  501    0  0.00000000000E+00  0.00000000000E+00  0.35641609779E+03  0.35641609779E+03  0.00000000000E+00 0. -1.
         -1   -1    0    0    0  501 -0.00000000000E+00 -0.00000000000E+00 -0.24438742522E+04  0.24438742522E+04  0.00000000000E+00 0.  1.
         24    2    1    2    0    0  0.58470007525E+03  0.40321664791E+03 -0.93585439785E+03  0.11775839264E+04  0.80141166368E+02 0.  0.
        254    2    1    2    0    0 -0.58470007525E+03 -0.40321664791E+03 -0.11516037566E+04  0.16227064236E+04  0.89583875890E+03 0.  0.
         23    2    4    4    0    0  0.16250620189E+03  0.10076453899E+03 -0.37303714738E+03  0.42809881223E+03  0.86891436500E+02 0.  0.
         23    2    4    4    0    0 -0.74720627714E+03 -0.50398118691E+03 -0.77856660921E+03  0.11946076114E+04  0.92774581061E+02 0.  0.
          2    1    3    3  502    0  0.42421331323E+03  0.26643174899E+03 -0.60822650584E+03  0.78796084572E+03  0.00000000000E+00 0. -1.
         -1    1    3    3    0  502  0.16048676202E+03  0.13678489893E+03 -0.32762789201E+03  0.38962308066E+03  0.00000000000E+00 0.  1.
         11    1    5    5    0    0  0.15872866976E+03  0.71491227960E+02 -0.27286087367E+03  0.32366470715E+03  0.00000000000E+00 0. -1.
        -11    1    5    5    0    0  0.37775321255E+01  0.29273311033E+02 -0.10017627371E+03  0.10443410507E+03  0.00000000000E+00 0.  1.
          1    1    6    6  503    0 -0.74308089633E+03 -0.48803897550E+03 -0.75827100130E+03  0.11684717247E+04  0.00000000000E+00 0. -1.
         -1    1    6    6    0  503 -0.41253808129E+01 -0.15942211409E+02 -0.20295607917E+02  0.26135886673E+02  0.00000000000E+00 0.  1.
<mgrwt>
<rscale>  0 0.18665863E+04</rscale>
<asrwt>0</asrwt>
<pdfrwt beam="1">  1        2 0.54833245E-01 0.18665863E+04</pdfrwt>
<pdfrwt beam="2">  1       -1 0.37598066E+00 0.18665863E+04</pdfrwt>
<totfact> 0.10152572E+00</totfact>
</mgrwt>
</event>
<event>
12    6  0.1586493E-007  0.1777268E+04  0.7818608E-02  0.8718482E-01
          2   -1    0    0  501    0  0.00000000000E+00  0.00000000000E+00  0.24936752807E+04  0.24936752807E+04  0.00000000000E+00 0. -1.
         -1   -1    0    0    0  501 -0.00000000000E+00 -0.00000000000E+00 -0.31666935556E+03  0.31666935556E+03  0.00000000000E+00 0.  1.
         24    2    1    2    0    0  0.45196026815E+02 -0.65398453965E+03  0.68356033339E+03  0.95172734124E+03  0.93764298876E+02 0.  0.
        254    2    1    2    0    0 -0.45196026815E+02  0.65398453965E+03  0.14934455917E+04  0.18586172950E+04  0.89125756929E+03 0.  0.
         23    2    4    4    0    0 -0.43913777598E+03  0.49044741273E+03  0.81717797921E+03  0.10538689718E+04  0.97361742852E+02 0.  0.
         23    2    4    4    0    0  0.39394174917E+03  0.16353712692E+03  0.67626761252E+03  0.80474832323E+03  0.91364579486E+02 0.  0.
          2    1    3    3  502    0 -0.21793619087E+01 -0.37976583344E+03  0.34118701134E+03  0.51052464639E+03  0.00000000000E+00 0. -1.
         -1    1    3    3    0  502  0.47375388723E+02 -0.27421870621E+03  0.34237332205E+03  0.44120269485E+03  0.00000000000E+00 0.  1.
         11    1    5    5    0    0 -0.64976587511E+02  0.53572014401E+02  0.15778037919E+03  0.17884788427E+03  0.00000000000E+00 0.  1.
        -11    1    5    5    0    0 -0.37416118847E+03  0.43687539833E+03  0.65939760002E+03  0.87502108748E+03  0.00000000000E+00 0. -1.
          1    1    6    6  503    0  0.12089592277E+03  0.65309194141E+01  0.17774846185E+03  0.21506508954E+03  0.00000000000E+00 0. -1.
         -1    1    6    6    0  503  0.27304582640E+03  0.15700620751E+03  0.49851915067E+03  0.58968323369E+03  0.00000000000E+00 0.  1.
<mgrwt>
<rscale>  0 0.17772682E+04</rscale>
<asrwt>0</asrwt>
<pdfrwt beam="1">  1        2 0.38364234E+00 0.17772682E+04</pdfrwt>
<pdfrwt beam="2">  1       -1 0.48718364E-01 0.17772682E+04</pdfrwt>
<totfact> 0.15963115E+01</totfact>
</mgrwt>
</event>
<event>
12    6  0.1586493E-007  0.1133626E+04  0.7818608E-02  0.9173024E-01
          2   -1    0    0  501    0  0.00000000000E+00  0.00000000000E+00  0.28399574410E+04  0.28399574410E+04  0.00000000000E+00 0. -1.
         -1   -1    0    0    0  501 -0.00000000000E+00 -0.00000000000E+00 -0.11312732849E+03  0.11312732849E+03  0.00000000000E+00 0.  1.
         24    2    1    2    0    0 -0.10343658763E+03 -0.80491690381E+02  0.87504189267E+03  0.88879683740E+03  0.84163319625E+02 0.  0.
        254    2    1    2    0    0  0.10343658763E+03  0.80491690381E+02  0.18517882198E+04  0.20642879320E+04  0.90276631278E+03 0.  0.
         23    2    4    4    0    0  0.43105932263E+03  0.27545119752E+03  0.10809339446E+04  0.11993659316E+04  0.91514717188E+02 0.  0.
         23    2    4    4    0    0 -0.32762273500E+03 -0.19495950714E+03  0.77085427521E+03  0.86492200044E+03  0.92346561014E+02 0.  0.
          2    1    3    3  502    0 -0.89682643386E+02 -0.79969106594E+02  0.86021337115E+03  0.86856495349E+03  0.00000000000E+00 0. -1.
         -1    1    3    3    0  502 -0.13753944242E+02 -0.52258378629E+00  0.14828521521E+02  0.20231883909E+02  0.00000000000E+00 0.  1.
         11    1    5    5    0    0  0.33097010194E+03  0.25356321683E+03  0.88310659777E+03  0.97658219128E+03  0.00000000000E+00 0. -1.
        -11    1    5    5    0    0  0.10008922069E+03  0.21887980691E+02  0.19782734682E+03  0.22278374031E+03  0.00000000000E+00 0.  1.
          4    1    6    6  503    0 -0.16925486874E+03 -0.15364072616E+03  0.45221895022E+03  0.50670964296E+03  0.00000000000E+00 0. -1.
         -4    1    6    6    0  503 -0.15836786626E+03 -0.41318780978E+02  0.31863532498E+03  0.35821235748E+03  0.00000000000E+00 0.  1.
<mgrwt>
<rscale>  0 0.11336257E+04</rscale>
<asrwt>0</asrwt>
<pdfrwt beam="1">  1        2 0.43691647E+00 0.11336257E+04</pdfrwt>
<pdfrwt beam="2">  1       -1 0.17404207E-01 0.11336257E+04</pdfrwt>
<totfact> 0.64513210E+01</totfact>
</mgrwt>
</event>
<event>
12    6  0.1586493E-007  0.2128042E+04  0.7818608E-02  0.8548990E-01
         -1   -1    0    0    0  501 -0.00000000000E+00  0.00000000000E+00  0.53007023734E+03  0.53007023734E+03  0.00000000000E+00 0.  1.
          2   -1    0    0  501    0  0.00000000000E+00 -0.00000000000E+00 -0.21358316978E+04  0.21358316978E+04  0.00000000000E+00 0. -1.
         24    2    1    2    0    0  0.26803034517E+03  0.29873542421E+03  0.30391972981E+03  0.50944194891E+03  0.77979340457E+02 0.  0.
        254    2    1    2    0    0 -0.26803034517E+03 -0.29873542421E+03 -0.19096811902E+04  0.21564599862E+04  0.91779861848E+03 0.  0.
         23    2    4    4    0    0 -0.11338792049E+03  0.32318378278E+03 -0.68986377771E+03  0.77559948927E+03  0.91312419737E+02 0.  0.
         23    2    4    4    0    0 -0.15464242468E+03 -0.62191920699E+03 -0.12198174125E+04  0.13808604969E+04  0.90129975664E+02 0.  0.
          2    1    3    3  502    0  0.98781515579E+01  0.47910912476E+02  0.36356097504E+02  0.60949152892E+02  0.00000000000E+00 0. -1.
         -1    1    3    3    0  502  0.25815219361E+03  0.25082451173E+03  0.26756363230E+03  0.44849279602E+03  0.00000000000E+00 0.  1.
         11    1    5    5    0    0 -0.51238452886E+02  0.41707295643E+02 -0.12038154987E+03  0.13731931807E+03  0.00000000000E+00 0.  1.
        -11    1    5    5    0    0 -0.62149467607E+02  0.28147648714E+03 -0.56948222784E+03  0.63828017121E+03  0.00000000000E+00 0. -1.
          4    1    6    6  503    0 -0.14101595539E+03 -0.61383107309E+03 -0.12020382282E+04  0.13570445785E+04  0.00000000000E+00 0. -1.
         -4    1    6    6    0  503 -0.13626469288E+02 -0.80881339019E+01 -0.17779184348E+02  0.23815918444E+02  0.00000000000E+00 0.  1.
<mgrwt>
<rscale>  0 0.21280421E+04</rscale>
<asrwt>0</asrwt>
<pdfrwt beam="1">  1        2 0.32858949E+00 0.21280421E+04</pdfrwt>
<pdfrwt beam="2">  1       -1 0.81549268E-01 0.21280421E+04</pdfrwt>
<totfact> 0.87907520E+00</totfact>
</mgrwt>
</event>
<event>
12    6  0.1586493E-007  0.1246808E+04  0.7818608E-02  0.9072844E-01
         -1   -1    0    0    0  501 -0.00000000000E+00  0.00000000000E+00  0.23630110426E+03  0.23630110426E+03  0.00000000000E+00 0.  1.
          2   -1    0    0  501    0  0.00000000000E+00 -0.00000000000E+00 -0.16446501794E+04  0.16446501794E+04  0.00000000000E+00 0. -1.
         24    2    1    2    0    0 -0.19018449660E+03 -0.11261231542E+02 -0.66952220555E+03  0.70112113119E+03  0.83749022695E+02 0.  0.
        254    2    1    2    0    0  0.19018449660E+03  0.11261231542E+02 -0.73882686961E+03  0.11798301525E+04  0.89990948844E+03 0.  0.
         23    2    4    4    0    0  0.42809331239E+02  0.43770690744E+03 -0.27670536747E+03  0.52745654221E+03  0.90689403328E+02 0.  0.
         23    2    4    4    0    0  0.14737516536E+03 -0.42644567590E+03 -0.46212150214E+03  0.65237361027E+03  0.91976577361E+02 0.  0.
          4    1    3    3  502    0 -0.62844068306E+02 -0.34433857267E+02 -0.33171004444E+03  0.33936207954E+03  0.00000000000E+00 0. -1.
         -3    1    3    3    0  502 -0.12734042829E+03  0.23172625725E+02 -0.33781216111E+03  0.36175905165E+03  0.00000000000E+00 0.  1.
         11    1    5    5    0    0  0.54584764410E+02  0.27470742701E+03 -0.13394681132E+03  0.31046000584E+03  0.00000000000E+00 0.  1.
        -11    1    5    5    0    0 -0.11775433172E+02  0.16299948043E+03 -0.14275855614E+03  0.21699653637E+03  0.00000000000E+00 0. -1.
          3    1    6    6  503    0  0.55998552241E+02 -0.65499241153E+02 -0.11166695040E+03  0.14105139580E+03  0.00000000000E+00 0. -1.
         -3    1    6    6    0  503  0.91376613117E+02 -0.36094643475E+03 -0.35045455174E+03  0.51132221447E+03  0.00000000000E+00 0.  1.
<mgrwt>
<rscale>  0 0.12468082E+04</rscale>
<asrwt>0</asrwt>
<pdfrwt beam="1">  1        2 0.25302310E+00 0.12468082E+04</pdfrwt>
<pdfrwt beam="2">  1       -1 0.36354017E-01 0.12468082E+04</pdfrwt>
<totfact> 0.85500463E+01</totfact>
</mgrwt>
</event>
<event>
12    6  0.1586493E-007  0.1752816E+04  0.7818608E-02  0.8731802E-01
          2   -1    0    0  501    0  0.00000000000E+00  0.00000000000E+00  0.45230270566E+03  0.45230270566E+03  0.00000000000E+00 0. -1.
         -1   -1    0    0    0  501 -0.00000000000E+00 -0.00000000000E+00 -0.16981792680E+04  0.16981792680E+04  0.00000000000E+00 0.  1.
         24    2    1    2    0    0 -0.41930796754E+03  0.36390432419E+03 -0.61395566502E+02  0.56470994105E+03  0.82960069471E+02 0.  0.
        254    2    1    2    0    0  0.41930796754E+03 -0.36390432419E+03 -0.11844809958E+04  0.15857720326E+04  0.89634378512E+03 0.  0.
         23    2    4    4    0    0  0.47364078596E+03  0.16821790941E+03 -0.61235514096E+03  0.79767868691E+03  0.93164423060E+02 0.  0.
         23    2    4    4    0    0 -0.54332818422E+02 -0.53212223360E+03 -0.57212585488E+03  0.78809334571E+03  0.87504291734E+02 0.  0.
          4    1    3    3  502    0 -0.36518755430E+03  0.33768513451E+03 -0.33770974405E+02  0.49853152216E+03  0.00000000000E+00 0. -1.
         -3    1    3    3    0  502 -0.54120413245E+02  0.26219189680E+02 -0.27624592098E+02  0.66178418883E+02  0.00000000000E+00 0.  1.
         11    1    5    5    0    0  0.39757415760E+03  0.16594731172E+03 -0.55390161245E+03  0.70171982823E+03  0.00000000000E+00 0.  1.
        -11    1    5    5    0    0  0.76066628366E+02  0.22705976891E+01 -0.58453528510E+02  0.95958858685E+02  0.00000000000E+00 0. -1.
          3    1    6    6  503    0  0.21106996972E+02 -0.20078081656E+03 -0.20081571620E+03  0.28475497097E+03  0.00000000000E+00 0. -1.
         -3    1    6    6    0  503 -0.75439815394E+02 -0.33134141704E+03 -0.37131013868E+03  0.50333837474E+03  0.00000000000E+00 0.  1.
<mgrwt>
<rscale>  0 0.17528161E+04</rscale>
<asrwt>0</asrwt>
<pdfrwt beam="1">  1        2 0.69585031E-01 0.17528161E+04</pdfrwt>
<pdfrwt beam="2">  1       -1 0.26125835E+00 0.17528161E+04</pdfrwt>
<totfact> 0.44117873E+00</totfact>
</mgrwt>
</event>
<event>
12    6  0.1586493E-007  0.1590770E+04  0.7818608E-02  0.8826239E-01
         -1   -1    0    0    0  501 -0.00000000000E+00  0.00000000000E+00  0.32978600053E+04  0.32978600053E+04  0.00000000000E+00 0.  1.
          2   -1    0    0  501    0  0.00000000000E+00 -0.00000000000E+00 -0.19183259295E+03  0.19183259295E+03  0.00000000000E+00 0. -1.
         24    2    1    2    0    0 -0.47368716576E+03 -0.14428661594E+03  0.15063607281E+04  0.15880878092E+04  0.87761539774E+02 0.  0.
        254    2    1    2    0    0  0.47368716576E+03  0.14428661594E+03  0.15996666842E+04  0.19016047890E+04  0.90109328853E+03 0.  0.
         23    2    4    4    0    0  0.24415302892E+03 -0.30308526438E+02 -0.12633360899E+02  0.26111316860E+03  0.86551584050E+02 0.  0.
         23    2    4    4    0    0  0.22953413684E+03  0.17459514238E+03  0.16123000451E+04  0.16404916204E+04  0.92368488213E+02 0.  0.
          4    1    3    3  502    0 -0.64150168178E+02  0.22336644348E+01  0.13667210041E+03  0.15099502099E+03  0.00000000000E+00 0. -1.
         -3    1    3    3    0  502 -0.40953699758E+03 -0.14652028037E+03  0.13696886277E+04  0.14370927882E+04  0.00000000000E+00 0.  1.
         11    1    5    5    0    0  0.24372994987E+03 -0.13711978057E+02 -0.13502485167E+02  0.24448849444E+03  0.00000000000E+00 0. -1.
        -11    1    5    5    0    0  0.42307905224E+00 -0.16596548381E+02  0.86912426776E+00  0.16624674163E+02  0.00000000000E+00 0.  1.
          4    1    6    6  503    0  0.13714911922E+03  0.72402207704E+02  0.10591847421E+04  0.10704785278E+04  0.00000000000E+00 0. -1.
         -4    1    6    6    0  503  0.92385017621E+02  0.10219293467E+03  0.55311530300E+03  0.57001309265E+03  0.00000000000E+00 0.  1.
<mgrwt>
<rscale>  0 0.15907697E+04</rscale>
<asrwt>0</asrwt>
<pdfrwt beam="1">  1        2 0.29512709E-01 0.15907697E+04</pdfrwt>
<pdfrwt beam="2">  1       -1 0.50736304E+00 0.15907697E+04</pdfrwt>
<totfact> 0.26604314E-01</totfact>
</mgrwt>
</event>
<event>
12    6  0.1586493E-007  0.1099440E+04  0.7818608E-02  0.9205737E-01
          2   -1    0    0  501    0  0.00000000000E+00  0.00000000000E+00  0.72514877678E+03  0.72514877678E+03  0.00000000000E+00 0. -1.
         -1   -1    0    0    0  501 -0.00000000000E+00 -0.00000000000E+00 -0.41673148250E+03  0.41673148250E+03  0.00000000000E+00 0.  1.
         24    2    1    2    0    0 -0.19683730505E+03 -0.15792326905E+03  0.94188094893E+02  0.28088170854E+03  0.79614404491E+02 0.  0.
        254    2    1    2    0    0  0.19683730505E+03  0.15792326905E+03  0.21422919939E+03  0.86099855074E+03  0.79482052750E+03 0.  0.
         23    2    4    4    0    0 -0.26425827743E+03  0.27734560829E+00  0.23300668633E+03  0.36402313733E+03  0.91587196275E+02 0.  0.
         23    2    4    4    0    0  0.46109558249E+03  0.15764592344E+03 -0.18777486944E+02  0.49697541341E+03  0.95763219186E+02 0.  0.
          2    1    3    3  502    0 -0.55531774449E+02 -0.88200166258E+01  0.38159976203E+02  0.67954061325E+02  0.00000000000E+00 0. -1.
         -1    1    3    3    0  502 -0.14130553060E+03 -0.14910325243E+03  0.56028118689E+02  0.21292764721E+03  0.00000000000E+00 0.  1.
         11    1    5    5    0    0 -0.17340037723E+03  0.42647454349E+02  0.16271988450E+03  0.24158695536E+03  0.00000000000E+00 0.  1.
        -11    1    5    5    0    0 -0.90857900204E+02 -0.42370108741E+02  0.70286801826E+02  0.12243618197E+03  0.00000000000E+00 0. -1.
          4    1    6    6  503    0  0.39415635911E+02  0.56284372585E+00  0.22000896513E+02  0.45143644012E+02  0.00000000000E+00 0. -1.
         -4    1    6    6    0  503  0.42167994658E+03  0.15708307972E+03 -0.40778383457E+02  0.45183176940E+03  0.00000000000E+00 0.  1.
<mgrwt>
<rscale>  0 0.10994404E+04</rscale>
<asrwt>0</asrwt>
<pdfrwt beam="1">  1        2 0.11156135E+00 0.10994404E+04</pdfrwt>
<pdfrwt beam="2">  1       -1 0.64112536E-01 0.10994404E+04</pdfrwt>
<totfact> 0.10959097E+02</totfact>
</mgrwt>
</event>
<event>
12    6  0.1586493E-007  0.1281841E+04  0.7818608E-02  0.9044091E-01
          2   -1    0    0  501    0  0.00000000000E+00  0.00000000000E+00  0.11962271900E+04  0.11962271900E+04  0.00000000000E+00 0. -1.
         -1   -1    0    0    0  501 -0.00000000000E+00 -0.00000000000E+00 -0.34339553188E+03  0.34339553188E+03  0.00000000000E+00 0.  1.
         24    2    1    2    0    0 -0.31700768181E+03 -0.15365216588E+02  0.27988989305E+03  0.42888733892E+03  0.69828626286E+02 0.  0.
        254    2    1    2    0    0  0.31700768181E+03  0.15365216588E+02  0.57294176507E+03  0.11107353829E+04  0.89707350009E+03 0.  0.
         23    2    4    4    0    0 -0.19764049668E+03  0.26573304834E+03  0.34904015660E+03  0.48944862313E+03  0.89750235950E+02 0.  0.
         23    2    4    4    0    0  0.51464817849E+03 -0.25036783175E+03  0.22390160846E+03  0.62128675982E+03  0.91205859738E+02 0.  0.
          4    1    3    3  502    0 -0.11726957043E+03  0.11480788974E+02  0.66197678598E+02  0.13515211177E+03  0.00000000000E+00 0. -1.
         -1    1    3    3    0  502 -0.19973811138E+03 -0.26846005562E+02  0.21369221445E+03  0.29373522715E+03  0.00000000000E+00 0.  1.
         11    1    5    5    0    0 -0.77909827640E+02  0.11063033056E+03  0.81943231283E+02  0.15818882525E+03  0.00000000000E+00 0. -1.
        -11    1    5    5    0    0 -0.11973066904E+03  0.15510271778E+03  0.26709692532E+03  0.33125979787E+03  0.00000000000E+00 0.  1.
          2    1    6    6  503    0  0.29802611742E+03 -0.16153306213E+03  0.17733705042E+03  0.38257146558E+03  0.00000000000E+00 0. -1.
         -2    1    6    6    0  503  0.21662206107E+03 -0.88834769618E+02  0.46564558045E+02  0.23871529423E+03  0.00000000000E+00 0.  1.
<mgrwt>
<rscale>  0 0.12818410E+04</rscale>
<asrwt>0</asrwt>
<pdfrwt beam="1">  1        2 0.18403495E+00 0.12818410E+04</pdfrwt>
<pdfrwt beam="2">  1       -1 0.52830082E-01 0.12818410E+04</pdfrwt>
<totfact> 0.76928852E+01</totfact>
</mgrwt>
</event>
<event>
12    6  0.1586493E-007  0.1730345E+04  0.7818608E-02  0.8744244E-01
          2   -1    0    0  501    0  0.00000000000E+00  0.00000000000E+00  0.32123344826E+04  0.32123344826E+04  0.00000000000E+00 0. -1.
         -1   -1    0    0    0  501 -0.00000000000E+00 -0.00000000000E+00 -0.23301535787E+03  0.23301535787E+03  0.00000000000E+00 0.  1.
         24    2    1    2    0    0 -0.60586072088E+03 -0.12301033401E+03  0.10464881167E+04  0.12181333691E+04  0.80701741350E+02 0.  0.
        254    2    1    2    0    0  0.60586072088E+03  0.12301033401E+03  0.19328310081E+04  0.22272164714E+04  0.91785551668E+03 0.  0.
         23    2    4    4    0    0 -0.16227547195E+03 -0.92913993294E+02  0.87248390642E+03  0.89704959572E+03  0.92214268253E+02 0.  0.
         23    2    4    4    0    0  0.76813619283E+03  0.21592432731E+03  0.10603471017E+04  0.13301668757E+04  0.91386078959E+02 0.  0.
          4    1    3    3  502    0 -0.28306702406E+03 -0.51637714965E+02  0.56543102681E+03  0.63443332179E+03  0.00000000000E+00 0. -1.
         -3    1    3    3    0  502 -0.32279369682E+03 -0.71372619047E+02  0.48105708989E+03  0.58370004728E+03  0.00000000000E+00 0.  1.
         11    1    5    5    0    0 -0.11376997984E+03 -0.10214684658E+03  0.74077313296E+03  0.75638774521E+03  0.00000000000E+00 0.  1.
        -11    1    5    5    0    0 -0.48505492110E+02  0.92328532852E+01  0.13171077346E+03  0.14066185051E+03  0.00000000000E+00 0. -1.
          2    1    6    6  503    0  0.30643295788E+03  0.10529134897E+03  0.49895860321E+03  0.59493454561E+03  0.00000000000E+00 0. -1.
         -2    1    6    6    0  503  0.46170323495E+03  0.11063297833E+03  0.56138849844E+03  0.73523233011E+03  0.00000000000E+00 0.  1.
<mgrwt>
<rscale>  0 0.17303448E+04</rscale>
<asrwt>0</asrwt>
<pdfrwt beam="1">  1        2 0.49420527E+00 0.17303448E+04</pdfrwt>
<pdfrwt beam="2">  1       -1 0.35848519E-01 0.17303448E+04</pdfrwt>
<totfact> 0.10290733E+01</totfact>
</mgrwt>
</event>
<event>
12    6  0.1586493E-007  0.1978767E+04  0.7818608E-02  0.8616612E-01
         -1   -1    0    0    0  501 -0.00000000000E+00  0.00000000000E+00  0.10936108351E+04  0.10936108351E+04  0.00000000000E+00 0.  1.
          2   -1    0    0  501    0  0.00000000000E+00 -0.00000000000E+00 -0.89508986648E+03  0.89508986648E+03  0.00000000000E+00 0. -1.
         24    2    1    2    0    0 -0.68046334040E+02  0.76188075663E+03  0.22895100722E+03  0.80241839231E+03  0.79775445600E+02 0.  0.
        254    2    1    2    0    0  0.68046334040E+02 -0.76188075663E+03 -0.30430038649E+02  0.11862823092E+04  0.90622686951E+03 0.  0.
         23    2    4    4    0    0  0.24494042713E+03  0.96128448652E+01  0.22928376863E+03  0.34808486714E+03  0.92216096991E+02 0.  0.
         23    2    4    4    0    0 -0.17689409309E+03 -0.77149360149E+03 -0.25971380728E+03  0.83819744208E+03  0.92896678655E+02 0.  0.
          4    1    3    3  502    0  0.77368627695E+01  0.14993853817E+03  0.20557910216E+02  0.15153894531E+03  0.00000000000E+00 0. -1.
         -3    1    3    3    0  502 -0.75783196809E+02  0.61194221846E+03  0.20839309701E+03  0.65087944700E+03  0.00000000000E+00 0.  1.
         11    1    5    5    0    0  0.14782892450E+03  0.50917342116E+02  0.13889635187E+03  0.20913670938E+03  0.00000000000E+00 0. -1.
        -11    1    5    5    0    0  0.97111502636E+02 -0.41304497250E+02  0.90387416759E+02  0.13894815776E+03  0.00000000000E+00 0.  1.
          1    1    6    6  503    0 -0.11266914711E+03 -0.64757787340E+03 -0.20999766900E+03  0.69003656411E+03  0.00000000000E+00 0. -1.
         -1    1    6    6    0  503 -0.64224945979E+02 -0.12391572809E+03 -0.49716138283E+02  0.14816087797E+03  0.00000000000E+00 0.  1.
<mgrwt>
<rscale>  0 0.19787673E+04</rscale>
<asrwt>0</asrwt>
<pdfrwt beam="1">  1        2 0.13770613E+00 0.19787673E+04</pdfrwt>
<pdfrwt beam="2">  1       -1 0.16824782E+00 0.19787673E+04</pdfrwt>
<totfact> 0.79537532E+00</totfact>
</mgrwt>
</event>
<event>
12    6  0.1586493E-007  0.2304337E+04  0.7818608E-02  0.8476213E-01
         -1   -1    0    0    0  501 -0.00000000000E+00  0.00000000000E+00  0.76235572279E+03  0.76235572279E+03  0.00000000000E+00 0.  1.
          2   -1    0    0  501    0  0.00000000000E+00 -0.00000000000E+00 -0.17413027321E+04  0.17413027321E+04  0.00000000000E+00 0. -1.
         24    2    1    2    0    0  0.94022808668E+03  0.24397456098E+03 -0.26942494975E+03  0.10112082757E+04  0.79999573901E+02 0.  0.
        254    2    1    2    0    0 -0.94022808668E+03 -0.24397456098E+03 -0.70952205954E+03  0.14924501792E+04  0.88342149798E+03 0.  0.
         23    2    4    4    0    0 -0.97974369273E+02  0.82794324647E+02  0.16788741446E+03  0.22980271670E+03  0.90383778634E+02 0.  0.
         23    2    4    4    0    0 -0.84225371741E+03 -0.32676888562E+03 -0.87740947400E+03  0.12626474625E+04  0.90895546948E+02 0.  0.
          2    1    3    3  502    0  0.19533804278E+03  0.82213578934E+02 -0.71633473613E+02  0.22371271323E+03  0.00000000000E+00 0. -1.
         -1    1    3    3    0  502  0.74489004390E+03  0.16176098204E+03 -0.19779147614E+03  0.78749556243E+03  0.00000000000E+00 0.  1.
         11    1    5    5    0    0  0.28703642348E+01 -0.11839876359E+02 -0.13869528975E+00  0.12183632440E+02  0.00000000000E+00 0. -1.
        -11    1    5    5    0    0 -0.10084473351E+03  0.94634201006E+02  0.16802610975E+03  0.21761908426E+03  0.00000000000E+00 0.  1.
          1    1    6    6  503    0 -0.42731728845E+03 -0.15400930144E+03 -0.37966616288E+03  0.59200111924E+03  0.00000000000E+00 0. -1.
         -1    1    6    6    0  503 -0.41493642895E+03 -0.17275958419E+03 -0.49774331112E+03  0.67064634329E+03  0.00000000000E+00 0.  1.
<mgrwt>
<rscale>  0 0.23043369E+04</rscale>
<asrwt>0</asrwt>
<pdfrwt beam="1">  1        2 0.26789273E+00 0.23043369E+04</pdfrwt>
<pdfrwt beam="2">  1       -1 0.11728550E+00 0.23043369E+04</pdfrwt>
<totfact> 0.62828697E+00</totfact>
</mgrwt>
</event>
<event>
12    6  0.1586493E-007  0.1851951E+04  0.7818608E-02  0.8679150E-01
          2   -1    0    0  501    0  0.00000000000E+00  0.00000000000E+00  0.17771069632E+04  0.17771069632E+04  0.00000000000E+00 0. -1.
         -1   -1    0    0    0  501 -0.00000000000E+00 -0.00000000000E+00 -0.48248678394E+03  0.48248678394E+03  0.00000000000E+00 0.  1.
         24    2    1    2    0    0 -0.61300992469E+03  0.18602676878E+03  0.13532159201E+03  0.65957753842E+03  0.79645900478E+02 0.  0.
        254    2    1    2    0    0  0.61300992469E+03 -0.18602676878E+03  0.11592985872E+04  0.16000162087E+04  0.89760321259E+03 0.  0.
         23    2    4    4    0    0  0.29596905445E+03  0.21303518167E+03  0.54488658690E+02  0.37985941501E+03  0.91337240067E+02 0.  0.
         23    2    4    4    0    0  0.31704087024E+03 -0.39906195045E+03  0.11048099285E+04  0.12201567937E+04  0.91718423828E+02 0.  0.
          4    1    3    3  502    0 -0.31275308555E+03  0.76025943591E+02  0.31619995713E+02  0.32341035968E+03  0.00000000000E+00 0. -1.
         -3    1    3    3    0  502 -0.30025683914E+03  0.11000082519E+03  0.10370159629E+03  0.33616717875E+03  0.00000000000E+00 0.  1.
         11    1    5    5    0    0  0.24277405258E+03  0.17529329022E+03  0.76182617351E+01  0.29954134292E+03  0.00000000000E+00 0. -1.
        -11    1    5    5    0    0  0.53195001865E+02  0.37741891450E+02  0.46870396955E+02  0.80318072091E+02  0.00000000000E+00 0.  1.
          4    1    6    6  503    0 -0.33056315653E+00 -0.35303359094E+01 -0.93702163665E+00  0.36674995816E+01  0.00000000000E+00 0.  1.
         -4    1    6    6    0  503  0.31737143339E+03 -0.39553161454E+03  0.11057469502E+04  0.12164892941E+04  0.00000000000E+00 0. -1.
<mgrwt>
<rscale>  0 0.18519510E+04</rscale>
<asrwt>0</asrwt>
<pdfrwt beam="1">  1        2 0.27340107E+00 0.18519510E+04</pdfrwt>
<pdfrwt beam="2">  1       -1 0.74228737E-01 0.18519510E+04</pdfrwt>
<totfact> 0.17381324E+01</totfact>
</mgrwt>
</event>
<event>
12    6  0.1586493E-007  0.1533728E+04  0.7818608E-02  0.8862329E-01
          2   -1    0    0  501    0  0.00000000000E+00  0.00000000000E+00  0.24647000425E+04  0.24647000425E+04  0.00000000000E+00 0. -1.
         -1   -1    0    0    0  501 -0.00000000000E+00 -0.00000000000E+00 -0.23860129816E+03  0.23860129816E+03  0.00000000000E+00 0.  1.
         24    2    1    2    0    0 -0.22910670391E+03  0.28545952459E+03  0.13527312821E+03  0.39841834829E+03  0.80382455087E+02 0.  0.
        254    2    1    2    0    0  0.22910670391E+03 -0.28545952459E+03  0.20908256162E+04  0.23048829924E+04  0.89830775878E+03 0.  0.
         23    2    4    4    0    0 -0.29652440108E+03  0.34428332748E+02  0.10148852907E+04  0.10619179362E+04  0.92550090481E+02 0.  0.
         23    2    4    4    0    0  0.52563110499E+03 -0.31988785734E+03  0.10759403254E+04  0.12429650562E+04  0.93264394841E+02 0.  0.
          4    1    3    3  502    0 -0.29989495233E+02  0.93356218750E+02  0.37071323833E+02  0.10482860513E+03  0.00000000000E+00 0. -1.
         -3    1    3    3    0  502 -0.19911720867E+03  0.19210330584E+03  0.98201804380E+02  0.29358974316E+03  0.00000000000E+00 0.  1.
         11    1    5    5    0    0 -0.21078971297E+03 -0.18090642830E+02  0.71340972456E+03  0.74411894852E+03  0.00000000000E+00 0. -1.
        -11    1    5    5    0    0 -0.85734688107E+02  0.52518975578E+02  0.30147556619E+03  0.31779898765E+03  0.00000000000E+00 0.  1.
          4    1    6    6  503    0  0.30569325774E+03 -0.18402465542E+03  0.53007628322E+03  0.63897911364E+03  0.00000000000E+00 0. -1.
         -4    1    6    6    0  503  0.21993784724E+03 -0.13586320192E+03  0.54586404218E+03  0.60398594258E+03  0.00000000000E+00 0.  1.
<mgrwt>
<rscale>  0 0.15337283E+04</rscale>
<asrwt>0</asrwt>
<pdfrwt beam="1">  1        2 0.37918460E+00 0.15337283E+04</pdfrwt>
<pdfrwt beam="2">  1       -1 0.36707894E-01 0.15337283E+04</pdfrwt>
<totfact> 0.28586758E+01</totfact>
</mgrwt>
</event>
<event>
12    6  0.1586493E-007  0.2174122E+04  0.7818608E-02  0.8529277E-01
          2   -1    0    0  501    0  0.00000000000E+00  0.00000000000E+00  0.12226399343E+04  0.12226399343E+04  0.00000000000E+00 0. -1.
         -1   -1    0    0    0  501 -0.00000000000E+00 -0.00000000000E+00 -0.96651682614E+03  0.96651682614E+03  0.00000000000E+00 0.  1.
         24    2    1    2    0    0  0.48946751527E+03 -0.74831468791E+03  0.20996058029E+03  0.92193928782E+03  0.79594500424E+02 0.  0.
        254    2    1    2    0    0 -0.48946751527E+03  0.74831468791E+03  0.46162527918E+02  0.12672174727E+04  0.89674735763E+03 0.  0.
         23    2    4    4    0    0 -0.38624772223E+03  0.15185959529E+03 -0.33929149045E+03  0.54378929407E+03  0.91320541182E+02 0.  0.
         23    2    4    4    0    0 -0.10321979304E+03  0.59645509262E+03  0.38545401837E+03  0.72342817860E+03  0.91435912681E+02 0.  0.
          2    1    3    3  502    0  0.42969455279E+03 -0.66335541821E+03  0.21103421314E+03  0.81805455728E+03  0.00000000000E+00 0. -1.
         -1    1    3    3    0  502  0.59772962473E+02 -0.84959269698E+02 -0.10736328553E+01  0.10388473053E+03  0.00000000000E+00 0.  1.
         11    1    5    5    0    0 -0.30339158153E+03  0.15501242784E+03 -0.28939550378E+03  0.44701796623E+03  0.00000000000E+00 0. -1.
        -11    1    5    5    0    0 -0.82856140703E+02 -0.31528325525E+01 -0.49895986674E+02  0.96771327838E+02  0.00000000000E+00 0.  1.
          1    1    6    6  503    0 -0.86867419553E+02  0.48520775169E+03  0.35336062996E+03  0.60649505001E+03  0.00000000000E+00 0. -1.
         -1    1    6    6    0  503 -0.16352373482E+02  0.11124734093E+03  0.32093388412E+02  0.11693312859E+03  0.00000000000E+00 0.  1.
<mgrwt>
<rscale>  0 0.21741224E+04</rscale>
<asrwt>0</asrwt>
<pdfrwt beam="1">  1        2 0.18809845E+00 0.21741224E+04</pdfrwt>
<pdfrwt beam="2">  1       -1 0.14869490E+00 0.21741224E+04</pdfrwt>
<totfact> 0.68488920E+00</totfact>
</mgrwt>
</event>
<event>
12    6  0.1586493E-007  0.1216865E+04  0.7818608E-02  0.9098221E-01
          2   -1    0    0  501    0  0.00000000000E+00  0.00000000000E+00  0.34937650735E+03  0.34937650735E+03  0.00000000000E+00 0. -1.
         -1   -1    0    0    0  501 -0.00000000000E+00 -0.00000000000E+00 -0.10595742576E+04  0.10595742576E+04  0.00000000000E+00 0.  1.
         24    2    1    2    0    0  0.42615836326E+02  0.46742221403E+02 -0.46423477419E+03  0.47547219554E+03  0.80987273072E+02 0.  0.
        254    2    1    2    0    0 -0.42615836326E+02 -0.46742221403E+02 -0.24596297610E+03  0.93347856946E+03  0.89826694766E+03 0.  0.
         23    2    4    4    0    0 -0.12576541198E+03 -0.47473025220E+02 -0.56670721862E+03  0.58955191152E+03  0.91344172078E+02 0.  0.
         23    2    4    4    0    0  0.83149575651E+02  0.73080381732E+00  0.32074424251E+03  0.34392665794E+03  0.92164477600E+02 0.  0.
          2    1    3    3  502    0 -0.52317687121E+01 -0.19111719466E+02 -0.12797884380E+03  0.12950372074E+03  0.00000000000E+00 0. -1.
         -1    1    3    3    0  502  0.47847605038E+02  0.65853940869E+02 -0.33625593039E+03  0.34596847481E+03  0.00000000000E+00 0.  1.
         11    1    5    5    0    0 -0.12170664083E+03 -0.66881333485E+02 -0.44273974497E+03  0.46400872941E+03  0.00000000000E+00 0.  1.
        -11    1    5    5    0    0 -0.40587711502E+01  0.19408308265E+02 -0.12396747365E+03  0.12554318211E+03  0.00000000000E+00 0. -1.
          3    1    6    6  503    0 -0.14662292523E+01 -0.32534669486E+02  0.10081700083E+03  0.10594678949E+03  0.00000000000E+00 0. -1.
         -3    1    6    6    0  503  0.84615804903E+02  0.33265473303E+02  0.21992724169E+03  0.23797986845E+03  0.00000000000E+00 0.  1.
<mgrwt>
<rscale>  0 0.12168654E+04</rscale>
<asrwt>0</asrwt>
<pdfrwt beam="1">  1        2 0.53750232E-01 0.12168654E+04</pdfrwt>
<pdfrwt beam="2">  1       -1 0.16301142E+00 0.12168654E+04</pdfrwt>
<totfact> 0.28984480E+01</totfact>
</mgrwt>
</event>
<event>
12    6  0.1586493E-007  0.1269172E+04  0.7818608E-02  0.9054375E-01
         -1   -1    0    0    0  501 -0.00000000000E+00  0.00000000000E+00  0.82734176055E+03  0.82734176055E+03  0.00000000000E+00 0.  1.
          2   -1    0    0  501    0  0.00000000000E+00 -0.00000000000E+00 -0.48673921293E+03  0.48673921293E+03  0.00000000000E+00 0. -1.
         24    2    1    2    0    0  0.18212812191E+03 -0.23050970346E+03  0.15162377758E+03  0.34089265710E+03  0.83142393288E+02 0.  0.
        254    2    1    2    0    0 -0.18212812191E+03  0.23050970346E+03  0.18897877004E+03  0.97318831638E+03  0.90833757350E+03 0.  0.
         23    2    4    4    0    0 -0.24353804105E+03  0.15722867241E+03  0.52855268630E+03  0.60955980127E+03  0.90352511136E+02 0.  0.
         23    2    4    4    0    0  0.61409919140E+02  0.73281031042E+02 -0.33957391626E+03  0.36362851510E+03  0.88170089683E+02 0.  0.
          4    1    3    3  502    0  0.12135651490E+03 -0.16694806724E+03  0.14592151042E+03  0.25276896183E+03  0.00000000000E+00 0. -1.
         -3    1    3    3    0  502  0.60771607010E+02 -0.63561636220E+02  0.57022671605E+01  0.88123695272E+02  0.00000000000E+00 0.  1.
         11    1    5    5    0    0 -0.82889578772E+02  0.65710101671E+02  0.28345323032E+03  0.30254625020E+03  0.00000000000E+00 0.  1.
        -11    1    5    5    0    0 -0.16064846228E+03  0.91518570743E+02  0.24509945598E+03  0.30701355107E+03  0.00000000000E+00 0. -1.
          2    1    6    6  503    0  0.59250564088E+02  0.84946330892E+01 -0.11185864253E+03  0.12686663882E+03  0.00000000000E+00 0. -1.
         -2    1    6    6    0  503  0.21593550519E+01  0.64786397953E+02 -0.22771527373E+03  0.23676187629E+03  0.00000000000E+00 0.  1.
<mgrwt>
<rscale>  0 0.12691725E+04</rscale>
<asrwt>0</asrwt>
<pdfrwt beam="1">  1        2 0.74882956E-01 0.12691725E+04</pdfrwt>
<pdfrwt beam="2">  1       -1 0.12728335E+00 0.12691725E+04</pdfrwt>
<totfact> 0.38185265E+01</totfact>
</mgrwt>
</event>
<event>
12    6  0.1586493E-007  0.1600527E+04  0.7818608E-02  0.8820224E-01
         -3   -1    0    0    0  501 -0.00000000000E+00  0.00000000000E+00  0.17008844503E+04  0.17008844503E+04  0.00000000000E+00 0.  1.
          4   -1    0    0  501    0  0.00000000000E+00 -0.00000000000E+00 -0.37652279604E+03  0.37652279604E+03  0.00000000000E+00 0. -1.
         24    2    1    2    0    0  0.47118443658E+01  0.16089581691E+03  0.11364807105E+04  0.11505286415E+04  0.78854829874E+02 0.  0.
        254    2    1    2    0    0 -0.47118443658E+01 -0.16089581691E+03  0.18788094378E+03  0.92687860486E+03  0.89324970402E+03 0.  0.
         23    2    4    4    0    0 -0.36658122042E+03 -0.18963658700E+03 -0.12378676977E+03  0.44038679159E+03  0.90958977272E+02 0.  0.
         23    2    4    4    0    0  0.36186937605E+03  0.28740770092E+02  0.31166771356E+03  0.48649181327E+03  0.88102460347E+02 0.  0.
          2    1    3    3  502    0  0.34783862556E+02  0.72898940355E+02  0.38989598696E+03  0.39817465169E+03  0.00000000000E+00 0. -1.
         -1    1    3    3    0  502 -0.30072018190E+02  0.87996876552E+02  0.74658472353E+03  0.75235398980E+03  0.00000000000E+00 0.  1.
         11    1    5    5    0    0 -0.12382623328E+03 -0.72153974012E+02 -0.88401425063E+02  0.16838629388E+03  0.00000000000E+00 0. -1.
        -11    1    5    5    0    0 -0.24275498713E+03 -0.11748261299E+03 -0.35385344709E+02  0.27200049771E+03  0.00000000000E+00 0.  1.
          4    1    6    6  503    0  0.40523958478E+02 -0.25129315079E+02  0.37597662336E+02  0.60722795556E+02  0.00000000000E+00 0. -1.
         -4    1    6    6    0  503  0.32134541757E+03  0.53870085170E+02  0.27407005122E+03  0.42576901772E+03  0.00000000000E+00 0.  1.
<mgrwt>
<rscale>  0 0.16005271E+04</rscale>
<asrwt>0</asrwt>
<pdfrwt beam="1">  1        4 0.57926585E-01 0.16005271E+04</pdfrwt>
<pdfrwt beam="2">  1       -3 0.26167453E+00 0.16005271E+04</pdfrwt>
<totfact> 0.38972973E-01</totfact>
</mgrwt>
</event>
<event>
12    6  0.1586493E-007  0.3230575E+04  0.7818608E-02  0.8180789E-01
          2   -1    0    0  501    0  0.00000000000E+00  0.00000000000E+00  0.18971695300E+04  0.18971695300E+04  0.00000000000E+00 0. -1.
         -1   -1    0    0    0  501 -0.00000000000E+00 -0.00000000000E+00 -0.13752878549E+04  0.13752878549E+04  0.00000000000E+00 0.  1.
         24    2    1    2    0    0 -0.32056574975E+03  0.11570750305E+04  0.11289668416E+04  0.16503060069E+04  0.85783220375E+02 0.  0.
        254    2    1    2    0    0  0.32056574975E+03 -0.11570750305E+04 -0.60708516648E+03  0.16221513780E+04  0.90622164376E+03 0.  0.
         23    2    4    4    0    0 -0.29034955985E+03 -0.41122702548E+03 -0.35132466204E+03  0.62067462466E+03  0.91637536755E+02 0.  0.
         23    2    4    4    0    0  0.61091530959E+03 -0.74584800501E+03 -0.25576050444E+03  0.10014767533E+04  0.89640893250E+02 0.  0.
          2    1    3    3  502    0 -0.22230680117E+03  0.89464965399E+03  0.90147952602E+03  0.12893733567E+04  0.00000000000E+00 0. -1.
         -3    1    3    3    0  502 -0.98258948571E+02  0.26242537651E+03  0.22748731557E+03  0.36093265017E+03  0.00000000000E+00 0.  1.
         11    1    5    5    0    0 -0.21886276282E+03 -0.27284436447E+03 -0.19713222495E+03  0.40150475748E+03  0.00000000000E+00 0. -1.
        -11    1    5    5    0    0 -0.71486797033E+02 -0.13838266102E+03 -0.15419243710E+03  0.21916986717E+03  0.00000000000E+00 0.  1.
          1    1    6    6  503    0  0.26580920334E+02 -0.62521386153E+02 -0.53049390810E+01  0.68144049123E+02  0.00000000000E+00 0. -1.
         -1    1    6    6    0  503  0.58433438926E+03 -0.68332661886E+03 -0.25045556536E+03  0.93333270420E+03  0.00000000000E+00 0.  1.
<mgrwt>
<rscale>  0 0.32305753E+04</rscale>
<asrwt>0</asrwt>
<pdfrwt beam="1">  1        2 0.29187224E+00 0.32305753E+04</pdfrwt>
<pdfrwt beam="2">  1       -1 0.21158275E+00 0.32305753E+04</pdfrwt>
<totfact> 0.91338319E-01</totfact>
</mgrwt>
</event>
<event>
12    6  0.1586493E-007  0.1304030E+04  0.7818608E-02  0.9026375E-01
         -1   -1    0    0    0  501 -0.00000000000E+00  0.00000000000E+00  0.27831762687E+03  0.27831762687E+03  0.00000000000E+00 0.  1.
          2   -1    0    0  501    0  0.00000000000E+00 -0.00000000000E+00 -0.15274771892E+04  0.15274771892E+04  0.00000000000E+00 0. -1.
         24    2    1    2    0    0 -0.32708118650E+03  0.10606751687E+02 -0.24385066822E+03  0.41572679071E+03  0.79189711320E+02 0.  0.
        254    2    1    2    0    0  0.32708118650E+03 -0.10606751687E+02 -0.10053088941E+04  0.13900680253E+04  0.90252342730E+03 0.  0.
         23    2    4    4    0    0  0.41021284516E+02 -0.24656525892E+03 -0.97030526326E+03  0.10061385945E+04  0.91353132588E+02 0.  0.
         23    2    4    4    0    0  0.28605990198E+03  0.23595850723E+03 -0.35003630816E+02  0.38392943079E+03  0.93112131343E+02 0.  0.
          4    1    3    3  502    0 -0.16353262137E+03 -0.11570014595E+02 -0.16576678377E+03  0.23314246738E+03  0.00000000000E+00 0. -1.
         -3    1    3    3    0  502 -0.16354856512E+03  0.22176766281E+02 -0.78083884445E+02  0.18258432333E+03  0.00000000000E+00 0.  1.
         11    1    5    5    0    0 -0.29466733574E+02 -0.75815595576E+02 -0.28706935770E+03  0.29837075770E+03  0.00000000000E+00 0.  1.
        -11    1    5    5    0    0  0.70488018090E+02 -0.17074966334E+03 -0.68323590557E+03  0.70776783685E+03  0.00000000000E+00 0. -1.
          2    1    6    6  503    0  0.15420921985E+03  0.17471577096E+03 -0.48141232583E+02  0.23795727008E+03  0.00000000000E+00 0. -1.
         -2    1    6    6    0  503  0.13185068213E+03  0.61242736276E+02  0.13137601766E+02  0.14597216071E+03  0.00000000000E+00 0.  1.
<mgrwt>
<rscale>  0 0.13040304E+04</rscale>
<asrwt>0</asrwt>
<pdfrwt beam="1">  1        2 0.23499649E+00 0.13040304E+04</pdfrwt>
<pdfrwt beam="2">  1       -1 0.42818096E-01 0.13040304E+04</pdfrwt>
<totfact> 0.73451962E+01</totfact>
</mgrwt>
</event>
<event>
12    6  0.1586493E-007  0.1346622E+04  0.7818608E-02  0.8993389E-01
         -1   -1    0    0    0  501 -0.00000000000E+00  0.00000000000E+00  0.28080094577E+03  0.28080094577E+03  0.00000000000E+00 0.  1.
          2   -1    0    0  501    0  0.00000000000E+00 -0.00000000000E+00 -0.16144803213E+04  0.16144803213E+04  0.00000000000E+00 0. -1.
         24    2    1    2    0    0  0.24437883507E+03  0.22820763106E+03 -0.56722863978E+03  0.66303368169E+03  0.77881932153E+02 0.  0.
        254    2    1    2    0    0 -0.24437883507E+03 -0.22820763106E+03 -0.76645073575E+03  0.12322475854E+04  0.90508985380E+03 0.  0.
         23    2    4    4    0    0 -0.34946504594E+03 -0.47916550225E+03 -0.26735945334E+03  0.65713076402E+03  0.92813613550E+02 0.  0.
         23    2    4    4    0    0  0.10508621087E+03  0.25095787118E+03 -0.49909128240E+03  0.57511682136E+03  0.87431603041E+02 0.  0.
          4    1    3    3  502    0  0.17620914326E+03  0.16625825594E+03 -0.47201227862E+03  0.53055354207E+03  0.00000000000E+00 0. -1.
         -3    1    3    3    0  502  0.68169691811E+02  0.61949375121E+02 -0.95216361167E+02  0.13248013962E+03  0.00000000000E+00 0.  1.
         11    1    5    5    0    0 -0.18663382614E+03 -0.28918092373E+03 -0.10905098011E+03  0.36104003653E+03  0.00000000000E+00 0.  1.
        -11    1    5    5    0    0 -0.16283121979E+03 -0.18998457852E+03 -0.15830847324E+03  0.29609072750E+03  0.00000000000E+00 0. -1.
          2    1    6    6  503    0  0.93911727061E+02  0.17726090309E+03 -0.28578454734E+03  0.34916134915E+03  0.00000000000E+00 0. -1.
         -2    1    6    6    0  503  0.11174483807E+02  0.73696968095E+02 -0.21330673506E+03  0.22595547220E+03  0.00000000000E+00 0.  1.
<mgrwt>
<rscale>  0 0.13466218E+04</rscale>
<asrwt>0</asrwt>
<pdfrwt beam="1">  1        2 0.24838159E+00 0.13466218E+04</pdfrwt>
<pdfrwt beam="2">  1       -1 0.43200145E-01 0.13466218E+04</pdfrwt>
<totfact> 0.64377614E+01</totfact>
</mgrwt>
</event>
<event>
12    6  0.1586493E-007  0.1733297E+04  0.7818608E-02  0.8742599E-01
          2   -1    0    0  501    0  0.00000000000E+00  0.00000000000E+00  0.17218793900E+04  0.17218793900E+04  0.00000000000E+00 0. -1.
         -1   -1    0    0    0  501 -0.00000000000E+00 -0.00000000000E+00 -0.43619745088E+03  0.43619745088E+03  0.00000000000E+00 0.  1.
         24    2    1    2    0    0 -0.47166705299E+03  0.37343304193E+03  0.71456256561E+03  0.93757700505E+03  0.80801822599E+02 0.  0.
        254    2    1    2    0    0  0.47166705299E+03 -0.37343304193E+03  0.57111937355E+03  0.12204998359E+04  0.89527675321E+03 0.  0.
         23    2    4    4    0    0  0.42774662519E+03 -0.39015373185E+03  0.78566873352E+03  0.98047337657E+03  0.94157174375E+02 0.  0.
         23    2    4    4    0    0  0.43920427799E+02  0.16720689917E+02 -0.21454935997E+03  0.24002645930E+03  0.96812643038E+02 0.  0.
          4    1    3    3  502    0 -0.15398764849E+03  0.14268826434E+03  0.19660627484E+03  0.28762156382E+03  0.00000000000E+00 0. -1.
         -3    1    3    3    0  502 -0.31767940450E+03  0.23074477759E+03  0.51795629077E+03  0.64995544122E+03  0.00000000000E+00 0.  1.
         11    1    5    5    0    0  0.38258687830E+02 -0.82828408461E+01  0.34679877717E+02  0.52297481445E+02  0.00000000000E+00 0. -1.
        -11    1    5    5    0    0  0.38948793736E+03 -0.38187089100E+03  0.75098885580E+03  0.92817589512E+03  0.00000000000E+00 0.  1.
          4    1    6    6  503    0  0.52471372556E+02  0.27562019762E+02 -0.58195124864E+02  0.83063725110E+02  0.00000000000E+00 0. -1.
         -4    1    6    6    0  503 -0.85509447569E+01 -0.10841329845E+02 -0.15635423511E+03  0.15696273419E+03  0.00000000000E+00 0.  1.
<mgrwt>
<rscale>  0 0.17332967E+04</rscale>
<asrwt>0</asrwt>
<pdfrwt beam="1">  1        2 0.26490452E+00 0.17332967E+04</pdfrwt>
<pdfrwt beam="2">  1       -1 0.67107301E-01 0.17332967E+04</pdfrwt>
<totfact> 0.23187916E+01</totfact>
</mgrwt>
</event>
<event>
12    6  0.1586493E-007  0.1248227E+04  0.7818608E-02  0.9071660E-01
          2   -1    0    0  501    0  0.00000000000E+00  0.00000000000E+00  0.16421035657E+04  0.16421035657E+04  0.00000000000E+00 0. -1.
         -1   -1    0    0    0  501 -0.00000000000E+00 -0.00000000000E+00 -0.23720669162E+03  0.23720669162E+03  0.00000000000E+00 0.  1.
         24    2    1    2    0    0 -0.36552955805E+02 -0.20245402542E+03  0.34549656798E+02  0.22254557736E+03  0.77518412211E+02 0.  0.
        254    2    1    2    0    0  0.36552955805E+02  0.20245402542E+03  0.13703472173E+04  0.16567646799E+04  0.90812661994E+03 0.  0.
         23    2    4    4    0    0  0.42395877988E+03  0.26507155240E+03  0.59024031111E+03  0.77877778027E+03  0.90040164652E+02 0.  0.
         23    2    4    4    0    0 -0.38740582407E+03 -0.62617526976E+02  0.78010690616E+03  0.87798689968E+03  0.91049347903E+02 0.  0.
          2    1    3    3  502    0 -0.46763517206E+02 -0.14195257856E+03  0.52836460865E+02  0.15852145816E+03  0.00000000000E+00 0. -1.
         -1    1    3    3    0  502  0.10210561401E+02 -0.60501446865E+02 -0.18286804067E+02  0.64024119204E+02  0.00000000000E+00 0.  1.
         11    1    5    5    0    0  0.34651502675E+03  0.24169633922E+03  0.53071761049E+03  0.67834428297E+03  0.00000000000E+00 0.  1.
        -11    1    5    5    0    0  0.77443753130E+02  0.23375213176E+02  0.59522700623E+02  0.10043349730E+03  0.00000000000E+00 0. -1.
          4    1    6    6  503    0 -0.22339249191E+03 -0.81313924314E+02  0.45353699634E+03  0.51206636950E+03  0.00000000000E+00 0.  1.
         -4    1    6    6    0  503 -0.16401333216E+03  0.18696397337E+02  0.32656990982E+03  0.36592053017E+03  0.00000000000E+00 0. -1.
<mgrwt>
<rscale>  0 0.12482275E+04</rscale>
<asrwt>0</asrwt>
<pdfrwt beam="1">  1        2 0.25263131E+00 0.12482275E+04</pdfrwt>
<pdfrwt beam="2">  1       -1 0.36493338E-01 0.12482275E+04</pdfrwt>
<totfact> 0.85182106E+01</totfact>
</mgrwt>
</event>
<event>
12    6  0.1586493E-007  0.1686954E+04  0.7818608E-02  0.8768840E-01
         -1   -1    0    0    0  501 -0.00000000000E+00  0.00000000000E+00  0.81997426015E+03  0.81997426015E+03  0.00000000000E+00 0.  1.
          2   -1    0    0  501    0  0.00000000000E+00 -0.00000000000E+00 -0.86765327482E+03  0.86765327482E+03  0.00000000000E+00 0. -1.
         24    2    1    2    0    0 -0.23552319421E+02 -0.10049914321E+03  0.57580780240E+03  0.59037931393E+03  0.79613563413E+02 0.  0.
        254    2    1    2    0    0  0.23552319421E+02  0.10049914321E+03 -0.62348681707E+03  0.10972482210E+04  0.89697439093E+03 0.  0.
         23    2    4    4    0    0  0.25511521284E+03  0.39432701264E+03 -0.51056126131E+03  0.69825312638E+03  0.79417014763E+02 0.  0.
         23    2    4    4    0    0 -0.23156289342E+03 -0.29382786943E+03 -0.11292555576E+03  0.39899509466E+03  0.80552554005E+02 0.  0.
          4    1    3    3  502    0 -0.39226402169E+01  0.13631900255E+02  0.50254971392E+02  0.52218559540E+02  0.00000000000E+00 0. -1.
         -3    1    3    3    0  502 -0.19629679205E+02 -0.11413104346E+03  0.52555283101E+03  0.53816075439E+03  0.00000000000E+00 0.  1.
         11    1    5    5    0    0  0.28309675283E+02  0.80740673495E+02 -0.61125555725E+02  0.10515145094E+03  0.00000000000E+00 0. -1.
        -11    1    5    5    0    0  0.22680553756E+03  0.31358633914E+03 -0.44943570559E+03  0.59310167545E+03  0.00000000000E+00 0.  1.
          2    1    6    6  503    0 -0.10294148217E+03 -0.82379383479E+02 -0.64618934573E+02  0.14682955520E+03  0.00000000000E+00 0. -1.
         -2    1    6    6    0  503 -0.12862141125E+03 -0.21144848595E+03 -0.48306621189E+02  0.25216553946E+03  0.00000000000E+00 0.  1.
<mgrwt>
<rscale>  0 0.16869539E+04</rscale>
<asrwt>0</asrwt>
<pdfrwt beam="1">  1        2 0.13348512E+00 0.16869539E+04</pdfrwt>
<pdfrwt beam="2">  1       -1 0.12614989E+00 0.16869539E+04</pdfrwt>
<totfact> 0.18351391E+01</totfact>
</mgrwt>
</event>
<event>
12    6  0.1586493E-007  0.1484787E+04  0.7818608E-02  0.8894633E-01
         -1   -1    0    0    0  501 -0.00000000000E+00  0.00000000000E+00  0.20189013039E+03  0.20189013039E+03  0.00000000000E+00 0.  1.
          2   -1    0    0  501    0  0.00000000000E+00 -0.00000000000E+00 -0.27299426066E+04  0.27299426066E+04  0.00000000000E+00 0. -1.
         24    2    1    2    0    0 -0.33047676664E+03  0.15620327529E+03 -0.24156760202E+03  0.44556364280E+03  0.80979608178E+02 0.  0.
        254    2    1    2    0    0  0.33047676664E+03 -0.15620327529E+03 -0.22864848742E+04  0.24862690942E+04  0.90548692556E+03 0.  0.
         23    2    4    4    0    0 -0.17257272944E+01  0.12266669611E+03  0.17935513123E+01  0.15533949336E+03  0.95273526760E+02 0.  0.
         23    2    4    4    0    0  0.33220249393E+03 -0.27886997140E+03 -0.22882784255E+04  0.23309296009E+04  0.94274564560E+02 0.  0.
          4    1    3    3  502    0 -0.19508979892E+03  0.10097737403E+03 -0.19024019336E+03  0.29059902078E+03  0.00000000000E+00 0. -1.
         -3    1    3    3    0  502 -0.13538696772E+03  0.55225901259E+02 -0.51327408658E+02  0.15496462202E+03  0.00000000000E+00 0.  1.
         11    1    5    5    0    0 -0.14740351141E+02  0.37426521283E+02 -0.42401153000E+02  0.58445532104E+02  0.00000000000E+00 0.  1.
        -11    1    5    5    0    0  0.13014623847E+02  0.85240174825E+02  0.44194704313E+02  0.96893961254E+02  0.00000000000E+00 0. -1.
          3    1    6    6  503    0  0.26303306225E+03 -0.23923152055E+03 -0.20201372699E+04  0.20511881195E+04  0.00000000000E+00 0. -1.
         -3    1    6    6    0  503  0.69169431678E+02 -0.39638450843E+02 -0.26814115563E+03  0.27974148138E+03  0.00000000000E+00 0.  1.
<mgrwt>
<rscale>  0 0.14847875E+04</rscale>
<asrwt>0</asrwt>
<pdfrwt beam="1">  1        2 0.41999117E+00 0.14847875E+04</pdfrwt>
<pdfrwt beam="2">  1       -1 0.31060020E-01 0.14847875E+04</pdfrwt>
<totfact> 0.27073199E+01</totfact>
</mgrwt>
</event>
<event>
12    6  0.1586493E-007  0.1413651E+04  0.7818608E-02  0.8943996E-01
          2   -1    0    0  501    0  0.00000000000E+00  0.00000000000E+00  0.95578793453E+03  0.95578793453E+03  0.00000000000E+00 0. -1.
         -1   -1    0    0    0  501 -0.00000000000E+00 -0.00000000000E+00 -0.52271262634E+03  0.52271262634E+03  0.00000000000E+00 0.  1.
         24    2    1    2    0    0 -0.14865437730E+03  0.32505079355E+03  0.34278537545E+03  0.50156190788E+03  0.79412792023E+02 0.  0.
        254    2    1    2    0    0  0.14865437730E+03 -0.32505079355E+03  0.90289932747E+02  0.97693865299E+03  0.90471029477E+03 0.  0.
         23    2    4    4    0    0  0.41160410371E+02  0.18572918565E+03  0.33255290770E+03  0.39418200665E+03  0.92728141134E+02 0.  0.
         23    2    4    4    0    0  0.10749396693E+03 -0.51077997920E+03 -0.24226297496E+03  0.58275664634E+03  0.91993585300E+02 0.  0.
          4    1    3    3  502    0 -0.12142822163E+03  0.20516151193E+03  0.26314231648E+03  0.35507736862E+03  0.00000000000E+00 0. -1.
         -3    1    3    3    0  502 -0.27226155673E+02  0.11988928162E+03  0.79643058969E+02  0.14648453926E+03  0.00000000000E+00 0.  1.
         11    1    5    5    0    0  0.41566371444E+01  0.14086892941E+03  0.28898982625E+03  0.32152208724E+03  0.00000000000E+00 0. -1.
        -11    1    5    5    0    0  0.37003773227E+02  0.44860256242E+02  0.43563081455E+02  0.72659919412E+02  0.00000000000E+00 0.  1.
          2    1    6    6  503    0  0.75208109620E+02 -0.15040090938E+03 -0.73800308063E+02  0.18363871804E+03  0.00000000000E+00 0. -1.
         -2    1    6    6    0  503  0.32285857311E+02 -0.36037906983E+03 -0.16846266689E+03  0.39911792830E+03  0.00000000000E+00 0.  1.
<mgrwt>
<rscale>  0 0.14136512E+04</rscale>
<asrwt>0</asrwt>
<pdfrwt beam="1">  1        2 0.14704430E+00 0.14136512E+04</pdfrwt>
<pdfrwt beam="2">  1       -1 0.80417327E-01 0.14136512E+04</pdfrwt>
<totfact> 0.46076828E+01</totfact>
</mgrwt>
</event>
<event>
12    6  0.1586493E-007  0.2754232E+04  0.7818608E-02  0.8317620E-01
          2   -1    0    0  501    0  0.00000000000E+00  0.00000000000E+00  0.20144499502E+04  0.20144499502E+04  0.00000000000E+00 0. -1.
         -1   -1    0    0    0  501 -0.00000000000E+00 -0.00000000000E+00 -0.94142262878E+03  0.94142262878E+03  0.00000000000E+00 0.  1.
         24    2    1    2    0    0  0.10046343514E+04  0.75225466151E+03  0.22158902224E+03  0.12770247295E+04  0.80704456075E+02 0.  0.
        254    2    1    2    0    0 -0.10046343514E+04 -0.75225466151E+03  0.85143829920E+03  0.16788478495E+04  0.72000393666E+03 0.  0.
         23    2    4    4    0    0 -0.89993105018E+00 -0.75993430989E+02  0.34358751428E+03  0.36326310746E+03  0.90177013966E+02 0.  0.
         23    2    4    4    0    0 -0.10037344203E+04 -0.67626123052E+03  0.50785078493E+03  0.13155847421E+04  0.89659106438E+02 0.  0.
          2    1    3    3  502    0  0.87522659919E+03  0.66536228852E+03  0.21959549530E+03  0.11211381523E+04  0.00000000000E+00 0. -1.
         -1    1    3    3    0  502  0.12940775217E+03  0.86892372991E+02  0.19935269436E+01  0.15588657721E+03  0.00000000000E+00 0.  1.
         11    1    5    5    0    0  0.88211962209E+01  0.83731426435E+01  0.16567493483E+03  0.16612076045E+03  0.00000000000E+00 0.  1.
        -11    1    5    5    0    0 -0.97211272711E+01 -0.84366573632E+02  0.17791257945E+03  0.19714234702E+03  0.00000000000E+00 0. -1.
          1    1    6    6  503    0 -0.15516311435E+03 -0.10961037882E+03  0.45502743895E+02  0.19534719579E+03  0.00000000000E+00 0. -1.
         -1    1    6    6    0  503 -0.84857130596E+03 -0.56665085171E+03  0.46234804103E+03  0.11202375463E+04  0.00000000000E+00 0.  1.
<mgrwt>
<rscale>  0 0.27542322E+04</rscale>
<asrwt>0</asrwt>
<pdfrwt beam="1">  1        2 0.30991538E+00 0.27542322E+04</pdfrwt>
<pdfrwt beam="2">  1       -1 0.14483425E+00 0.27542322E+04</pdfrwt>
<totfact> 0.24974612E+00</totfact>
</mgrwt>
</event>
<event>
12    6  0.1586493E-007  0.1808420E+04  0.7818608E-02  0.8701834E-01
          2   -1    0    0  501    0  0.00000000000E+00  0.00000000000E+00  0.16407162919E+04  0.16407162919E+04  0.00000000000E+00 0. -1.
         -1   -1    0    0    0  501 -0.00000000000E+00 -0.00000000000E+00 -0.49831643841E+03  0.49831643841E+03  0.00000000000E+00 0.  1.
         24    2    1    2    0    0 -0.10348635127E+03  0.63631350111E+03  0.69912363990E+03  0.95441088516E+03  0.80758759647E+02 0.  0.
        254    2    1    2    0    0  0.10348635127E+03 -0.63631350111E+03  0.44327621361E+03  0.11846218452E+04  0.88951156142E+03 0.  0.
         23    2    4    4    0    0 -0.35866200805E+03 -0.46772462043E+03  0.20664918581E+03  0.63117411749E+03  0.90951217800E+02 0.  0.
         23    2    4    4    0    0  0.46214835932E+03 -0.16858888068E+03  0.23662702780E+03  0.55344772768E+03  0.91152181965E+02 0.  0.
          4    1    3    3  502    0 -0.28637607938E+02  0.31333182424E+03  0.39020215394E+03  0.50125309536E+03  0.00000000000E+00 0. -1.
         -3    1    3    3    0  502 -0.74848743328E+02  0.32298167687E+03  0.30892148596E+03  0.45315778980E+03  0.00000000000E+00 0.  1.
         11    1    5    5    0    0 -0.27807512794E+03 -0.29597866165E+03  0.12805051708E+03  0.42582400103E+03  0.00000000000E+00 0.  1.
        -11    1    5    5    0    0 -0.80586880114E+02 -0.17174595879E+03  0.78598668736E+02  0.20535011647E+03  0.00000000000E+00 0. -1.
          4    1    6    6  503    0  0.35597176653E+02  0.22690528926E+01  0.40150755118E+02  0.53706524029E+02  0.00000000000E+00 0. -1.
         -4    1    6    6    0  503  0.42655118266E+03 -0.17085793358E+03  0.19647627268E+03  0.49974120365E+03  0.00000000000E+00 0.  1.
<mgrwt>
<rscale>  0 0.18084202E+04</rscale>
<asrwt>0</asrwt>
<pdfrwt beam="1">  1        2 0.25241789E+00 0.18084202E+04</pdfrwt>
<pdfrwt beam="2">  1       -1 0.76664069E-01 0.18084202E+04</pdfrwt>
<totfact> 0.19417395E+01</totfact>
</mgrwt>
</event>
<event>
12    6  0.1586493E-007  0.1235994E+04  0.7818608E-02  0.9081922E-01
         -1   -1    0    0    0  501 -0.00000000000E+00  0.00000000000E+00  0.50401060278E+03  0.50401060278E+03  0.00000000000E+00 0.  1.
          2   -1    0    0  501    0  0.00000000000E+00 -0.00000000000E+00 -0.75776222106E+03  0.75776222106E+03  0.00000000000E+00 0. -1.
         24    2    1    2    0    0  0.28214021295E+03 -0.21523411089E+03  0.10139507973E+02  0.36231466028E+03  0.72389786432E+02 0.  0.
        254    2    1    2    0    0 -0.28214021295E+03  0.21523411089E+03 -0.26389112625E+03  0.89945816356E+03  0.78323536643E+03 0.  0.
         23    2    4    4    0    0 -0.28333451294E+03  0.54592829865E+02 -0.50932292854E+03  0.59251846730E+03  0.91703136557E+02 0.  0.
         23    2    4    4    0    0  0.11942999947E+01  0.16064128102E+03  0.24543180229E+03  0.30693969626E+03  0.90377873624E+02 0.  0.
          2    1    3    3  502    0  0.26996065532E+03 -0.21096738275E+03 -0.46998428445E+01  0.34264862545E+03  0.00000000000E+00 0. -1.
         -1    1    3    3    0  502  0.12179557633E+02 -0.42667281393E+01  0.14839350817E+02  0.19666034827E+02  0.00000000000E+00 0.  1.
         11    1    5    5    0    0 -0.93095605211E+02 -0.66630337061E+01 -0.98702162432E+02  0.13584294092E+03  0.00000000000E+00 0.  1.
        -11    1    5    5    0    0 -0.19023890773E+03  0.61255863571E+02 -0.41062076611E+03  0.45667552639E+03  0.00000000000E+00 0. -1.
          1    1    6    6  503    0  0.93783382663E+00 -0.44771680657E+01 -0.51241952985E+01  0.68689113862E+01  0.00000000000E+00 0. -1.
         -1    1    6    6    0  503  0.25646616809E+00  0.16511844909E+03  0.25055599759E+03  0.30007078487E+03  0.00000000000E+00 0.  1.
<mgrwt>
<rscale>  0 0.12359938E+04</rscale>
<asrwt>0</asrwt>
<pdfrwt beam="1">  1        2 0.11657880E+00 0.12359938E+04</pdfrwt>
<pdfrwt beam="2">  1       -1 0.77540093E-01 0.12359938E+04</pdfrwt>
<totfact> 0.69357615E+01</totfact>
</mgrwt>
</event>
<event>
12    6  0.1586493E-007  0.1684168E+04  0.7818608E-02  0.8770446E-01
         -1   -1    0    0    0  501 -0.00000000000E+00  0.00000000000E+00  0.34248283623E+03  0.34248283623E+03  0.00000000000E+00 0.  1.
          2   -1    0    0  501    0  0.00000000000E+00 -0.00000000000E+00 -0.20704840314E+04  0.20704840314E+04  0.00000000000E+00 0. -1.
         24    2    1    2    0    0 -0.85898017120E+02  0.51031118417E+03 -0.10360428702E+04  0.11608217324E+04  0.79537986749E+02 0.  0.
        254    2    1    2    0    0  0.85898017120E+02 -0.51031118417E+03 -0.69195832491E+03  0.12521451352E+04  0.90623680252E+03 0.  0.
         23    2    4    4    0    0  0.10369218007E+03  0.24069202196E+03 -0.13519411020E+03  0.31152120738E+03  0.10041562413E+03 0.  0.
         23    2    4    4    0    0 -0.17794162948E+02 -0.75100320613E+03 -0.55676421470E+03  0.94062392785E+03  0.10229630996E+03 0.  0.
          4    1    3    3  502    0  0.26356322644E+01  0.14679182381E+03 -0.34632372629E+03  0.37615809108E+03  0.00000000000E+00 0. -1.
         -3    1    3    3    0  502 -0.88533649385E+02  0.36351936036E+03 -0.68971914395E+03  0.78466364129E+03  0.00000000000E+00 0.  1.
         11    1    5    5    0    0  0.90666085088E+02  0.98632859347E+02 -0.39253273986E+02  0.13960515552E+03  0.00000000000E+00 0. -1.
        -11    1    5    5    0    0  0.13026094980E+02  0.14205916261E+03 -0.95940836217E+02  0.17191605186E+03  0.00000000000E+00 0.  1.
          4    1    6    6  503    0 -0.60055730865E+02 -0.50194736343E+03 -0.36985152428E+03  0.62637688054E+03  0.00000000000E+00 0. -1.
         -4    1    6    6    0  503  0.42261567917E+02 -0.24905584269E+03 -0.18691269042E+03  0.31424704731E+03  0.00000000000E+00 0.  1.
<mgrwt>
<rscale>  0 0.16841677E+04</rscale>
<asrwt>0</asrwt>
<pdfrwt beam="1">  1        2 0.31853600E+00 0.16841677E+04</pdfrwt>
<pdfrwt beam="2">  1       -1 0.52689668E-01 0.16841677E+04</pdfrwt>
<totfact> 0.24048347E+01</totfact>
</mgrwt>
</event>
<event>
12    6  0.1586493E-007  0.1652772E+04  0.7818608E-02  0.8788768E-01
         -1   -1    0    0    0  501 -0.00000000000E+00  0.00000000000E+00  0.18505629061E+03  0.18505629061E+03  0.00000000000E+00 0.  1.
          2   -1    0    0  501    0  0.00000000000E+00 -0.00000000000E+00 -0.36903052728E+04  0.36903052728E+04  0.00000000000E+00 0. -1.
         24    2    1    2    0    0 -0.33862265642E+03  0.45983541710E+03 -0.14090060972E+04  0.15225330713E+04  0.81822105960E+02 0.  0.
        254    2    1    2    0    0  0.33862265642E+03 -0.45983541710E+03 -0.20962428850E+04  0.23528284921E+04  0.90302478709E+03 0.  0.
         23    2    4    4    0    0 -0.19684120988E+03 -0.23234863853E+03 -0.14228497089E+04  0.14579906493E+04  0.92212187725E+02 0.  0.
         23    2    4    4    0    0  0.53546386630E+03 -0.22748677857E+03 -0.67339317610E+03  0.89483784281E+03  0.93832876830E+02 0.  0.
          4    1    3    3  502    0 -0.10583243503E+03  0.12494340181E+03 -0.31584197820E+03  0.35576328246E+03  0.00000000000E+00 0. -1.
         -3    1    3    3    0  502 -0.23279022139E+03  0.33489201529E+03 -0.10931641190E+04  0.11667697889E+04  0.00000000000E+00 0.  1.
         11    1    5    5    0    0 -0.16692530585E+03 -0.23321210542E+03 -0.12421147711E+04  0.12747945123E+04  0.00000000000E+00 0. -1.
        -11    1    5    5    0    0 -0.29915904036E+02  0.86346688856E+00 -0.18073493781E+03  0.18319613706E+03  0.00000000000E+00 0.  1.
          1    1    6    6  503    0  0.52317640135E+03 -0.22674524967E+03 -0.62995139983E+03  0.84968566031E+03  0.00000000000E+00 0. -1.
         -1    1    6    6    0  503  0.12287464949E+02 -0.74152890392E+00 -0.43441776265E+02  0.45152182505E+02  0.00000000000E+00 0.  1.
<mgrwt>
<rscale>  0 0.16527725E+04</rscale>
<asrwt>0</asrwt>
<pdfrwt beam="1">  1        2 0.56773927E+00 0.16527725E+04</pdfrwt>
<pdfrwt beam="2">  1       -1 0.28470199E-01 0.16527725E+04</pdfrwt>
<totfact> 0.73146340E+00</totfact>
</mgrwt>
</event>
<event>
12    6  0.1586493E-007  0.1650152E+04  0.7818608E-02  0.8790316E-01
         -1   -1    0    0    0  501 -0.00000000000E+00  0.00000000000E+00  0.43388607366E+03  0.43388607366E+03  0.00000000000E+00 0.  1.
          2   -1    0    0  501    0  0.00000000000E+00 -0.00000000000E+00 -0.15689615533E+04  0.15689615533E+04  0.00000000000E+00 0. -1.
         24    2    1    2    0    0 -0.32173340602E+03 -0.39110388134E+03 -0.10278275550E+03  0.52514349312E+03  0.93470653101E+02 0.  0.
        254    2    1    2    0    0  0.32173340602E+03  0.39110388134E+03 -0.10322927241E+04  0.14777041338E+04  0.92817380287E+03 0.  0.
         23    2    4    4    0    0  0.23832462765E+03 -0.32342520469E+02 -0.10033059116E+04  0.10359181626E+04  0.93053858397E+02 0.  0.
         23    2    4    4    0    0  0.83408778370E+02  0.42344640181E+03 -0.28986812506E+02  0.44178597123E+03  0.89837239302E+02 0.  0.
          2    1    3    3  502    0 -0.22599309539E+02 -0.74041671298E+01  0.98673427434E+01  0.25747134508E+02  0.00000000000E+00 0. -1.
         -1    1    3    3    0  502 -0.29913409648E+03 -0.38369971421E+03 -0.11265009825E+03  0.49939635861E+03  0.00000000000E+00 0.  1.
         11    1    5    5    0    0  0.93712662855E+02 -0.25269685075E+02 -0.59129514868E+03  0.59920828850E+03  0.00000000000E+00 0.  1.
        -11    1    5    5    0    0  0.14461196479E+03 -0.70728353944E+01 -0.41201076293E+03  0.43670987410E+03  0.00000000000E+00 0. -1.
          2    1    6    6  503    0  0.85043614693E+02  0.39820222810E+03 -0.54290281994E+01  0.40721849812E+03  0.00000000000E+00 0.  1.
         -2    1    6    6    0  503 -0.16348363223E+01  0.25244173709E+02 -0.23557784307E+02  0.34567473114E+02  0.00000000000E+00 0. -1.
<mgrwt>
<rscale>  0 0.16501522E+04</rscale>
<asrwt>0</asrwt>
<pdfrwt beam="1">  1        2 0.24137871E+00 0.16501522E+04</pdfrwt>
<pdfrwt beam="2">  1       -1 0.66751702E-01 0.16501522E+04</pdfrwt>
<totfact> 0.28725732E+01</totfact>
</mgrwt>
</event>
<event>
12    6  0.1586493E-007  0.2512199E+04  0.7818608E-02  0.8398652E-01
         -1   -1    0    0    0  501 -0.00000000000E+00  0.00000000000E+00  0.14958987577E+04  0.14958987577E+04  0.00000000000E+00 0.  1.
          2   -1    0    0  501    0  0.00000000000E+00 -0.00000000000E+00 -0.10547413290E+04  0.10547413290E+04  0.00000000000E+00 0. -1.
         24    2    1    2    0    0  0.37883325268E+03  0.23765772356E+03 -0.82235137011E+03  0.93933028649E+03  0.77998617385E+02 0.  0.
        254    2    1    2    0    0 -0.37883325268E+03 -0.23765772356E+03  0.12635087989E+04  0.16113098002E+04  0.89435393470E+03 0.  0.
         23    2    4    4    0    0  0.46520883363E+02  0.10754460603E+03  0.97318842177E+03  0.98440944437E+03  0.90753595095E+02 0.  0.
         23    2    4    4    0    0 -0.42535413604E+03 -0.34520232958E+03  0.29032037711E+03  0.62690035585E+03  0.92883504449E+02 0.  0.
          2    1    3    3  502    0  0.18638574616E+03  0.14320360446E+03 -0.49586953679E+03  0.54875633593E+03  0.00000000000E+00 0. -1.
         -1    1    3    3    0  502  0.19244750652E+03  0.94454119093E+02 -0.32648183331E+03  0.39057395057E+03  0.00000000000E+00 0.  1.
         11    1    5    5    0    0 -0.21066408115E+02  0.45349242022E+01  0.23755686036E+03  0.23853222213E+03  0.00000000000E+00 0. -1.
        -11    1    5    5    0    0  0.67587291479E+02  0.10300968182E+03  0.73563156141E+03  0.74587722224E+03  0.00000000000E+00 0.  1.
          1    1    6    6  503    0 -0.17220172871E+03 -0.13569603183E+03  0.65738150064E+02  0.22888502092E+03  0.00000000000E+00 0. -1.
         -1    1    6    6    0  503 -0.25315240733E+03 -0.20950629775E+03  0.22458222705E+03  0.39801533493E+03  0.00000000000E+00 0.  1.
<mgrwt>
<rscale>  0 0.25121992E+04</rscale>
<asrwt>0</asrwt>
<pdfrwt beam="1">  1        2 0.16226790E+00 0.25121992E+04</pdfrwt>
<pdfrwt beam="2">  1       -1 0.23013827E+00 0.25121992E+04</pdfrwt>
<totfact> 0.22241128E+00</totfact>
</mgrwt>
</event>
<event>
12    6  0.1586493E-007  0.3491758E+04  0.7818608E-02  0.8115746E-01
          2   -1    0    0  501    0  0.00000000000E+00  0.00000000000E+00  0.17283508590E+04  0.17283508590E+04  0.00000000000E+00 0. -1.
         -1   -1    0    0    0  501 -0.00000000000E+00 -0.00000000000E+00 -0.17635853394E+04  0.17635853394E+04  0.00000000000E+00 0.  1.
         24    2    1    2    0    0 -0.13123325476E+04 -0.65741745850E+03 -0.68121002387E+03  0.16201276859E+04  0.79700637423E+02 0.  0.
        254    2    1    2    0    0  0.13123325476E+04  0.65741745850E+03  0.64597554347E+03  0.18718085125E+04  0.96538503943E+03 0.  0.
         23    2    4    4    0    0  0.66530346408E+03  0.39258457412E+02 -0.12783153298E+03  0.68503498763E+03  0.93606130408E+02 0.  0.
         23    2    4    4    0    0  0.64702908354E+03  0.61815900109E+03  0.77380707645E+03  0.11867735249E+04  0.94269943053E+02 0.  0.
          2    1    3    3  502    0 -0.78613734613E+03 -0.36706201190E+03 -0.36811616526E+03  0.94247331988E+03  0.00000000000E+00 0. -1.
         -1    1    3    3    0  502 -0.52619520150E+03 -0.29035544660E+03 -0.31309385860E+03  0.67765436599E+03  0.00000000000E+00 0.  1.
         11    1    5    5    0    0  0.28762322662E+03  0.35749741099E+02 -0.98844745979E+02  0.30622777191E+03  0.00000000000E+00 0.  1.
        -11    1    5    5    0    0  0.37768023746E+03  0.35087163128E+01 -0.28986787000E+02  0.37880721572E+03  0.00000000000E+00 0. -1.
          1    1    6    6  503    0  0.22149338270E+03  0.27308168841E+03  0.31811977359E+03  0.47416570677E+03  0.00000000000E+00 0. -1.
         -1    1    6    6    0  503  0.42553570084E+03  0.34507731268E+03  0.45568730286E+03  0.71260781809E+03  0.00000000000E+00 0.  1.
<mgrwt>
<rscale>  0 0.34917584E+04</rscale>
<asrwt>0</asrwt>
<pdfrwt beam="1">  1        2 0.26590013E+00 0.34917584E+04</pdfrwt>
<pdfrwt beam="2">  1       -1 0.27132082E+00 0.34917584E+04</pdfrwt>
<totfact> 0.44831618E-01</totfact>
</mgrwt>
</event>
<event>
12    6  0.1586493E-007  0.1604290E+04  0.7818608E-02  0.8817917E-01
         -1   -1    0    0    0  501 -0.00000000000E+00  0.00000000000E+00  0.21084192519E+03  0.21084192519E+03  0.00000000000E+00 0.  1.
          2   -1    0    0  501    0  0.00000000000E+00 -0.00000000000E+00 -0.30517493922E+04  0.30517493922E+04  0.00000000000E+00 0. -1.
         24    2    1    2    0    0 -0.19651317578E+03  0.33436318704E+03 -0.17586946190E+04  0.18026453227E+04  0.78148751404E+02 0.  0.
        254    2    1    2    0    0  0.19651317578E+03 -0.33436318704E+03 -0.10822128480E+04  0.14599459947E+04  0.89991193457E+03 0.  0.
         23    2    4    4    0    0  0.10438623682E+03 -0.11670544449E+03  0.12975621220E+03  0.22177049459E+03  0.88480678432E+02 0.  0.
         23    2    4    4    0    0  0.92126938961E+02 -0.21765774255E+03 -0.12119690602E+04  0.12381755001E+04  0.91363561902E+02 0.  0.
          2    1    3    3  502    0 -0.99837873306E+02  0.14689856842E+03 -0.63734810667E+03  0.66163388625E+03  0.00000000000E+00 0. -1.
         -1    1    3    3    0  502 -0.96675302470E+02  0.18746461861E+03 -0.11213465123E+04  0.11410114364E+04  0.00000000000E+00 0.  1.
         11    1    5    5    0    0  0.54685703755E+02 -0.18692551993E+02  0.89885805699E+01  0.58487026560E+02  0.00000000000E+00 0. -1.
        -11    1    5    5    0    0  0.49700533061E+02 -0.98012892499E+02  0.12076763163E+03  0.16328346803E+03  0.00000000000E+00 0.  1.
          3    1    6    6  503    0  0.50308729426E+02 -0.64089535135E+02 -0.24492858610E+03  0.25812487106E+03  0.00000000000E+00 0. -1.
         -3    1    6    6    0  503  0.41818209535E+02 -0.15356820741E+03 -0.96704047408E+03  0.98005062904E+03  0.00000000000E+00 0.  1.
<mgrwt>
<rscale>  0 0.16042901E+04</rscale>
<asrwt>0</asrwt>
<pdfrwt beam="1">  1        2 0.46949987E+00 0.16042901E+04</pdfrwt>
<pdfrwt beam="2">  1       -1 0.32437222E-01 0.16042901E+04</pdfrwt>
<totfact> 0.15771339E+01</totfact>
</mgrwt>
</event>
<event>
12    6  0.1586493E-007  0.1415706E+04  0.7818608E-02  0.8942527E-01
         -1   -1    0    0    0  501 -0.00000000000E+00  0.00000000000E+00  0.43080102168E+03  0.43080102168E+03  0.00000000000E+00 0.  1.
          2   -1    0    0  501    0  0.00000000000E+00 -0.00000000000E+00 -0.11630802754E+04  0.11630802754E+04  0.00000000000E+00 0. -1.
         24    2    1    2    0    0 -0.26863088458E+02  0.34348873469E+03  0.14289321978E+02  0.35376554151E+03  0.78992007548E+02 0.  0.
        254    2    1    2    0    0  0.26863088458E+02 -0.34348873469E+03 -0.74656857573E+03  0.12401157556E+04  0.92834062319E+03 0.  0.
         23    2    4    4    0    0 -0.37706807165E+02 -0.55405277866E+03 -0.81723763566E+03  0.99226971770E+03  0.91244477443E+02 0.  0.
         23    2    4    4    0    0  0.64569895623E+02  0.21056404397E+03  0.70669059927E+02  0.24784603792E+03  0.89034007241E+02 0.  0.
          2    1    3    3  502    0  0.13916787400E+02  0.79130373195E+02 -0.23292592421E+02  0.83653080010E+02  0.00000000000E+00 0. -1.
         -3    1    3    3    0  502 -0.40779875858E+02  0.26435836150E+03  0.37581914398E+02  0.27011246150E+03  0.00000000000E+00 0.  1.
         11    1    5    5    0    0  0.21160480987E+02 -0.32958672320E+03 -0.49957902334E+03  0.59887759569E+03  0.00000000000E+00 0. -1.
        -11    1    5    5    0    0 -0.58867288152E+02 -0.22446605547E+03 -0.31765861232E+03  0.39339212200E+03  0.00000000000E+00 0.  1.
          2    1    6    6  503    0  0.25918789885E+02  0.51319089781E+02  0.60803452290E+02  0.83680896598E+02  0.00000000000E+00 0.  1.
         -2    1    6    6    0  503  0.38651105738E+02  0.15924495419E+03  0.98656076370E+01  0.16416514132E+03  0.00000000000E+00 0. -1.
<mgrwt>
<rscale>  0 0.14157064E+04</rscale>
<asrwt>0</asrwt>
<pdfrwt beam="1">  1        2 0.17893543E+00 0.14157064E+04</pdfrwt>
<pdfrwt beam="2">  1       -1 0.66277080E-01 0.14157064E+04</pdfrwt>
<totfact> 0.50988963E+01</totfact>
</mgrwt>
</event>
<event>
12    6  0.1586493E-007  0.1558227E+04  0.7818608E-02  0.8846630E-01
         -1   -1    0    0    0  501 -0.00000000000E+00  0.00000000000E+00  0.49817180045E+03  0.49817180045E+03  0.00000000000E+00 0.  1.
          2   -1    0    0  501    0  0.00000000000E+00 -0.00000000000E+00 -0.12184909047E+04  0.12184909047E+04  0.00000000000E+00 0. -1.
         24    2    1    2    0    0 -0.17991818359E+03 -0.31167013704E+03 -0.65678269841E+03  0.75309952817E+03  0.79287825546E+02 0.  0.
        254    2    1    2    0    0  0.17991818359E+03  0.31167013704E+03 -0.63536405809E+02  0.96356317695E+03  0.89157629735E+03 0.  0.
         23    2    4    4    0    0  0.30471206931E+03 -0.21843583859E+03 -0.12383088584E+03  0.40820181096E+03  0.10359039250E+03 0.  0.
         23    2    4    4    0    0 -0.12479388572E+03  0.53010597563E+03  0.60294480027E+02  0.55536136599E+03  0.90581251942E+02 0.  0.
          4    1    3    3  502    0 -0.17983944769E+03 -0.26399050995E+03 -0.59177269391E+03  0.67247909823E+03  0.00000000000E+00 0. -1.
         -3    1    3    3    0  502 -0.78735904480E-01 -0.47679627091E+02 -0.65010004498E+02  0.80620429940E+02  0.00000000000E+00 0.  1.
         11    1    5    5    0    0  0.30117583527E+03 -0.19433956308E+03 -0.95692693635E+02  0.37098765632E+03  0.00000000000E+00 0. -1.
        -11    1    5    5    0    0  0.35362340357E+01 -0.24096275513E+02 -0.28138192202E+02  0.37214154634E+02  0.00000000000E+00 0.  1.
          1    1    6    6  503    0 -0.50811242653E+02  0.38818745565E+03  0.53871789178E+02  0.39518787023E+03  0.00000000000E+00 0. -1.
         -1    1    6    6    0  503 -0.73982643067E+02  0.14191851998E+03  0.64226908495E+01  0.16017349577E+03  0.00000000000E+00 0.  1.
<mgrwt>
<rscale>  0 0.15582270E+04</rscale>
<asrwt>0</asrwt>
<pdfrwt beam="1">  1        2 0.18746014E+00 0.15582270E+04</pdfrwt>
<pdfrwt beam="2">  1       -1 0.76641817E-01 0.15582270E+04</pdfrwt>
<totfact> 0.34604574E+01</totfact>
</mgrwt>
</event>
<event>
12    6  0.1586493E-007  0.3413622E+04  0.7818608E-02  0.8134571E-01
          2   -1    0    0  501    0  0.00000000000E+00  0.00000000000E+00  0.20677417871E+04  0.20677417871E+04  0.00000000000E+00 0. -1.
         -1   -1    0    0    0  501 -0.00000000000E+00 -0.00000000000E+00 -0.14088820389E+04  0.14088820389E+04  0.00000000000E+00 0.  1.
         24    2    1    2    0    0 -0.22506740051E+03 -0.61186976701E+03  0.17783865288E+04  0.18960421687E+04  0.85307169733E+02 0.  0.
        254    2    1    2    0    0  0.22506740051E+03  0.61186976701E+03 -0.11195267806E+04  0.15805816573E+04  0.90546022341E+03 0.  0.
         23    2    4    4    0    0 -0.41010325928E+02  0.31597682657E+03 -0.11241442904E+04  0.11719219154E+04  0.90428913213E+02 0.  0.
         23    2    4    4    0    0  0.26607772643E+03  0.29589294044E+03  0.46175097969E+01  0.40865974186E+03  0.92905729163E+02 0.  0.
          2    1    3    3  502    0 -0.17557597287E+03 -0.55489505721E+03  0.15684302805E+04  0.16729342461E+04  0.00000000000E+00 0. -1.
         -1    1    3    3    0  502 -0.49491427640E+02 -0.56974709803E+02  0.20995624829E+03  0.22310792268E+03  0.00000000000E+00 0.  1.
         11    1    5    5    0    0 -0.33964344562E+02  0.31488134387E+03 -0.11194417164E+04  0.11633802447E+04  0.00000000000E+00 0. -1.
        -11    1    5    5    0    0 -0.70459813661E+01  0.10954827067E+01 -0.47025740777E+01  0.85416707223E+01  0.00000000000E+00 0.  1.
          1    1    6    6  503    0  0.17396981005E+03  0.19040010094E+03 -0.41476674494E+02  0.26122405665E+03  0.00000000000E+00 0. -1.
         -1    1    6    6    0  503  0.92107916389E+02  0.10549283949E+03  0.46094184291E+02  0.14743568520E+03  0.00000000000E+00 0.  1.
<mgrwt>
<rscale>  0 0.34136223E+04</rscale>
<asrwt>0</asrwt>
<pdfrwt beam="1">  1        2 0.31811412E+00 0.34136223E+04</pdfrwt>
<pdfrwt beam="2">  1       -1 0.21675108E+00 0.34136223E+04</pdfrwt>
<totfact> 0.66708818E-01</totfact>
</mgrwt>
</event>
<event>
12    6  0.1586493E-007  0.2774429E+04  0.7818608E-02  0.8311251E-01
          2   -1    0    0  501    0  0.00000000000E+00  0.00000000000E+00  0.24155151557E+04  0.24155151557E+04  0.00000000000E+00 0. -1.
         -1   -1    0    0    0  501 -0.00000000000E+00 -0.00000000000E+00 -0.79666835626E+03  0.79666835626E+03  0.00000000000E+00 0.  1.
         24    2    1    2    0    0 -0.12189537166E+04 -0.12011503507E+03  0.49339906499E+03  0.13228489343E+04  0.78809141023E+02 0.  0.
        254    2    1    2    0    0  0.12189537166E+04  0.12011503507E+03  0.11254477345E+04  0.18893345777E+04  0.89592229500E+03 0.  0.
         23    2    4    4    0    0  0.17403244591E+03  0.25398496991E+03 -0.30221472358E+02  0.32247807794E+03  0.91011626668E+02 0.  0.
         23    2    4    4    0    0  0.10449212707E+04 -0.13386993484E+03  0.11556692069E+04  0.15668564998E+04  0.98419275980E+02 0.  0.
          2    1    3    3  502    0 -0.93125386485E+03 -0.80237927792E+02  0.40992017926E+03  0.10206402105E+04  0.00000000000E+00 0. -1.
         -1    1    3    3    0  502 -0.28769985175E+03 -0.39877107276E+02  0.83478885725E+02  0.30220872380E+03  0.00000000000E+00 0.  1.
         11    1    5    5    0    0  0.18152795936E+03  0.25509060014E+03 -0.31930038213E+02  0.31471120357E+03  0.00000000000E+00 0.  1.
        -11    1    5    5    0    0 -0.74955134549E+01 -0.11056302317E+01  0.17085658544E+01  0.77668743675E+01  0.00000000000E+00 0. -1.
          1    1    6    6  503    0  0.36169768413E+02 -0.19925494869E+02  0.30000529488E+02  0.51042230186E+02  0.00000000000E+00 0. -1.
         -1    1    6    6    0  503  0.10087515023E+04 -0.11394443997E+03  0.11256686774E+04  0.15158142696E+04  0.00000000000E+00 0.  1.
<mgrwt>
<rscale>  0 0.27744293E+04</rscale>
<asrwt>0</asrwt>
<pdfrwt beam="1">  1        2 0.37161771E+00 0.27744293E+04</pdfrwt>
<pdfrwt beam="2">  1       -1 0.12256436E+00 0.27744293E+04</pdfrwt>
<totfact> 0.22686972E+00</totfact>
</mgrwt>
</event>
<event>
12    6  0.1586493E-007  0.1388965E+04  0.7818608E-02  0.8961845E-01
          2   -1    0    0  501    0  0.00000000000E+00  0.00000000000E+00  0.20551720076E+04  0.20551720076E+04  0.00000000000E+00 0. -1.
         -1   -1    0    0    0  501 -0.00000000000E+00 -0.00000000000E+00 -0.23467927821E+03  0.23467927821E+03  0.00000000000E+00 0.  1.
         24    2    1    2    0    0 -0.11171703494E+03  0.33818467085E+03  0.24166528917E+03  0.43824535437E+03  0.82506430905E+02 0.  0.
        254    2    1    2    0    0  0.11171703494E+03 -0.33818467085E+03  0.15788274402E+04  0.18516059314E+04  0.89938805410E+03 0.  0.
         23    2    4    4    0    0 -0.34169664738E+03 -0.30056439423E+03  0.10583357865E+04  0.11556746968E+04  0.91726844065E+02 0.  0.
         23    2    4    4    0    0  0.45341368232E+03 -0.37620276619E+02  0.52049165376E+03  0.69593123468E+03  0.80059160872E+02 0.  0.
          4    1    3    3  502    0 -0.70955767047E+02  0.19212163267E+03  0.18614057371E+03  0.27675576922E+03  0.00000000000E+00 0. -1.
         -3    1    3    3    0  502 -0.40761267895E+02  0.14606303818E+03  0.55524715457E+02  0.16148958514E+03  0.00000000000E+00 0.  1.
         11    1    5    5    0    0 -0.19902858207E+03 -0.22856913266E+03  0.73385448078E+03  0.79397646303E+03  0.00000000000E+00 0. -1.
        -11    1    5    5    0    0 -0.14266806531E+03 -0.71995261572E+02  0.32448130568E+03  0.36169823373E+03  0.00000000000E+00 0.  1.
          1    1    6    6  503    0  0.45000770560E+03 -0.43717664939E+02  0.51978976120E+03  0.68891187039E+03  0.00000000000E+00 0. -1.
         -1    1    6    6    0  503  0.34059767216E+01  0.60973883200E+01  0.70189256015E+00  0.70193642817E+01  0.00000000000E+00 0.  1.
<mgrwt>
<rscale>  0 0.13889655E+04</rscale>
<asrwt>0</asrwt>
<pdfrwt beam="1">  1        2 0.31618030E+00 0.13889655E+04</pdfrwt>
<pdfrwt beam="2">  1       -1 0.36104506E-01 0.13889655E+04</pdfrwt>
<totfact> 0.50723575E+01</totfact>
</mgrwt>
</event>
<event>
12    6  0.1586493E-007  0.1530719E+04  0.7818608E-02  0.8864278E-01
         -1   -1    0    0    0  501 -0.00000000000E+00  0.00000000000E+00  0.78800635457E+03  0.78800635457E+03  0.00000000000E+00 0.  1.
          2   -1    0    0  501    0  0.00000000000E+00 -0.00000000000E+00 -0.74336365876E+03  0.74336365876E+03  0.00000000000E+00 0. -1.
         24    2    1    2    0    0  0.16482235620E+03 -0.40304824561E+02 -0.43670527426E+03  0.47524503447E+03  0.79721127898E+02 0.  0.
        254    2    1    2    0    0 -0.16482235620E+03  0.40304824561E+02  0.48134797007E+03  0.10561249789E+04  0.92461517114E+03 0.  0.
         23    2    4    4    0    0  0.16459728767E+03  0.31497335216E+03 -0.46450372433E+02  0.36953801937E+03  0.90001283232E+02 0.  0.
         23    2    4    4    0    0 -0.32941964387E+03 -0.27466852760E+03  0.52779834250E+03  0.68658695949E+03  0.94183123600E+02 0.  0.
          2    1    3    3  502    0  0.15563186100E+03 -0.39087847630E+02 -0.43744219595E+03  0.46594507272E+03  0.00000000000E+00 0. -1.
         -1    1    3    3    0  502  0.91904951997E+01 -0.12169769308E+01  0.73692169732E+00  0.92999617447E+01  0.00000000000E+00 0.  1.
         11    1    5    5    0    0  0.17247970131E+03  0.26955586008E+03 -0.34171811947E+02  0.32183430799E+03  0.00000000000E+00 0. -1.
        -11    1    5    5    0    0 -0.78824136471E+01  0.45417492083E+02 -0.12278560485E+02  0.47703711382E+02  0.00000000000E+00 0.  1.
          4    1    6    6  503    0 -0.29370253523E+03 -0.20651113544E+03  0.40081622905E+03  0.53810935481E+03  0.00000000000E+00 0. -1.
         -4    1    6    6    0  503 -0.35717108643E+02 -0.68157392166E+02  0.12698211345E+03  0.14847760468E+03  0.00000000000E+00 0.  1.
<mgrwt>
<rscale>  0 0.15307192E+04</rscale>
<asrwt>0</asrwt>
<pdfrwt beam="1">  1        2 0.11436364E+00 0.15307192E+04</pdfrwt>
<pdfrwt beam="2">  1       -1 0.12123175E+00 0.15307192E+04</pdfrwt>
<totfact> 0.25217986E+01</totfact>
</mgrwt>
</event>
<event>
12    6  0.1586493E-007  0.1958421E+04  0.7818608E-02  0.8626311E-01
         -1   -1    0    0    0  501 -0.00000000000E+00  0.00000000000E+00  0.98068174894E+03  0.98068174894E+03  0.00000000000E+00 0.  1.
          2   -1    0    0  501    0  0.00000000000E+00 -0.00000000000E+00 -0.97774187787E+03  0.97774187787E+03  0.00000000000E+00 0. -1.
         24    2    1    2    0    0  0.73516216201E+03 -0.19783168948E+03 -0.13394311403E+03  0.77711163506E+03  0.79755587480E+02 0.  0.
        254    2    1    2    0    0 -0.73516216201E+03  0.19783168948E+03  0.13688298510E+03  0.11813119917E+04  0.89283833274E+03 0.  0.
         23    2    4    4    0    0 -0.38053133547E+03  0.23547995711E+03  0.49103015979E+03  0.67052778331E+03  0.90785367180E+02 0.  0.
         23    2    4    4    0    0 -0.35463082654E+03 -0.37648267632E+02 -0.35414717469E+03  0.51078420843E+03  0.91103628084E+02 0.  0.
          4    1    3    3  502    0  0.11299692525E+03 -0.40938011724E+02  0.61956711418E+01  0.12034372547E+03  0.00000000000E+00 0. -1.
         -3    1    3    3    0  502  0.62216523676E+03 -0.15689367776E+03 -0.14013878517E+03  0.65676790959E+03  0.00000000000E+00 0.  1.
         11    1    5    5    0    0 -0.13952049781E+03  0.36866428141E+02  0.15428472617E+03  0.21125548409E+03  0.00000000000E+00 0.  1.
        -11    1    5    5    0    0 -0.24101083766E+03  0.19861352897E+03  0.33674543362E+03  0.45927229922E+03  0.00000000000E+00 0. -1.
          1    1    6    6  503    0 -0.24341600480E+03 -0.66722094399E+01 -0.29012603390E+03  0.37877299972E+03  0.00000000000E+00 0. -1.
         -1    1    6    6    0  503 -0.11121482174E+03 -0.30976058192E+02 -0.64021140791E+02  0.13201120871E+03  0.00000000000E+00 0.  1.
<mgrwt>
<rscale>  0 0.19584214E+04</rscale>
<asrwt>0</asrwt>
<pdfrwt beam="1">  1        2 0.15042183E+00 0.19584214E+04</pdfrwt>
<pdfrwt beam="2">  1       -1 0.15087412E+00 0.19584214E+04</pdfrwt>
<totfact> 0.95107990E+00</totfact>
</mgrwt>
</event>
<event>
12    6  0.1586493E-007  0.1048056E+04  0.7818608E-02  0.9257353E-01
          2   -1    0    0  501    0  0.00000000000E+00  0.00000000000E+00  0.16442264283E+04  0.16442264283E+04  0.00000000000E+00 0. -1.
         -1   -1    0    0    0  501 -0.00000000000E+00 -0.00000000000E+00 -0.16701193879E+03  0.16701193879E+03  0.00000000000E+00 0.  1.
         24    2    1    2    0    0 -0.12860649022E+02 -0.90741686389E+01  0.38611634569E+03  0.39514560996E+03  0.82501417140E+02 0.  0.
        254    2    1    2    0    0  0.12860649022E+02  0.90741686389E+01  0.10910981438E+04  0.14160927571E+04  0.90253853131E+03 0.  0.
         23    2    4    4    0    0  0.23639002246E+03  0.37757982519E+03  0.64885180005E+03  0.79215238451E+03  0.89721651444E+02 0.  0.
         23    2    4    4    0    0 -0.22352937344E+03 -0.36850565655E+03  0.44224634376E+03  0.62394037262E+03  0.89207400524E+02 0.  0.
          4    1    3    3  502    0  0.21622372363E+02 -0.30024648270E+02  0.26290728152E+03  0.26549810766E+03  0.00000000000E+00 0. -1.
         -3    1    3    3    0  502 -0.34483021385E+02  0.20950479631E+02  0.12320906417E+03  0.12964750230E+03  0.00000000000E+00 0.  1.
         11    1    5    5    0    0  0.14801409538E+03  0.30354657466E+03  0.45543653033E+03  0.56698424014E+03  0.00000000000E+00 0.  1.
        -11    1    5    5    0    0  0.88375927080E+02  0.74033250535E+02  0.19341526973E+03  0.22516814436E+03  0.00000000000E+00 0. -1.
          4    1    6    6  503    0 -0.15126733392E+03 -0.19822439638E+03  0.30300473886E+03  0.39241125035E+03  0.00000000000E+00 0. -1.
         -4    1    6    6    0  503 -0.72262039519E+02 -0.17028126017E+03  0.13924160491E+03  0.23152912227E+03  0.00000000000E+00 0.  1.
<mgrwt>
<rscale>  0 0.10480562E+04</rscale>
<asrwt>0</asrwt>
<pdfrwt beam="1">  1        2 0.25295790E+00 0.10480562E+04</pdfrwt>
<pdfrwt beam="2">  1       -1 0.25694146E-01 0.10480562E+04</pdfrwt>
<totfact> 0.15967712E+02</totfact>
</mgrwt>
</event>
<event>
12    6  0.1586493E-007  0.2545079E+04  0.7818608E-02  0.8387100E-01
          2   -1    0    0  501    0  0.00000000000E+00  0.00000000000E+00  0.36159054643E+04  0.36159054643E+04  0.00000000000E+00 0. -1.
         -1   -1    0    0    0  501 -0.00000000000E+00 -0.00000000000E+00 -0.44784269349E+03  0.44784269349E+03  0.00000000000E+00 0.  1.
         24    2    1    2    0    0  0.53006651017E+03  0.82847448555E+03  0.55885284689E+03  0.11341408084E+04  0.81353491069E+02 0.  0.
        254    2    1    2    0    0 -0.53006651017E+03 -0.82847448555E+03  0.26092099240E+04  0.29296073494E+04  0.89848890693E+03 0.  0.
         23    2    4    4    0    0 -0.75821841881E+03 -0.67491764943E+03  0.22332009501E+04  0.24547861119E+04  0.91538884284E+02 0.  0.
         23    2    4    4    0    0  0.22815190864E+03 -0.15355683611E+03  0.37600897386E+03  0.47482123752E+03  0.91866554556E+02 0.  0.
          4    1    3    3  502    0  0.22839073597E+03  0.39518780902E+03  0.29939172106E+03  0.54586732391E+03  0.00000000000E+00 0. -1.
         -3    1    3    3    0  502  0.30167577420E+03  0.43328667652E+03  0.25946112583E+03  0.58827348453E+03  0.00000000000E+00 0.  1.
         11    1    5    5    0    0 -0.39717005952E+03 -0.40954771761E+03  0.12079597740E+04  0.13359042648E+04  0.00000000000E+00 0.  1.
        -11    1    5    5    0    0 -0.36104835929E+03 -0.26536993182E+03  0.10252411761E+04  0.11188818470E+04  0.00000000000E+00 0. -1.
          1    1    6    6  503    0  0.15828464428E+03 -0.11255326626E+03  0.18892974330E+03  0.27095518867E+03  0.00000000000E+00 0. -1.
         -1    1    6    6    0  503  0.69867264353E+02 -0.41003569850E+02  0.18707923055E+03  0.20386604885E+03  0.00000000000E+00 0.  1.
<mgrwt>
<rscale>  0 0.25450790E+04</rscale>
<asrwt>0</asrwt>
<pdfrwt beam="1">  1        2 0.55629313E+00 0.25450790E+04</pdfrwt>
<pdfrwt beam="2">  1       -1 0.68898878E-01 0.25450790E+04</pdfrwt>
<totfact> 0.14502154E+00</totfact>
</mgrwt>
</event>
<event>
12    6  0.1586493E-007  0.1372351E+04  0.7818608E-02  0.8974079E-01
          2   -1    0    0  501    0  0.00000000000E+00  0.00000000000E+00  0.25280227801E+04  0.25280227801E+04  0.00000000000E+00 0. -1.
         -1   -1    0    0    0  501 -0.00000000000E+00 -0.00000000000E+00 -0.18624718086E+03  0.18624718086E+03  0.00000000000E+00 0.  1.
         24    2    1    2    0    0 -0.10947060699E+03 -0.36421288769E+03  0.61241128373E+03  0.72520764321E+03  0.79017111933E+02 0.  0.
        254    2    1    2    0    0  0.10947060699E+03  0.36421288769E+03  0.17293643155E+04  0.19890623178E+04  0.90610878308E+03 0.  0.
         23    2    4    4    0    0  0.38783781021E+03 -0.80985071712E+02  0.10475586838E+04  0.11235851121E+04  0.89930858128E+02 0.  0.
         23    2    4    4    0    0 -0.27836720322E+03  0.44519795940E+03  0.68180563172E+03  0.86547720566E+03  0.92208194861E+02 0.  0.
          2    1    3    3  502    0 -0.11932261989E+03 -0.31304290164E+03  0.54884521363E+03  0.64301229725E+03  0.00000000000E+00 0. -1.
         -1    1    3    3    0  502  0.98520128982E+01 -0.51169986049E+02  0.63566070095E+02  0.82195345961E+02  0.00000000000E+00 0.  1.
         11    1    5    5    0    0  0.36396440209E+03 -0.53379551359E+02  0.98056461659E+03  0.10472948151E+04  0.00000000000E+00 0.  1.
        -11    1    5    5    0    0  0.23873408116E+02 -0.27605520353E+02  0.66994067211E+02  0.76290296962E+02  0.00000000000E+00 0. -1.
          1    1    6    6  503    0 -0.22301837081E+03  0.27478991746E+03  0.44883719016E+03  0.57157809242E+03  0.00000000000E+00 0. -1.
         -1    1    6    6    0  503 -0.55348832406E+02  0.17040804195E+03  0.23296844155E+03  0.29389911325E+03  0.00000000000E+00 0.  1.
<mgrwt>
<rscale>  0 0.13723514E+04</rscale>
<asrwt>0</asrwt>
<pdfrwt beam="1">  1        2 0.38892656E+00 0.13723514E+04</pdfrwt>
<pdfrwt beam="2">  1       -1 0.28653414E-01 0.13723514E+04</pdfrwt>
<totfact> 0.41360717E+01</totfact>
</mgrwt>
</event>
<event>
12    6  0.1586493E-007  0.2252856E+04  0.7818608E-02  0.8496745E-01
          2   -1    0    0  501    0  0.00000000000E+00  0.00000000000E+00  0.52407383490E+04  0.52407383490E+04  0.00000000000E+00 0. -1.
         -1   -1    0    0    0  501 -0.00000000000E+00 -0.00000000000E+00 -0.24211102101E+03  0.24211102101E+03  0.00000000000E+00 0.  1.
         24    2    1    2    0    0  0.11470387103E+02  0.92518608213E+03  0.16465625055E+04  0.18904507922E+04  0.80840934770E+02 0.  0.
        254    2    1    2    0    0 -0.11470387103E+02 -0.92518608213E+03  0.33520648225E+04  0.35923985779E+04  0.90160307873E+03 0.  0.
         23    2    4    4    0    0 -0.18263431632E+03 -0.70351778603E+03  0.31531090810E+04  0.32370333706E+04  0.89418103417E+02 0.  0.
         23    2    4    4    0    0  0.17116392922E+03 -0.22166829609E+03  0.19895574156E+03  0.35536520726E+03  0.90923700293E+02 0.  0.
          4    1    3    3  502    0  0.89712373658E+01  0.51897802558E+02  0.13256980728E+03  0.14264858504E+03  0.00000000000E+00 0. -1.
         -3    1    3    3    0  502  0.24991497371E+01  0.87328827957E+03  0.15139926982E+04  0.17478022071E+04  0.00000000000E+00 0.  1.
         11    1    5    5    0    0 -0.79177573996E+02 -0.32812529221E+03  0.12703137764E+04  0.13143943039E+04  0.00000000000E+00 0. -1.
        -11    1    5    5    0    0 -0.10345674233E+03 -0.37539249382E+03  0.18827953046E+04  0.19226390667E+04  0.00000000000E+00 0.  1.
          2    1    6    6  503    0  0.61430536055E+02 -0.53049442905E+02  0.14557256913E+02  0.82461311421E+02  0.00000000000E+00 0. -1.
         -2    1    6    6    0  503  0.10973339317E+03 -0.16861885319E+03  0.18439848464E+03  0.27290389584E+03  0.00000000000E+00 0.  1.
<mgrwt>
<rscale>  0 0.22528564E+04</rscale>
<asrwt>0</asrwt>
<pdfrwt beam="1">  1        2 0.80626735E+00 0.22528564E+04</pdfrwt>
<pdfrwt beam="2">  1       -1 0.37247853E-01 0.22528564E+04</pdfrwt>
<totfact> 0.11775678E-01</totfact>
</mgrwt>
</event>
<event>
12    6  0.1586493E-007  0.2795156E+04  0.7818608E-02  0.8304774E-01
         -1   -1    0    0    0  501 -0.00000000000E+00  0.00000000000E+00  0.12255816725E+04  0.12255816725E+04  0.00000000000E+00 0.  1.
          2   -1    0    0  501    0  0.00000000000E+00 -0.00000000000E+00 -0.15937124705E+04  0.15937124705E+04  0.00000000000E+00 0. -1.
         24    2    1    2    0    0  0.74799243593E+03 -0.33799626345E+03 -0.11153724310E+04  0.13875090773E+04  0.85974539519E+02 0.  0.
        254    2    1    2    0    0 -0.74799243593E+03  0.33799626345E+03  0.74724163300E+03  0.14317850656E+04  0.90438059344E+03 0.  0.
         23    2    4    4    0    0 -0.15318787426E+03 -0.44954577594E+02  0.69223602011E+03  0.71641598951E+03  0.92594403864E+02 0.  0.
         23    2    4    4    0    0 -0.59480456167E+03  0.38295084104E+03  0.55005612889E+02  0.71536907613E+03  0.91013649490E+02 0.  0.
          2    1    3    3  502    0  0.18279479850E+03 -0.59592274577E+02 -0.31299080650E+03  0.36732604386E+03  0.00000000000E+00 0. -1.
         -1    1    3    3    0  502  0.56519763744E+03 -0.27840398887E+03 -0.80238162449E+03  0.10201830334E+04  0.00000000000E+00 0.  1.
         11    1    5    5    0    0 -0.14528473776E+03 -0.28016962387E+02  0.67488125164E+03  0.69091049277E+03  0.00000000000E+00 0.  1.
        -11    1    5    5    0    0 -0.79031364959E+01 -0.16937615207E+02  0.17354768470E+02  0.25505496741E+02  0.00000000000E+00 0. -1.
          3    1    6    6  503    0 -0.44880195293E+03  0.24893902868E+03  0.62720477612E+02  0.51703741767E+03  0.00000000000E+00 0. -1.
         -3    1    6    6    0  503 -0.14600260874E+03  0.13401181236E+03 -0.77148647231E+01  0.19833165846E+03  0.00000000000E+00 0.  1.
<mgrwt>
<rscale>  0 0.27951564E+04</rscale>
<asrwt>0</asrwt>
<pdfrwt beam="1">  1        2 0.24518653E+00 0.27951564E+04</pdfrwt>
<pdfrwt beam="2">  1       -1 0.18855103E+00 0.27951564E+04</pdfrwt>
<totfact> 0.20157906E+00</totfact>
</mgrwt>
</event>
<event>
12    6  0.2230626E-007  0.1418965E+04  0.7818608E-02  0.8940204E-01
         -1   -1    0    0    0  501 -0.00000000000E+00  0.00000000000E+00  0.39846955873E+03  0.39846955873E+03  0.00000000000E+00 0.  1.
          2   -1    0    0  501    0  0.00000000000E+00 -0.00000000000E+00 -0.12632464677E+04  0.12632464677E+04  0.00000000000E+00 0. -1.
         24    2    1    2    0    0  0.17157210125E+03 -0.27419961531E+03 -0.59593543326E+03  0.68258230417E+03  0.78467486187E+02 0.  0.
        254    2    1    2    0    0 -0.17157210125E+03  0.27419961531E+03 -0.26884147573E+03  0.97913372227E+03  0.88419720202E+03 0.  0.
         23    2    4    4    0    0 -0.21018951900E+03  0.55002802758E+03 -0.32844190397E+03  0.68033277371E+03  0.90929278475E+02 0.  0.
         23    2    4    4    0    0  0.38617417751E+02 -0.27582841227E+03  0.59600428247E+02  0.29880094856E+03  0.90317096066E+02 0.  0.
          2    1    3    3  502    0  0.15737067592E+03 -0.21589433201E+03 -0.43119594049E+03  0.50725322210E+03  0.00000000000E+00 0. -1.
         -1    1    3    3    0  502  0.14201425327E+02 -0.58305283297E+02 -0.16473949277E+03  0.17532908207E+03  0.00000000000E+00 0.  1.
         11    1    5    5    0    0 -0.19566980888E+03  0.49834873664E+03 -0.32550690851E+03  0.62657233014E+03  0.00000000000E+00 0. -1.
        -11    1    5    5    0    0 -0.14519710123E+02  0.51679290945E+02 -0.29349954599E+01  0.53760443571E+02  0.00000000000E+00 0.  1.
          3    1    6    6  503    0  0.35814600001E+02 -0.27801098277E+03  0.69065167664E+02  0.28869151269E+03  0.00000000000E+00 0. -1.
         -3    1    6    6    0  503  0.28028177500E+01  0.21825704994E+01 -0.94647394179E+01  0.10109435868E+02  0.00000000000E+00 0.  1.
<mgrwt>
<rscale>  0 0.14189648E+04</rscale>
<asrwt>0</asrwt>
<pdfrwt beam="1">  1        2 0.19434561E+00 0.14189648E+04</pdfrwt>
<pdfrwt beam="2">  1       -1 0.61303009E-01 0.14189648E+04</pdfrwt>
<totfact> 0.51950802E+01</totfact>
</mgrwt>
</event>
<event>
12    6  0.1586493E-007  0.1189495E+04  0.7818608E-02  0.9122102E-01
          2   -1    0    0  501    0  0.00000000000E+00  0.00000000000E+00  0.64496862348E+03  0.64496862348E+03  0.00000000000E+00 0. -1.
         -1   -1    0    0    0  501 -0.00000000000E+00 -0.00000000000E+00 -0.54843669294E+03  0.54843669294E+03  0.00000000000E+00 0.  1.
         24    2    1    2    0    0  0.16023695895E+03  0.14979110360E+03 -0.79164788545E+02  0.24707460201E+03  0.81642742996E+02 0.  0.
        254    2    1    2    0    0 -0.16023695895E+03 -0.14979110360E+03  0.17569671909E+03  0.94633071441E+03  0.90363666714E+03 0.  0.
         23    2    4    4    0    0 -0.13608455509E+03 -0.46831617105E+03  0.31274883569E+03  0.58721739310E+03  0.95777817532E+02 0.  0.
         23    2    4    4    0    0 -0.24152403866E+02  0.31852506745E+03 -0.13705211661E+03  0.35911332131E+03  0.90208301552E+02 0.  0.
          2    1    3    3  502    0  0.34782958418E+02  0.92602046696E+01  0.11801340271E+02  0.37879773217E+02  0.00000000000E+00 0. -1.
         -1    1    3    3    0  502  0.12545400054E+03  0.14053089893E+03 -0.90966128816E+02  0.20919482880E+03  0.00000000000E+00 0.  1.
         11    1    5    5    0    0 -0.20041494777E+02 -0.69649485642E+01  0.15307130264E+02  0.26162573618E+02  0.00000000000E+00 0. -1.
        -11    1    5    5    0    0 -0.11604306031E+03 -0.46135122248E+03  0.29744170543E+03  0.56105481948E+03  0.00000000000E+00 0.  1.
          3    1    6    6  503    0 -0.35853935940E+01  0.27548803568E+03 -0.84581106529E+02  0.28820214508E+03  0.00000000000E+00 0.  1.
         -3    1    6    6    0  503 -0.20567010272E+02  0.43037031773E+02 -0.52471010076E+02  0.70911176226E+02  0.00000000000E+00 0. -1.
<mgrwt>
<rscale>  0 0.11894948E+04</rscale>
<asrwt>0</asrwt>
<pdfrwt beam="1">  1        2 0.99225942E-01 0.11894948E+04</pdfrwt>
<pdfrwt beam="2">  1       -1 0.84374876E-01 0.11894948E+04</pdfrwt>
<totfact> 0.71287675E+01</totfact>
</mgrwt>
</event>
<event>
12    6  0.1586493E-007  0.1656847E+04  0.7818608E-02  0.8786366E-01
         -1   -1    0    0    0  501 -0.00000000000E+00  0.00000000000E+00  0.31347455721E+03  0.31347455721E+03  0.00000000000E+00 0.  1.
          2   -1    0    0  501    0  0.00000000000E+00 -0.00000000000E+00 -0.21892853896E+04  0.21892853896E+04  0.00000000000E+00 0. -1.
         24    2    1    2    0    0 -0.44675953201E+02 -0.39755146104E+02 -0.15339179751E+04  0.15370042439E+04  0.76819783694E+02 0.  0.
        254    2    1    2    0    0  0.44675953201E+02  0.39755146104E+02 -0.34189285732E+03  0.96575570287E+03  0.90123079137E+03 0.  0.
         23    2    4    4    0    0 -0.24141332374E+03  0.11151426616E+03 -0.53275558926E+03  0.60272298259E+03  0.93437954972E+02 0.  0.
         23    2    4    4    0    0  0.28608927694E+03 -0.71759120057E+02  0.19086273194E+03  0.36303272028E+03  0.91475285524E+02 0.  0.
          4    1    3    3  502    0 -0.50670307839E+02 -0.54300238919E+02 -0.14273915401E+04  0.14293224285E+04  0.00000000000E+00 0. -1.
         -1    1    3    3    0  502  0.59943546377E+01  0.14545092815E+02 -0.10652643499E+03  0.10768181538E+03  0.00000000000E+00 0.  1.
         11    1    5    5    0    0 -0.11436416213E+03  0.24337009667E+02 -0.15050834890E+03  0.19058912536E+03  0.00000000000E+00 0. -1.
        -11    1    5    5    0    0 -0.12704916161E+03  0.87177256494E+02 -0.38224724036E+03  0.41213385723E+03  0.00000000000E+00 0.  1.
          1    1    6    6  503    0 -0.11058826676E+01  0.37995437609E+01  0.20064570053E+02  0.20451075294E+02  0.00000000000E+00 0. -1.
         -1    1    6    6    0  503  0.28719515961E+03 -0.75558663818E+02  0.17079816188E+03  0.34258164499E+03  0.00000000000E+00 0.  1.
<mgrwt>
<rscale>  0 0.16568467E+04</rscale>
<asrwt>0</asrwt>
<pdfrwt beam="1">  1        2 0.33681313E+00 0.16568467E+04</pdfrwt>
<pdfrwt beam="2">  1       -1 0.48226856E-01 0.16568467E+04</pdfrwt>
<totfact> 0.24489952E+01</totfact>
</mgrwt>
</event>
<event>
12    6  0.1586493E-007  0.2799498E+04  0.7818608E-02  0.8303424E-01
          2   -1    0    0  501    0  0.00000000000E+00  0.00000000000E+00  0.27371965117E+04  0.27371965117E+04  0.00000000000E+00 0. -1.
         -1   -1    0    0    0  501 -0.00000000000E+00 -0.00000000000E+00 -0.71580444845E+03  0.71580444845E+03  0.00000000000E+00 0.  1.
         24    2    1    2    0    0 -0.14699509109E+03  0.11641156983E+04  0.37796968184E+03  0.12351771153E+04  0.77643479962E+02 0.  0.
        254    2    1    2    0    0  0.14699509109E+03 -0.11641156983E+04  0.16434223814E+04  0.22178238448E+04  0.91713279678E+03 0.  0.
         23    2    4    4    0    0 -0.96809112411E+00  0.14077092479E+03  0.16254042500E+03  0.23628182275E+03  0.97940387658E+02 0.  0.
         23    2    4    4    0    0  0.14796318221E+03 -0.13048866231E+04  0.14808819564E+04  0.19815420220E+04  0.94208353305E+02 0.  0.
          4    1    3    3  502    0 -0.19034109311E+02  0.45041061893E+03  0.14902681987E+03  0.47480629314E+03  0.00000000000E+00 0. -1.
         -3    1    3    3    0  502 -0.12796098178E+03  0.71370507940E+03  0.22894286198E+03  0.76037082221E+03  0.00000000000E+00 0.  1.
         11    1    5    5    0    0  0.36567884573E+02  0.14884472783E+02  0.46555805808E+02  0.61042614349E+02  0.00000000000E+00 0. -1.
        -11    1    5    5    0    0 -0.37535975697E+02  0.12588645201E+03  0.11598461919E+03  0.17523920840E+03  0.00000000000E+00 0.  1.
          4    1    6    6  503    0  0.10173754822E+03 -0.63962035900E+03  0.78548183260E+03  0.10180601366E+04  0.00000000000E+00 0.  1.
         -4    1    6    6    0  503  0.46225633994E+02 -0.66526626412E+03  0.69540012381E+03  0.96348188546E+03  0.00000000000E+00 0. -1.
<mgrwt>
<rscale>  0 0.27994981E+04</rscale>
<asrwt>0</asrwt>
<pdfrwt beam="1">  1        2 0.42110715E+00 0.27994981E+04</pdfrwt>
<pdfrwt beam="2">  1       -1 0.11012376E+00 0.27994981E+04</pdfrwt>
<totfact> 0.18987753E+00</totfact>
</mgrwt>
</event>
<event>
12    6  0.1586493E-007  0.1604792E+04  0.7818608E-02  0.8817609E-01
          2   -1    0    0  501    0  0.00000000000E+00  0.00000000000E+00  0.19486873072E+04  0.19486873072E+04  0.00000000000E+00 0. -1.
         -1   -1    0    0    0  501 -0.00000000000E+00 -0.00000000000E+00 -0.33039662309E+03  0.33039662309E+03  0.00000000000E+00 0.  1.
         24    2    1    2    0    0 -0.49171370267E+03 -0.11982718538E+03  0.79708217786E+03  0.94763974928E+03  0.80871357108E+02 0.  0.
        254    2    1    2    0    0  0.49171370267E+03  0.11982718538E+03  0.82120850629E+03  0.13314441811E+04  0.91772505508E+03 0.  0.
         23    2    4    4    0    0 -0.13808677761E+03  0.20294850696E+03 -0.31126521849E+02  0.26431536409E+03  0.92939209724E+02 0.  0.
         23    2    4    4    0    0  0.62980048028E+03 -0.83121321589E+02  0.85233502814E+03  0.10671288170E+04  0.93440423530E+02 0.  0.
          4    1    3    3  502    0  0.23209307010E+01  0.23309905592E+00  0.12607510777E+02  0.12821481290E+02  0.00000000000E+00 0. -1.
         -3    1    3    3    0  502 -0.49403463337E+03 -0.12006028443E+03  0.78447466708E+03  0.93481826799E+03  0.00000000000E+00 0.  1.
         11    1    5    5    0    0 -0.32910635309E+02  0.11606766607E+03 -0.41300730459E+02  0.12751691401E+03  0.00000000000E+00 0.  1.
        -11    1    5    5    0    0 -0.10517614230E+03  0.86880840897E+02  0.10174208610E+02  0.13679845008E+03  0.00000000000E+00 0. -1.
          3    1    6    6  503    0  0.38265122672E+03 -0.55528931533E+02  0.44140129673E+03  0.58680535810E+03  0.00000000000E+00 0. -1.
         -3    1    6    6    0  503  0.24714925356E+03 -0.27592390055E+02  0.41093373141E+03  0.48032345886E+03  0.00000000000E+00 0.  1.
<mgrwt>
<rscale>  0 0.16047925E+04</rscale>
<asrwt>0</asrwt>
<pdfrwt beam="1">  1        2 0.29979804E+00 0.16047925E+04</pdfrwt>
<pdfrwt beam="2">  1       -1 0.50830251E-01 0.16047925E+04</pdfrwt>
<totfact> 0.30306178E+01</totfact>
</mgrwt>
</event>
<event>
12    6  0.1586493E-007  0.1482415E+04  0.7818608E-02  0.8896232E-01
          2   -1    0    0  501    0  0.00000000000E+00  0.00000000000E+00  0.89718481698E+03  0.89718481698E+03  0.00000000000E+00 0. -1.
         -1   -1    0    0    0  501 -0.00000000000E+00 -0.00000000000E+00 -0.61234690002E+03  0.61234690002E+03  0.00000000000E+00 0.  1.
         24    2    1    2    0    0  0.23873592474E+03 -0.19280832158E+03  0.47202777040E+03  0.56884318921E+03  0.81255567541E+02 0.  0.
        254    2    1    2    0    0 -0.23873592474E+03  0.19280832158E+03 -0.18718985344E+03  0.94068852778E+03  0.86930142898E+03 0.  0.
         23    2    4    4    0    0 -0.43003523147E+03  0.41251171563E+03 -0.46030583472E+02  0.60332584434E+03  0.82383517741E+02 0.  0.
         23    2    4    4    0    0  0.19129930674E+03 -0.21970339405E+03 -0.14115926997E+03  0.33736268344E+03  0.94987549534E+02 0.  0.
          2    1    3    3  502    0  0.13095867071E+03 -0.81645109080E+02  0.30021783932E+03  0.33756014030E+03  0.00000000000E+00 0. -1.
         -1    1    3    3    0  502  0.10777725403E+03 -0.11116321250E+03  0.17180993107E+03  0.23128304891E+03  0.00000000000E+00 0.  1.
         11    1    5    5    0    0 -0.64343522298E+02  0.26172116088E+02 -0.11960293113E+01  0.69473009208E+02  0.00000000000E+00 0. -1.
        -11    1    5    5    0    0 -0.36569170918E+03  0.38633959954E+03 -0.44834554161E+02  0.53385283513E+03  0.00000000000E+00 0.  1.
          1    1    6    6  503    0  0.12674883475E+03 -0.15199501807E+03 -0.44503429645E+02  0.20285045693E+03  0.00000000000E+00 0. -1.
         -1    1    6    6    0  503  0.64550471982E+02 -0.67708375981E+02 -0.96655840321E+02  0.13451222650E+03  0.00000000000E+00 0.  1.
<mgrwt>
<rscale>  0 0.14824147E+04</rscale>
<asrwt>0</asrwt>
<pdfrwt beam="1">  1        2 0.13802843E+00 0.14824147E+04</pdfrwt>
<pdfrwt beam="2">  1       -1 0.94207215E-01 0.14824147E+04</pdfrwt>
<totfact> 0.35492733E+01</totfact>
</mgrwt>
</event>
<event>
12    6  0.1586493E-007  0.1587231E+04  0.7818608E-02  0.8828431E-01
         -1   -1    0    0    0  501 -0.00000000000E+00  0.00000000000E+00  0.34526890785E+03  0.34526890785E+03  0.00000000000E+00 0.  1.
          2   -1    0    0  501    0  0.00000000000E+00 -0.00000000000E+00 -0.18241604261E+04  0.18241604261E+04  0.00000000000E+00 0. -1.
         24    2    1    2    0    0 -0.21046371394E+03 -0.37078326720E+03 -0.94983607234E+03  0.10442222040E+04  0.80226185363E+02 0.  0.
        254    2    1    2    0    0  0.21046371394E+03  0.37078326720E+03 -0.52905544593E+03  0.11252071300E+04  0.89689253227E+03 0.  0.
         23    2    4    4    0    0  0.41351972948E+03  0.24336948284E+03  0.50370452673E+02  0.49159266159E+03  0.94333931232E+02 0.  0.
         23    2    4    4    0    0 -0.20305601554E+03  0.12741378435E+03 -0.57942589860E+03  0.63361446841E+03  0.90922520453E+02 0.  0.
          4    1    3    3  502    0 -0.17935026360E+03 -0.24147410506E+03 -0.66520847870E+03  0.73005382035E+03  0.00000000000E+00 0. -1.
         -1    1    3    3    0  502 -0.31113450341E+02 -0.12930916214E+03 -0.28462759364E+03  0.31416838362E+03  0.00000000000E+00 0.  1.
         11    1    5    5    0    0  0.38589323619E+03  0.22565239737E+03  0.71286695572E+02  0.45267470345E+03  0.00000000000E+00 0.  1.
        -11    1    5    5    0    0  0.27626493289E+02  0.17717085470E+02 -0.20916242900E+02  0.38917958143E+02  0.00000000000E+00 0. -1.
          3    1    6    6  503    0 -0.54321513606E+02  0.77194019545E+01 -0.21875559949E+03  0.22553143532E+03  0.00000000000E+00 0. -1.
         -3    1    6    6    0  503 -0.14873450193E+03  0.11969438240E+03 -0.36067029911E+03  0.40808303310E+03  0.00000000000E+00 0.  1.
<mgrwt>
<rscale>  0 0.15872314E+04</rscale>
<asrwt>0</asrwt>
<pdfrwt beam="1">  1        2 0.28064007E+00 0.15872314E+04</pdfrwt>
<pdfrwt beam="2">  1       -1 0.53118293E-01 0.15872314E+04</pdfrwt>
<totfact> 0.32695852E+01</totfact>
</mgrwt>
</event>
<event>
12    6  0.1586493E-007  0.1296101E+04  0.7818608E-02  0.9032663E-01
         -1   -1    0    0    0  501 -0.00000000000E+00  0.00000000000E+00  0.21833293856E+03  0.21833293856E+03  0.00000000000E+00 0.  1.
          2   -1    0    0  501    0  0.00000000000E+00 -0.00000000000E+00 -0.19235266833E+04  0.19235266833E+04  0.00000000000E+00 0. -1.
         24    2    1    2    0    0 -0.23635137456E+03  0.10539976890E+03 -0.73379294470E+03  0.78242421395E+03  0.82246467116E+02 0.  0.
        254    2    1    2    0    0  0.23635137456E+03 -0.10539976890E+03 -0.97140080002E+03  0.13594354079E+04  0.91513607207E+03 0.  0.
         23    2    4    4    0    0 -0.34662391031E+02 -0.39110669898E+03 -0.84326800008E+03  0.93465426151E+03  0.91168729694E+02 0.  0.
         23    2    4    4    0    0  0.27101376559E+03  0.28570693008E+03 -0.12813279995E+03  0.42478114638E+03  0.94573235412E+02 0.  0.
          4    1    3    3  502    0 -0.11549958020E+03  0.20253528452E+02 -0.24236979176E+03  0.26924612235E+03  0.00000000000E+00 0. -1.
         -3    1    3    3    0  502 -0.12085179436E+03  0.85146240446E+02 -0.49142315293E+03  0.51317809160E+03  0.00000000000E+00 0.  1.
         11    1    5    5    0    0 -0.49018409634E+02 -0.35440380734E+03 -0.79862789375E+03  0.87510649398E+03  0.00000000000E+00 0. -1.
        -11    1    5    5    0    0  0.14356018603E+02 -0.36702891639E+02 -0.44640106330E+02  0.59547767531E+02  0.00000000000E+00 0.  1.
          1    1    6    6  503    0  0.21975166082E+03  0.22717526045E+03 -0.60751982287E+02  0.32185430671E+03  0.00000000000E+00 0. -1.
         -1    1    6    6    0  503  0.51262104772E+02  0.58531669633E+02 -0.67380817661E+02  0.10292683967E+03  0.00000000000E+00 0.  1.
<mgrwt>
<rscale>  0 0.12961007E+04</rscale>
<asrwt>0</asrwt>
<pdfrwt beam="1">  1        2 0.29592718E+00 0.12961007E+04</pdfrwt>
<pdfrwt beam="2">  1       -1 0.33589683E-01 0.12961007E+04</pdfrwt>
<totfact> 0.68777493E+01</totfact>
</mgrwt>
</event>
<event>
12    6  0.1586493E-007  0.1118185E+04  0.7818608E-02  0.9187646E-01
         -1   -1    0    0    0  501 -0.00000000000E+00  0.00000000000E+00  0.15744717696E+03  0.15744717696E+03  0.00000000000E+00 0.  1.
          2   -1    0    0  501    0  0.00000000000E+00 -0.00000000000E+00 -0.19853298750E+04  0.19853298750E+04  0.00000000000E+00 0. -1.
         24    2    1    2    0    0  0.12326792206E+03  0.11866480589E+03 -0.18662699144E+03  0.26543200103E+03  0.79675570101E+02 0.  0.
        254    2    1    2    0    0 -0.12326792206E+03 -0.11866480589E+03 -0.16412557066E+04  0.18773450510E+04  0.89522501588E+03 0.  0.
         23    2    4    4    0    0  0.32216426001E+03  0.18245112068E+02 -0.28407127687E+03  0.43917971670E+03  0.89775490416E+02 0.  0.
         23    2    4    4    0    0 -0.44543218206E+03 -0.13690991796E+03 -0.13571844298E+04  0.14381653343E+04  0.95998947036E+02 0.  0.
          4    1    3    3  502    0  0.17407974104E+02  0.44947461195E+02 -0.97116709759E+02  0.10842032625E+03  0.00000000000E+00 0. -1.
         -3    1    3    3    0  502  0.10585994795E+03  0.73717344697E+02 -0.89510281683E+02  0.15701167478E+03  0.00000000000E+00 0.  1.
         11    1    5    5    0    0  0.13561311997E+03 -0.21870361317E+02 -0.76508130556E+02  0.15723461786E+03  0.00000000000E+00 0.  1.
        -11    1    5    5    0    0  0.18655114004E+03  0.40115473385E+02 -0.20756314631E+03  0.28194509884E+03  0.00000000000E+00 0. -1.
          3    1    6    6  503    0 -0.10179525663E+03 -0.69349631463E+02 -0.41972714891E+03  0.43742716558E+03  0.00000000000E+00 0. -1.
         -3    1    6    6    0  503 -0.34363692543E+03 -0.67560286497E+02 -0.93745728085E+03  0.10007381687E+04  0.00000000000E+00 0.  1.
<mgrwt>
<rscale>  0 0.11181853E+04</rscale>
<asrwt>0</asrwt>
<pdfrwt beam="1">  1        2 0.30543537E+00 0.11181853E+04</pdfrwt>
<pdfrwt beam="2">  1       -1 0.24222642E-01 0.11181853E+04</pdfrwt>
<totfact> 0.11395040E+02</totfact>
</mgrwt>
</event>
<event>
12    6  0.1586493E-007  0.1770167E+04  0.7818608E-02  0.8722327E-01
          2   -1    0    0  501    0  0.00000000000E+00  0.00000000000E+00  0.48770200158E+03  0.48770200158E+03  0.00000000000E+00 0. -1.
         -1   -1    0    0    0  501 -0.00000000000E+00 -0.00000000000E+00 -0.16062525245E+04  0.16062525245E+04  0.00000000000E+00 0.  1.
         24    2    1    2    0    0 -0.37141743212E+03  0.30488266205E+03  0.11466347469E+03  0.50048005036E+03  0.80176192716E+02 0.  0.
        254    2    1    2    0    0  0.37141743212E+03 -0.30488266205E+03 -0.12332139976E+04  0.15934744757E+04  0.88737804480E+03 0.  0.
         23    2    4    4    0    0  0.45219518007E+03  0.63746110850E+02 -0.10799740057E+04  0.11764132071E+04  0.95184731724E+02 0.  0.
         23    2    4    4    0    0 -0.80777747951E+02 -0.36862877290E+03 -0.15323999189E+03  0.41706126868E+03  0.89696097714E+02 0.  0.
          4    1    3    3  502    0 -0.31001419201E+03  0.21563411990E+03  0.74297818307E+02  0.38487275653E+03  0.00000000000E+00 0. -1.
         -3    1    3    3    0  502 -0.61403240112E+02  0.89248542146E+02  0.40365656383E+02  0.11560729383E+03  0.00000000000E+00 0.  1.
         11    1    5    5    0    0  0.37619228557E+03  0.66136621366E+02 -0.80340017391E+03  0.88957660033E+03  0.00000000000E+00 0.  1.
        -11    1    5    5    0    0  0.76002894507E+02 -0.23905105156E+01 -0.27657383182E+03  0.28683660673E+03  0.00000000000E+00 0. -1.
          2    1    6    6  503    0 -0.88014804376E+02 -0.32788229586E+03 -0.10918163461E+03  0.35661468711E+03  0.00000000000E+00 0.  1.
         -2    1    6    6    0  503  0.72370564252E+01 -0.40746477039E+02 -0.44058357285E+02  0.60446581570E+02  0.00000000000E+00 0. -1.
<mgrwt>
<rscale>  0 0.17701667E+04</rscale>
<asrwt>0</asrwt>
<pdfrwt beam="1">  1        2 0.75031077E-01 0.17701667E+04</pdfrwt>
<pdfrwt beam="2">  1       -1 0.24711577E+00 0.17701667E+04</pdfrwt>
<totfact> 0.49924998E+00</totfact>
</mgrwt>
</event>
<event>
12    6  0.1586493E-007  0.1185615E+04  0.7818608E-02  0.9125542E-01
          2   -1    0    0  501    0  0.00000000000E+00  0.00000000000E+00  0.36976689849E+03  0.36976689849E+03  0.00000000000E+00 0. -1.
         -1   -1    0    0    0  501 -0.00000000000E+00 -0.00000000000E+00 -0.95038455471E+03  0.95038455471E+03  0.00000000000E+00 0.  1.
         24    2    1    2    0    0 -0.21657272705E+03  0.98408031493E+02 -0.18207462568E+03  0.31032220254E+03  0.80998847582E+02 0.  0.
        254    2    1    2    0    0  0.21657272705E+03 -0.98408031493E+02 -0.39854303055E+03  0.10098292507E+04  0.89684484808E+03 0.  0.
         23    2    4    4    0    0  0.54405179662E+03  0.25813265811E+02 -0.15528912003E+03  0.57372906948E+03  0.91605961975E+02 0.  0.
         23    2    4    4    0    0 -0.32747906957E+03 -0.12422129730E+03 -0.24325391051E+03  0.43610018118E+03  0.91309535856E+02 0.  0.
          4    1    3    3  502    0 -0.60880201346E+02  0.40768877353E+02 -0.15003374605E+02  0.74790383914E+02  0.00000000000E+00 0. -1.
         -3    1    3    3    0  502 -0.15569252570E+03  0.57639154140E+02 -0.16707125107E+03  0.23553181863E+03  0.00000000000E+00 0.  1.
         11    1    5    5    0    0  0.42048719091E+03 -0.15812382693E+02 -0.13406573968E+03  0.44162555601E+03  0.00000000000E+00 0. -1.
        -11    1    5    5    0    0  0.12356460570E+03  0.41625648504E+02 -0.21223380357E+02  0.13210351346E+03  0.00000000000E+00 0.  1.
          1    1    6    6  503    0 -0.15053479665E+03 -0.24733467416E+02 -0.64534083692E+02  0.16564153275E+03  0.00000000000E+00 0. -1.
         -1    1    6    6    0  503 -0.17694427292E+03 -0.99487829888E+02 -0.17871982682E+03  0.27045864843E+03  0.00000000000E+00 0.  1.
<mgrwt>
<rscale>  0 0.11856150E+04</rscale>
<asrwt>0</asrwt>
<pdfrwt beam="1">  1        2 0.56887216E-01 0.11856150E+04</pdfrwt>
<pdfrwt beam="2">  1       -1 0.14621301E+00 0.11856150E+04</pdfrwt>
<totfact> 0.36716820E+01</totfact>
</mgrwt>
</event>
<event>
12    6  0.1586493E-007  0.1504896E+04  0.7818608E-02  0.8881204E-01
          2   -1    0    0  501    0  0.00000000000E+00  0.00000000000E+00  0.20670986994E+04  0.20670986994E+04  0.00000000000E+00 0. -1.
         -1   -1    0    0    0  501 -0.00000000000E+00 -0.00000000000E+00 -0.27389966077E+03  0.27389966077E+03  0.00000000000E+00 0.  1.
         24    2    1    2    0    0  0.23209623379E+03 -0.31571382303E+03  0.10125422857E+04  0.10886764126E+04  0.80190843288E+02 0.  0.
        254    2    1    2    0    0 -0.23209623379E+03  0.31571382303E+03  0.78065675300E+03  0.12523219476E+04  0.89740816499E+03 0.  0.
         23    2    4    4    0    0 -0.16166438403E+03  0.13737021734E+03  0.95199571586E+03  0.97990754730E+03  0.94429913529E+02 0.  0.
         23    2    4    4    0    0 -0.70431849757E+02  0.17834360569E+03 -0.17133896286E+03  0.27241440027E+03  0.89919286753E+02 0.  0.
          2    1    3    3  502    0  0.13783511865E+03 -0.22652800048E+03  0.75651668045E+03  0.80164265276E+03  0.00000000000E+00 0. -1.
         -1    1    3    3    0  502  0.94261115139E+02 -0.89185822553E+02  0.25602560523E+03  0.28703375987E+03  0.00000000000E+00 0.  1.
         11    1    5    5    0    0 -0.43766397378E+02  0.96418285579E+02  0.38170885165E+03  0.39612325198E+03  0.00000000000E+00 0.  1.
        -11    1    5    5    0    0 -0.11789798665E+03  0.40951931760E+02  0.57028686421E+03  0.58378429532E+03  0.00000000000E+00 0. -1.
          1    1    6    6  503    0 -0.75536273851E+02  0.11307940938E+03 -0.15243294993E+03  0.20427551424E+03  0.00000000000E+00 0. -1.
         -1    1    6    6    0  503  0.51044240943E+01  0.65264196309E+02 -0.18906012939E+02  0.68138886038E+02  0.00000000000E+00 0.  1.
<mgrwt>
<rscale>  0 0.15048955E+04</rscale>
<asrwt>0</asrwt>
<pdfrwt beam="1">  1        2 0.31801517E+00 0.15048955E+04</pdfrwt>
<pdfrwt beam="2">  1       -1 0.42138411E-01 0.15048955E+04</pdfrwt>
<totfact> 0.37340529E+01</totfact>
</mgrwt>
</event>
<event>
12    6  0.1586493E-007  0.2120283E+04  0.7818608E-02  0.8552361E-01
          2   -1    0    0  501    0  0.00000000000E+00  0.00000000000E+00  0.22789824605E+04  0.22789824605E+04  0.00000000000E+00 0. -1.
         -1   -1    0    0    0  501 -0.00000000000E+00 -0.00000000000E+00 -0.49315870572E+03  0.49315870572E+03  0.00000000000E+00 0.  1.
         24    2    1    2    0    0  0.75173588380E+03 -0.31530447192E+03  0.39309691103E+03  0.90857669124E+03  0.80390754514E+02 0.  0.
        254    2    1    2    0    0 -0.75173588380E+03  0.31530447192E+03  0.13927268438E+04  0.18635644750E+04  0.93201971122E+03 0.  0.
         23    2    4    4    0    0 -0.39430475827E+03  0.56391834963E+03  0.11792286930E+04  0.13683902041E+04  0.91822071576E+02 0.  0.
         23    2    4    4    0    0 -0.35743112553E+03 -0.24861387771E+03  0.21349815077E+03  0.49517427090E+03  0.10025082790E+03 0.  0.
          4    1    3    3  502    0  0.20313889813E+02 -0.24886555467E+02  0.13615779428E+02  0.34891033401E+02  0.00000000000E+00 0. -1.
         -3    1    3    3    0  502  0.73142199398E+03 -0.29041791645E+03  0.37948113160E+03  0.87368565784E+03  0.00000000000E+00 0.  1.
         11    1    5    5    0    0 -0.18158678705E+03  0.18570355429E+03  0.41569167116E+03  0.49016235757E+03  0.00000000000E+00 0. -1.
        -11    1    5    5    0    0 -0.21271797122E+03  0.37821479534E+03  0.76353702185E+03  0.87822784654E+03  0.00000000000E+00 0.  1.
          2    1    6    6  503    0 -0.77431308845E+02 -0.10776431074E+02  0.51827275507E+02  0.93796617970E+02  0.00000000000E+00 0. -1.
         -2    1    6    6    0  503 -0.27999981668E+03 -0.23783744663E+03  0.16167087527E+03  0.40137765293E+03  0.00000000000E+00 0.  1.
<mgrwt>
<rscale>  0 0.21202830E+04</rscale>
<asrwt>0</asrwt>
<pdfrwt beam="1">  1        2 0.35061268E+00 0.21202830E+04</pdfrwt>
<pdfrwt beam="2">  1       -1 0.75870571E-01 0.21202830E+04</pdfrwt>
<totfact> 0.85154506E+00</totfact>
</mgrwt>
</event>
<event>
12    6  0.1586493E-007  0.2409723E+04  0.7818608E-02  0.8435872E-01
          2   -1    0    0  501    0  0.00000000000E+00  0.00000000000E+00  0.19560169190E+04  0.19560169190E+04  0.00000000000E+00 0. -1.
         -1   -1    0    0    0  501 -0.00000000000E+00 -0.00000000000E+00 -0.74216731107E+03  0.74216731107E+03  0.00000000000E+00 0.  1.
         24    2    1    2    0    0 -0.10934532359E+03  0.10106030012E+04  0.73541525460E+03  0.12572614624E+04  0.81215530325E+02 0.  0.
        254    2    1    2    0    0  0.10934532359E+03 -0.10106030012E+04  0.47843435333E+03  0.14409227676E+04  0.90226612818E+03 0.  0.
         23    2    4    4    0    0  0.40154948196E+03 -0.85690568560E+03  0.14265876213E+03  0.96138780760E+03  0.91573215000E+02 0.  0.
         23    2    4    4    0    0 -0.29220415838E+03 -0.15369731560E+03  0.33577559120E+03  0.47953496005E+03  0.90567076051E+02 0.  0.
          4    1    3    3  502    0 -0.36879769297E+02  0.39986049971E+03  0.24264400606E+03  0.46917443482E+03  0.00000000000E+00 0. -1.
         -3    1    3    3    0  502 -0.72465554289E+02  0.61074250149E+03  0.49277124854E+03  0.78808702760E+03  0.00000000000E+00 0.  1.
         11    1    5    5    0    0  0.35958466786E+03 -0.73236126343E+03  0.15086536683E+03  0.82970748607E+03  0.00000000000E+00 0. -1.
        -11    1    5    5    0    0  0.41964814107E+02 -0.12454442218E+03 -0.82066047050E+01  0.13168032153E+03  0.00000000000E+00 0.  1.
          2    1    6    6  503    0 -0.27255615680E+03 -0.14299512649E+03  0.33789157098E+03  0.45706146036E+03  0.00000000000E+00 0. -1.
         -2    1    6    6    0  503 -0.19648001580E+02 -0.10702189111E+02 -0.21159797741E+01  0.22473499689E+02  0.00000000000E+00 0.  1.
<mgrwt>
<rscale>  0 0.24097235E+04</rscale>
<asrwt>0</asrwt>
<pdfrwt beam="1">  1        2 0.30092568E+00 0.24097235E+04</pdfrwt>
<pdfrwt beam="2">  1       -1 0.11417959E+00 0.24097235E+04</pdfrwt>
<totfact> 0.50469400E+00</totfact>
</mgrwt>
</event>
<event>
12    6  0.1586493E-007  0.1806841E+04  0.7818608E-02  0.8702670E-01
          2   -1    0    0  501    0  0.00000000000E+00  0.00000000000E+00  0.13571202395E+04  0.13571202395E+04  0.00000000000E+00 0. -1.
         -1   -1    0    0    0  501 -0.00000000000E+00 -0.00000000000E+00 -0.60139722904E+03  0.60139722904E+03  0.00000000000E+00 0.  1.
         24    2    1    2    0    0 -0.11108338258E+03  0.54234696418E+03  0.70297033321E+03  0.89845117982E+03  0.81040025344E+02 0.  0.
        254    2    1    2    0    0  0.11108338258E+03 -0.54234696418E+03  0.52752677216E+02  0.10600662887E+04  0.90248431787E+03 0.  0.
         23    2    4    4    0    0 -0.35269983585E+02 -0.19984871643E+02  0.39797894275E+03  0.41056932063E+03  0.92393513473E+02 0.  0.
         23    2    4    4    0    0  0.14635336616E+03 -0.52236209254E+03 -0.34522626554E+03  0.64949696805E+03  0.91562402709E+02 0.  0.
          2    1    3    3  502    0 -0.28464761527E+02  0.13777263927E+03  0.23910830226E+03  0.27742444555E+03  0.00000000000E+00 0. -1.
         -1    1    3    3    0  502 -0.82618621049E+02  0.40457432491E+03  0.46386203096E+03  0.62102673427E+03  0.00000000000E+00 0.  1.
         11    1    5    5    0    0 -0.28751003736E+02 -0.45331178336E+02  0.36265703289E+03  0.36660831885E+03  0.00000000000E+00 0. -1.
        -11    1    5    5    0    0 -0.65189798494E+01  0.25346306694E+02  0.35321909866E+02  0.43961001784E+02  0.00000000000E+00 0.  1.
          2    1    6    6  503    0  0.13373475047E+03 -0.51291195252E+03 -0.34713967749E+03  0.63361629572E+03  0.00000000000E+00 0. -1.
         -2    1    6    6    0  503  0.12618615695E+02 -0.94501400190E+01  0.19134119522E+01  0.15880672332E+02  0.00000000000E+00 0.  1.
<mgrwt>
<rscale>  0 0.18068407E+04</rscale>
<asrwt>0</asrwt>
<pdfrwt beam="1">  1        2 0.20878773E+00 0.18068407E+04</pdfrwt>
<pdfrwt beam="2">  1       -1 0.92522651E-01 0.18068407E+04</pdfrwt>
<totfact> 0.18713922E+01</totfact>
</mgrwt>
</event>
<event>
12    6  0.1586493E-007  0.2655707E+04  0.7818608E-02  0.8349521E-01
          2   -1    0    0  501    0  0.00000000000E+00  0.00000000000E+00  0.66932218602E+03  0.66932218602E+03  0.00000000000E+00 0. -1.
         -1   -1    0    0    0  501 -0.00000000000E+00 -0.00000000000E+00 -0.26342998558E+04  0.26342998558E+04  0.00000000000E+00 0.  1.
         24    2    1    2    0    0  0.76080634171E+03  0.80378982659E+03 -0.37032117360E+03  0.11697488844E+04  0.79185264087E+02 0.  0.
        254    2    1    2    0    0 -0.76080634171E+03 -0.80378982659E+03 -0.15946564962E+04  0.21338731574E+04  0.88633003792E+03 0.  0.
         23    2    4    4    0    0  0.63644036214E+02 -0.25425059556E+02 -0.63713110258E+03  0.64700857724E+03  0.89370353819E+02 0.  0.
         23    2    4    4    0    0 -0.82445037792E+03 -0.77836476704E+03 -0.95752539357E+03  0.14868645801E+04  0.91330521225E+02 0.  0.
          4    1    3    3  502    0  0.72925455455E+03  0.78172339180E+03 -0.36987688082E+03  0.11312438170E+04  0.00000000000E+00 0. -1.
         -1    1    3    3    0  502  0.31551787160E+02  0.22066434796E+02 -0.44429277505E+00  0.38505067376E+02  0.00000000000E+00 0.  1.
         11    1    5    5    0    0  0.23549592556E+01 -0.44366715264E+02 -0.34938353922E+03  0.35219711631E+03  0.00000000000E+00 0. -1.
        -11    1    5    5    0    0  0.61289076958E+02  0.18941655708E+02 -0.28774756336E+03  0.29481146093E+03  0.00000000000E+00 0.  1.
          1    1    6    6  503    0 -0.34468090261E+03 -0.36978419793E+03 -0.38464824565E+03  0.63521614475E+03  0.00000000000E+00 0. -1.
         -1    1    6    6    0  503 -0.47976947531E+03 -0.40858056911E+03 -0.57287714792E+03  0.85164843539E+03  0.00000000000E+00 0.  1.
<mgrwt>
<rscale>  0 0.26557073E+04</rscale>
<asrwt>0</asrwt>
<pdfrwt beam="1">  1        2 0.10297264E+00 0.26557073E+04</pdfrwt>
<pdfrwt beam="2">  1       -1 0.40527690E+00 0.26557073E+04</pdfrwt>
<totfact> 0.28650660E-01</totfact>
</mgrwt>
</event>
<event>
12    6  0.1586493E-007  0.1184116E+04  0.7818608E-02  0.9126875E-01
          2   -1    0    0  501    0  0.00000000000E+00  0.00000000000E+00  0.16259520380E+04  0.16259520380E+04  0.00000000000E+00 0. -1.
         -1   -1    0    0    0  501 -0.00000000000E+00 -0.00000000000E+00 -0.21558593976E+03  0.21558593976E+03  0.00000000000E+00 0.  1.
         24    2    1    2    0    0 -0.18864283444E+03 -0.30887900014E+02  0.72270586508E+02  0.22001094615E+03  0.81495996223E+02 0.  0.
        254    2    1    2    0    0  0.18864283444E+03  0.30887900014E+02  0.13380955117E+04  0.16215270316E+04  0.89571766443E+03 0.  0.
         23    2    4    4    0    0  0.35040366914E+03  0.37612972365E+03  0.80885296518E+03  0.96275206691E+03  0.91608529584E+02 0.  0.
         23    2    4    4    0    0 -0.16176083470E+03 -0.34524182364E+03  0.52924254653E+03  0.65877496468E+03  0.92348776939E+02 0.  0.
          2    1    3    3  502    0 -0.73882834639E+02 -0.35916295381E+02  0.65278477358E+02  0.10492822849E+03  0.00000000000E+00 0. -1.
         -3    1    3    3    0  502 -0.11475999980E+03  0.50283953671E+01  0.69921091501E+01  0.11508271766E+03  0.00000000000E+00 0.  1.
         11    1    5    5    0    0  0.25854173590E+03  0.27437597421E+03  0.51246395312E+03  0.63619596641E+03  0.00000000000E+00 0.  1.
        -11    1    5    5    0    0  0.91861933242E+02  0.10175374945E+03  0.29638901206E+03  0.32655610050E+03  0.00000000000E+00 0. -1.
          4    1    6    6  503    0 -0.15373849853E+03 -0.34468173253E+03  0.53005581203E+03  0.65069208274E+03  0.00000000000E+00 0.  1.
         -4    1    6    6    0  503 -0.80223361768E+01 -0.56009110422E+00 -0.81326549804E+00  0.80828819458E+01  0.00000000000E+00 0. -1.
<mgrwt>
<rscale>  0 0.11841155E+04</rscale>
<asrwt>0</asrwt>
<pdfrwt beam="1">  1        2 0.25014646E+00 0.11841155E+04</pdfrwt>
<pdfrwt beam="2">  1       -1 0.33167069E-01 0.11841155E+04</pdfrwt>
<totfact> 0.10366135E+02</totfact>
</mgrwt>
</event>
<event>
12    6  0.1586493E-007  0.1513836E+04  0.7818608E-02  0.8875304E-01
         -1   -1    0    0    0  501 -0.00000000000E+00  0.00000000000E+00  0.42971757655E+03  0.42971757655E+03  0.00000000000E+00 0.  1.
          2   -1    0    0  501    0  0.00000000000E+00 -0.00000000000E+00 -0.13332599006E+04  0.13332599006E+04  0.00000000000E+00 0. -1.
         24    2    1    2    0    0 -0.28118914303E+03 -0.92627241848E+02  0.13431820078E+03  0.33464661413E+03  0.79371513749E+02 0.  0.
        254    2    1    2    0    0  0.28118914303E+03  0.92627241848E+02 -0.10378605248E+04  0.14283308630E+04  0.93558935714E+03 0.  0.
         23    2    4    4    0    0  0.13337772423E+03 -0.12870075139E+03  0.11844336723E+03  0.23811823534E+03  0.91202861957E+02 0.  0.
         23    2    4    4    0    0  0.14781141880E+03  0.22132799324E+03 -0.11563038921E+04  0.11902126277E+04  0.93451122013E+02 0.  0.
          2    1    3    3  502    0 -0.28589383145E+02  0.97103434932E+01  0.30731653779E+02  0.43082225376E+02  0.00000000000E+00 0. -1.
         -1    1    3    3    0  502 -0.25259975989E+03 -0.10233758534E+03  0.10358654700E+03  0.29156438875E+03  0.00000000000E+00 0.  1.
         11    1    5    5    0    0  0.56152762752E+02 -0.74730714058E+02  0.10875470659E+03  0.14340641057E+03  0.00000000000E+00 0.  1.
        -11    1    5    5    0    0  0.77224961477E+02 -0.53970037336E+02  0.96886606426E+01  0.94711824765E+02  0.00000000000E+00 0. -1.
          1    1    6    6  503    0 -0.95187491785E+01  0.42315479358E+02 -0.20143828971E+03  0.20605482508E+03  0.00000000000E+00 0. -1.
         -1    1    6    6    0  503  0.15733016798E+03  0.17901251388E+03 -0.95486560235E+03  0.98415780261E+03  0.00000000000E+00 0.  1.
<mgrwt>
<rscale>  0 0.15138365E+04</rscale>
<asrwt>0</asrwt>
<pdfrwt beam="1">  1        2 0.20511691E+00 0.15138365E+04</pdfrwt>
<pdfrwt beam="2">  1       -1 0.66110397E-01 0.15138365E+04</pdfrwt>
<totfact> 0.40336084E+01</totfact>
</mgrwt>
</event>
<event>
12    6  0.1586493E-007  0.1239389E+04  0.7818608E-02  0.9079061E-01
          4   -1    0    0  501    0  0.00000000000E+00  0.00000000000E+00  0.68046498927E+03  0.68046498927E+03  0.00000000000E+00 0. -1.
         -3   -1    0    0    0  501 -0.00000000000E+00 -0.00000000000E+00 -0.56435143545E+03  0.56435143545E+03  0.00000000000E+00 0.  1.
         24    2    1    2    0    0 -0.33890341587E+01 -0.11105148251E+02 -0.26655543078E+03  0.27826395680E+03  0.79020390436E+02 0.  0.
        254    2    1    2    0    0  0.33890341587E+01  0.11105148251E+02  0.38266898460E+03  0.96655246792E+03  0.88749834456E+03 0.  0.
         23    2    4    4    0    0  0.23795755822E+03  0.33925732734E+03  0.33530600696E+02  0.42575796202E+03  0.91794375487E+02 0.  0.
         23    2    4    4    0    0 -0.23456852406E+03 -0.32815217909E+03  0.34913838390E+03  0.54079450590E+03  0.88627542969E+02 0.  0.
          2    1    3    3  502    0  0.70609648375E+01 -0.34878305959E+02 -0.57635540424E+02  0.67736319437E+02  0.00000000000E+00 0. -1.
         -1    1    3    3    0  502 -0.10449998996E+02  0.23773157707E+02 -0.20891989036E+03  0.21052763736E+03  0.00000000000E+00 0.  1.
         11    1    5    5    0    0  0.21888924231E+03  0.27686062735E+03  0.54730089343E+02  0.35715499444E+03  0.00000000000E+00 0. -1.
        -11    1    5    5    0    0  0.19068315909E+02  0.62396699991E+02 -0.21199488647E+02  0.68602967576E+02  0.00000000000E+00 0.  1.
          1    1    6    6  503    0 -0.20959369542E+03 -0.27198393880E+03  0.25231987369E+03  0.42611043026E+03  0.00000000000E+00 0. -1.
         -1    1    6    6    0  503 -0.24974828639E+02 -0.56168240297E+02  0.96818510216E+02  0.11468407563E+03  0.00000000000E+00 0.  1.
<mgrwt>
<rscale>  0 0.12393892E+04</rscale>
<asrwt>0</asrwt>
<pdfrwt beam="1">  1        4 0.10468692E+00 0.12393892E+04</pdfrwt>
<pdfrwt beam="2">  1       -3 0.86823298E-01 0.12393892E+04</pdfrwt>
<totfact> 0.20125550E+00</totfact>
</mgrwt>
</event>
<event>
12    6  0.1586493E-007  0.1897965E+04  0.7818608E-02  0.8655870E-01
         -1   -1    0    0    0  501 -0.00000000000E+00  0.00000000000E+00  0.50739461231E+03  0.50739461231E+03  0.00000000000E+00 0.  1.
          2   -1    0    0  501    0  0.00000000000E+00 -0.00000000000E+00 -0.17748873084E+04  0.17748873084E+04  0.00000000000E+00 0. -1.
         24    2    1    2    0    0 -0.10308108262E+03  0.16484417342E+03 -0.13352395510E+04  0.13516523462E+04  0.79373139396E+02 0.  0.
        254    2    1    2    0    0  0.10308108262E+03 -0.16484417342E+03  0.67746854923E+02  0.93062957453E+03  0.90756953317E+03 0.  0.
         23    2    4    4    0    0  0.11873902877E+03 -0.53031013640E+03  0.48076423430E+02  0.55294822535E+03  0.90069971188E+02 0.  0.
         23    2    4    4    0    0 -0.15657946156E+02  0.36546596298E+03  0.19670431492E+02  0.37768134918E+03  0.91900676131E+02 0.  0.
          2    1    3    3  502    0 -0.55777923633E+02  0.13570537726E+03 -0.11103460423E+04  0.11199979731E+04  0.00000000000E+00 0. -1.
         -1    1    3    3    0  502 -0.47303158982E+02  0.29138796157E+02 -0.22489350875E+03  0.23165437308E+03  0.00000000000E+00 0.  1.
         11    1    5    5    0    0  0.11742818890E+03 -0.52189198977E+03  0.33404104004E+02  0.53598177460E+03  0.00000000000E+00 0.  1.
        -11    1    5    5    0    0  0.13108398711E+01 -0.84181466213E+01  0.14672319426E+02  0.16966450750E+02  0.00000000000E+00 0. -1.
          1    1    6    6  503    0 -0.21508547027E+02  0.17642419721E+03  0.53369073474E+02  0.18557039893E+03  0.00000000000E+00 0. -1.
         -1    1    6    6    0  503  0.58506008708E+01  0.18904176577E+03 -0.33698641982E+02  0.19211095025E+03  0.00000000000E+00 0.  1.
<mgrwt>
<rscale>  0 0.18979655E+04</rscale>
<asrwt>0</asrwt>
<pdfrwt beam="1">  1        2 0.27305958E+00 0.18979655E+04</pdfrwt>
<pdfrwt beam="2">  1       -1 0.78060710E-01 0.18979655E+04</pdfrwt>
<totfact> 0.15621542E+01</totfact>
</mgrwt>
</event>
<event>
12    6  0.1586493E-007  0.1283846E+04  0.7818608E-02  0.9042475E-01
          2   -1    0    0  501    0  0.00000000000E+00  0.00000000000E+00  0.14585403568E+04  0.14585403568E+04  0.00000000000E+00 0. -1.
         -1   -1    0    0    0  501 -0.00000000000E+00 -0.00000000000E+00 -0.28251874545E+03  0.28251874545E+03  0.00000000000E+00 0.  1.
         24    2    1    2    0    0  0.23286707220E+02 -0.29961792570E+03  0.44491264171E+03  0.54273444636E+03  0.79374103990E+02 0.  0.
        254    2    1    2    0    0 -0.23286707220E+02  0.29961792570E+03  0.73110896966E+03  0.11983246559E+04  0.90063782026E+03 0.  0.
         23    2    4    4    0    0 -0.23179482009E+02  0.39765477971E+03  0.89646971836E+03  0.98527648622E+03  0.91897693887E+02 0.  0.
         23    2    4    4    0    0 -0.10722521115E+00 -0.98036854012E+02 -0.16536074870E+03  0.21304816969E+03  0.91837406074E+02 0.  0.
          4    1    3    3  502    0  0.21928463062E+02 -0.21857611980E+03  0.25702707110E+03  0.33811136171E+03  0.00000000000E+00 0. -1.
         -3    1    3    3    0  502  0.13582441585E+01 -0.81041805903E+02  0.18788557061E+03  0.20462308466E+03  0.00000000000E+00 0.  1.
         11    1    5    5    0    0 -0.25199186058E+02  0.12930951745E+03  0.20635745450E+03  0.24482514028E+03  0.00000000000E+00 0. -1.
        -11    1    5    5    0    0  0.20197040491E+01  0.26834526226E+03  0.69011226386E+03  0.74045134594E+03  0.00000000000E+00 0.  1.
          2    1    6    6  503    0 -0.37498085829E+01  0.61479328024E+01  0.79958328180E+01  0.10760645176E+02  0.00000000000E+00 0.  1.
         -2    1    6    6    0  503  0.36425833718E+01 -0.10418478681E+03 -0.17335658152E+03  0.20228752451E+03  0.00000000000E+00 0. -1.
<mgrwt>
<rscale>  0 0.12838458E+04</rscale>
<asrwt>0</asrwt>
<pdfrwt beam="1">  1        2 0.22439082E+00 0.12838458E+04</pdfrwt>
<pdfrwt beam="2">  1       -1 0.43464423E-01 0.12838458E+04</pdfrwt>
<totfact> 0.78258852E+01</totfact>
</mgrwt>
</event>
<event>
12    6  0.1586493E-007  0.1317850E+04  0.7818608E-02  0.9015528E-01
          2   -1    0    0  501    0  0.00000000000E+00  0.00000000000E+00  0.46566455153E+03  0.46566455153E+03  0.00000000000E+00 0. -1.
         -1   -1    0    0    0  501 -0.00000000000E+00 -0.00000000000E+00 -0.93239272345E+03  0.93239272345E+03  0.00000000000E+00 0.  1.
         24    2    1    2    0    0  0.17975583738E+03 -0.19876886303E+03 -0.26677130052E+03  0.38596778738E+03  0.77349751988E+02 0.  0.
        254    2    1    2    0    0 -0.17975583738E+03  0.19876886303E+03 -0.19995687140E+03  0.10120894876E+04  0.95525973353E+03 0.  0.
         23    2    4    4    0    0 -0.32638902172E+03 -0.28860946148E+03 -0.21969995574E+03  0.49472081664E+03  0.81580641703E+02 0.  0.
         23    2    4    4    0    0  0.14663318434E+03  0.48737832450E+03  0.19743084346E+02  0.51736867096E+03  0.90783425587E+02 0.  0.
          2    1    3    3  502    0  0.21831083485E+02 -0.60736938048E+01 -0.25412255105E+01  0.22802275975E+02  0.00000000000E+00 0. -1.
         -1    1    3    3    0  502  0.15792475390E+03 -0.19269516922E+03 -0.26423007501E+03  0.36316551141E+03  0.00000000000E+00 0.  1.
         11    1    5    5    0    0 -0.17984416985E+03 -0.12950568588E+03 -0.14940035644E+03  0.26727535354E+03  0.00000000000E+00 0. -1.
        -11    1    5    5    0    0 -0.14654485187E+03 -0.15910377560E+03 -0.70299599300E+02  0.22744546309E+03  0.00000000000E+00 0.  1.
          1    1    6    6  503    0  0.15604515992E+03  0.47160448098E+03  0.27315074833E+02  0.49750074545E+03  0.00000000000E+00 0. -1.
         -1    1    6    6    0  503 -0.94119755792E+01  0.15773843529E+02 -0.75719904873E+01  0.19867925506E+02  0.00000000000E+00 0.  1.
<mgrwt>
<rscale>  0 0.13178501E+04</rscale>
<asrwt>0</asrwt>
<pdfrwt beam="1">  1        2 0.71640701E-01 0.13178501E+04</pdfrwt>
<pdfrwt beam="2">  1       -1 0.14344503E+00 0.13178501E+04</pdfrwt>
<totfact> 0.29442493E+01</totfact>
</mgrwt>
</event>
<event>
12    6  0.1586493E-007  0.2908799E+04  0.7818608E-02  0.8270264E-01
          2   -1    0    0  501    0  0.00000000000E+00  0.00000000000E+00  0.14709253978E+04  0.14709253978E+04  0.00000000000E+00 0. -1.
         -1   -1    0    0    0  501 -0.00000000000E+00 -0.00000000000E+00 -0.14380589652E+04  0.14380589652E+04  0.00000000000E+00 0.  1.
         24    2    1    2    0    0 -0.52521646197E+02 -0.88922399623E+03 -0.95009894760E+03  0.13054119474E+04  0.89075830168E+02 0.  0.
        254    2    1    2    0    0  0.52521646197E+02  0.88922399623E+03  0.98296538019E+03  0.16035724155E+04  0.90096931937E+03 0.  0.
         23    2    4    4    0    0  0.24872404575E+03 -0.25057537266E+02  0.45167886883E+03  0.52418870979E+03  0.90931137763E+02 0.  0.
         23    2    4    4    0    0 -0.19620239955E+03  0.91428153349E+03  0.53128651136E+03  0.10793837058E+04  0.91639091057E+02 0.  0.
          4    1    3    3  502    0  0.23850011307E+02 -0.16195918504E+03 -0.16210577069E+03  0.23038637448E+03  0.00000000000E+00 0. -1.
         -3    1    3    3    0  502 -0.76371657504E+02 -0.72726481119E+03 -0.78799317691E+03  0.10750255730E+04  0.00000000000E+00 0.  1.
         11    1    5    5    0    0  0.19647493135E+03  0.70555916064E+01  0.39238798849E+03  0.43888553580E+03  0.00000000000E+00 0.  1.
        -11    1    5    5    0    0  0.52249114399E+02 -0.32113128872E+02  0.59290880344E+02  0.85303173994E+02  0.00000000000E+00 0. -1.
          3    1    6    6  503    0 -0.23973115220E+02  0.86602673602E+02  0.22320728134E+02  0.92590216723E+02  0.00000000000E+00 0. -1.
         -3    1    6    6    0  503 -0.17222928433E+03  0.82767885989E+03  0.50896578323E+03  0.98679348903E+03  0.00000000000E+00 0.  1.
<mgrwt>
<rscale>  0 0.29087987E+04</rscale>
<asrwt>0</asrwt>
<pdfrwt beam="1">  1        2 0.22629622E+00 0.29087987E+04</pdfrwt>
<pdfrwt beam="2">  1       -1 0.22123984E+00 0.29087987E+04</pdfrwt>
<totfact> 0.13980144E+00</totfact>
</mgrwt>
</event>
<event>
12    6  0.1586493E-007  0.2228239E+04  0.7818608E-02  0.8506766E-01
         -1   -1    0    0    0  501 -0.00000000000E+00  0.00000000000E+00  0.18851592392E+04  0.18851592392E+04  0.00000000000E+00 0.  1.
          2   -1    0    0  501    0  0.00000000000E+00 -0.00000000000E+00 -0.65843870597E+03  0.65843870597E+03  0.00000000000E+00 0. -1.
         24    2    1    2    0    0  0.64357401656E+03 -0.63898119886E+03  0.30198332185E+03  0.95946176073E+03  0.82996724951E+02 0.  0.
        254    2    1    2    0    0 -0.64357401656E+03  0.63898119886E+03  0.92473721136E+03  0.15841361844E+04  0.91206581638E+03 0.  0.
         23    2    4    4    0    0  0.40563302836E+02  0.41556009102E+03  0.25951495718E+02  0.42923202330E+03  0.96078503863E+02 0.  0.
         23    2    4    4    0    0 -0.68413731940E+03  0.22342110783E+03  0.89878571564E+03  0.11549041611E+04  0.89593501456E+02 0.  0.
          2    1    3    3  502    0  0.13718511753E+03 -0.17303791420E+03  0.48211636855E+02  0.22602264964E+03  0.00000000000E+00 0. -1.
         -1    1    3    3    0  502  0.50638889903E+03 -0.46594328466E+03  0.25377168500E+03  0.73343911110E+03  0.00000000000E+00 0.  1.
         11    1    5    5    0    0  0.31871662147E+02  0.34860474802E+03  0.57428306263E+02  0.35473804920E+03  0.00000000000E+00 0. -1.
        -11    1    5    5    0    0  0.86916406891E+01  0.66955343006E+02 -0.31476810545E+02  0.74493974098E+02  0.00000000000E+00 0.  1.
          4    1    6    6  503    0 -0.51646974279E+03  0.20422311200E+03  0.71556332340E+03  0.90580292806E+03  0.00000000000E+00 0. -1.
         -4    1    6    6    0  503 -0.16766757661E+03  0.19197995833E+02  0.18322239224E+03  0.24910123305E+03  0.00000000000E+00 0.  1.
<mgrwt>
<rscale>  0 0.22282386E+04</rscale>
<asrwt>0</asrwt>
<pdfrwt beam="1">  1        2 0.10129826E+00 0.22282386E+04</pdfrwt>
<pdfrwt beam="2">  1       -1 0.29002450E+00 0.22282386E+04</pdfrwt>
<totfact> 0.17654739E+00</totfact>
</mgrwt>
</event>
<event>
12    6  0.1586493E-007  0.2035142E+04  0.7818608E-02  0.8590365E-01
          2   -1    0    0  501    0  0.00000000000E+00  0.00000000000E+00  0.15826414201E+04  0.15826414201E+04  0.00000000000E+00 0. -1.
         -1   -1    0    0    0  501 -0.00000000000E+00 -0.00000000000E+00 -0.65425483084E+03  0.65425483084E+03  0.00000000000E+00 0.  1.
         24    2    1    2    0    0  0.70056135747E+03  0.16199624639E+03 -0.37607177480E+02  0.72442415450E+03  0.79668415356E+02 0.  0.
        254    2    1    2    0    0 -0.70056135747E+03 -0.16199624639E+03  0.96599376674E+03  0.15124720964E+04  0.91509501457E+03 0.  0.
         23    2    4    4    0    0 -0.34138065611E+03  0.29458485362E+03  0.76202936940E+03  0.89001414514E+03  0.90085683562E+02 0.  0.
         23    2    4    4    0    0 -0.35918070135E+03 -0.45658110000E+03  0.20396439735E+03  0.62245795130E+03  0.91516930908E+02 0.  0.
          2    1    3    3  502    0  0.17956886357E+03  0.38576097824E+02  0.25020254548E+02  0.18536209220E+03  0.00000000000E+00 0. -1.
         -1    1    3    3    0  502  0.52099249389E+03  0.12342014856E+03 -0.62627432029E+02  0.53906206230E+03  0.00000000000E+00 0.  1.
         11    1    5    5    0    0 -0.22628991711E+03  0.17848005548E+03  0.56274846393E+03  0.63225634868E+03  0.00000000000E+00 0.  1.
        -11    1    5    5    0    0 -0.11509073900E+03  0.11610479813E+03  0.19928090547E+03  0.25775779646E+03  0.00000000000E+00 0. -1.
          2    1    6    6  503    0 -0.20262811119E+03 -0.26504318091E+03  0.16441708149E+03  0.37193953255E+03  0.00000000000E+00 0. -1.
         -2    1    6    6    0  503 -0.15655259017E+03 -0.19153791909E+03  0.39547315857E+02  0.25051841874E+03  0.00000000000E+00 0.  1.
<mgrwt>
<rscale>  0 0.20351421E+04</rscale>
<asrwt>0</asrwt>
<pdfrwt beam="1">  1        2 0.24348329E+00 0.20351421E+04</pdfrwt>
<pdfrwt beam="2">  1       -1 0.10065459E+00 0.20351421E+04</pdfrwt>
<totfact> 0.11300788E+01</totfact>
</mgrwt>
</event>
<event>
12    6  0.1586493E-007  0.2371501E+04  0.7818608E-02  0.8450251E-01
         -3   -1    0    0    0  501 -0.00000000000E+00  0.00000000000E+00  0.17011457449E+04  0.17011457449E+04  0.00000000000E+00 0.  1.
          2   -1    0    0  501    0  0.00000000000E+00 -0.00000000000E+00 -0.82650461217E+03  0.82650461217E+03  0.00000000000E+00 0. -1.
         24    2    1    2    0    0  0.47360199262E+03 -0.66660901430E+03  0.10163832925E+04  0.13068467781E+04  0.78403308859E+02 0.  0.
        254    2    1    2    0    0 -0.47360199262E+03  0.66660901430E+03 -0.14174215973E+03  0.12208035790E+04  0.89532346849E+03 0.  0.
         23    2    4    4    0    0 -0.40619080443E+03  0.60669152015E+03 -0.46699331058E+03  0.87121923427E+03  0.88739122210E+02 0.  0.
         23    2    4    4    0    0 -0.67411188197E+02  0.59917494149E+02  0.32525115084E+03  0.34958434471E+03  0.91030371521E+02 0.  0.
          2    1    3    3  502    0  0.81654260554E+02 -0.73467175237E+02  0.11842747717E+03  0.16152371793E+03  0.00000000000E+00 0. -1.
         -1    1    3    3    0  502  0.39194773207E+03 -0.59314183906E+03  0.89795581528E+03  0.11453230602E+04  0.00000000000E+00 0.  1.
         11    1    5    5    0    0 -0.27073499384E+03  0.46440759037E+03 -0.31714862760E+03  0.62414349221E+03  0.00000000000E+00 0.  1.
        -11    1    5    5    0    0 -0.13545581059E+03  0.14228392978E+03 -0.14984468298E+03  0.24707574206E+03  0.00000000000E+00 0. -1.
          4    1    6    6  503    0 -0.41453497510E+02  0.13385325143E+02  0.26743798036E+03  0.27096241940E+03  0.00000000000E+00 0.  1.
         -4    1    6    6    0  503 -0.25957690688E+02  0.46532169005E+02  0.57813170479E+02  0.78621925307E+02  0.00000000000E+00 0. -1.
<mgrwt>
<rscale>  0 0.23715015E+04</rscale>
<asrwt>0</asrwt>
<pdfrwt beam="1">  1        2 0.12715456E+00 0.23715015E+04</pdfrwt>
<pdfrwt beam="2">  1       -3 0.26171473E+00 0.23715015E+04</pdfrwt>
<totfact> 0.11650115E+00</totfact>
</mgrwt>
</event>
<event>
12    6  0.1586493E-007  0.2318310E+04  0.7818608E-02  0.8470737E-01
          2   -1    0    0  501    0  0.00000000000E+00  0.00000000000E+00  0.20018588767E+04  0.20018588767E+04  0.00000000000E+00 0. -1.
         -1   -1    0    0    0  501 -0.00000000000E+00 -0.00000000000E+00 -0.67119615946E+03  0.67119615946E+03  0.00000000000E+00 0.  1.
         24    2    1    2    0    0  0.83906335664E+03 -0.34090057142E+03  0.97556365010E+03  0.13332750915E+04  0.75216474668E+02 0.  0.
        254    2    1    2    0    0 -0.83906335664E+03  0.34090057142E+03  0.35509906715E+03  0.13397799447E+04  0.92123527763E+03 0.  0.
         23    2    4    4    0    0  0.75605507692E+02 -0.14878613672E+03  0.21858946285E+03  0.28921842519E+03  0.89512216628E+02 0.  0.
         23    2    4    4    0    0 -0.91466886433E+03  0.48968670814E+03  0.13650960430E+03  0.10505615195E+04  0.92910875369E+02 0.  0.
          4    1    3    3  502    0  0.49677782480E+02 -0.19359812954E+02  0.86633183433E+02  0.10172508492E+03  0.00000000000E+00 0. -1.
         -3    1    3    3    0  502  0.78938557416E+03 -0.32154075847E+03  0.88893046667E+03  0.12315500065E+04  0.00000000000E+00 0.  1.
         11    1    5    5    0    0  0.67695363570E+02 -0.89141839328E+02  0.19450015861E+03  0.22440864838E+03  0.00000000000E+00 0. -1.
        -11    1    5    5    0    0  0.79101441221E+01 -0.59644297390E+02  0.24089304239E+02  0.64809776808E+02  0.00000000000E+00 0.  1.
          3    1    6    6  503    0 -0.19828022111E+02 -0.20510847359E+01  0.78999584622E+01  0.21442172305E+02  0.00000000000E+00 0. -1.
         -3    1    6    6    0  503 -0.89484084222E+03  0.49173779288E+03  0.12860964584E+03  0.10291193472E+04  0.00000000000E+00 0.  1.
<mgrwt>
<rscale>  0 0.23183097E+04</rscale>
<asrwt>0</asrwt>
<pdfrwt beam="1">  1        2 0.30797829E+00 0.23183097E+04</pdfrwt>
<pdfrwt beam="2">  1       -1 0.10326095E+00 0.23183097E+04</pdfrwt>
<totfact> 0.60775333E+00</totfact>
</mgrwt>
</event>
<event>
12    6  0.1586493E-007  0.1261114E+04  0.7818608E-02  0.9060983E-01
         -1   -1    0    0    0  501 -0.00000000000E+00  0.00000000000E+00  0.23346598042E+03  0.23346598042E+03  0.00000000000E+00 0.  1.
          2   -1    0    0  501    0  0.00000000000E+00 -0.00000000000E+00 -0.17030420085E+04  0.17030420085E+04  0.00000000000E+00 0. -1.
         24    2    1    2    0    0 -0.16978092627E+03 -0.22678985321E+03 -0.19635956376E+03  0.35460937669E+03  0.83255818477E+02 0.  0.
        254    2    1    2    0    0  0.16978092627E+03  0.22678985321E+03 -0.12732164643E+04  0.15818986122E+04  0.89502170582E+03 0.  0.
         23    2    4    4    0    0 -0.86939711999E+02  0.62507714364E+02  0.98685978168E+02  0.17343582210E+03  0.94208992258E+02 0.  0.
         23    2    4    4    0    0  0.25672063827E+03  0.16428213885E+03 -0.13719024425E+04  0.14084627901E+04  0.93578908960E+02 0.  0.
          4    1    3    3  502    0 -0.13079082157E+02 -0.87076008000E-01  0.42329369144E+01  0.13747280721E+02  0.00000000000E+00 0. -1.
         -3    1    3    3    0  502 -0.15670184412E+03 -0.22670277720E+03 -0.20059250068E+03  0.34086209597E+03  0.00000000000E+00 0.  1.
         11    1    5    5    0    0 -0.54126338481E+02 -0.15946477592E+02  0.50317183139E+02  0.75602708841E+02  0.00000000000E+00 0.  1.
        -11    1    5    5    0    0 -0.32813373518E+02  0.78454191956E+02  0.48368795028E+02  0.97833113257E+02  0.00000000000E+00 0. -1.
          1    1    6    6  503    0  0.18740363259E+03  0.12050045396E+03 -0.11610041707E+04  0.11821891410E+04  0.00000000000E+00 0. -1.
         -1    1    6    6    0  503  0.69317005685E+02  0.43781684884E+02 -0.21089827183E+03  0.22627364908E+03  0.00000000000E+00 0.  1.
<mgrwt>
<rscale>  0 0.12611144E+04</rscale>
<asrwt>0</asrwt>
<pdfrwt beam="1">  1        2 0.26200646E+00 0.12611144E+04</pdfrwt>
<pdfrwt beam="2">  1       -1 0.35917844E-01 0.12611144E+04</pdfrwt>
<totfact> 0.81002146E+01</totfact>
</mgrwt>
</event>
<event>
12    6  0.1586493E-007  0.1313202E+04  0.7818608E-02  0.9019161E-01
         -3   -1    0    0    0  501 -0.00000000000E+00  0.00000000000E+00  0.49426681644E+03  0.49426681644E+03  0.00000000000E+00 0.  1.
          2   -1    0    0  501    0  0.00000000000E+00 -0.00000000000E+00 -0.87225095674E+03  0.87225095674E+03  0.00000000000E+00 0. -1.
         24    2    1    2    0    0  0.72467034387E+02 -0.24833605504E+03 -0.31737760318E+03  0.41802462510E+03  0.84224562262E+02 0.  0.
        254    2    1    2    0    0 -0.72467034387E+02  0.24833605504E+03 -0.60606537126E+02  0.94849314808E+03  0.91051844150E+03 0.  0.
         23    2    4    4    0    0 -0.38602890121E+03  0.17621239439E+03 -0.30808094299E+03  0.53223875511E+03  0.91077464265E+02 0.  0.
         23    2    4    4    0    0  0.31356186682E+03  0.72123660647E+02  0.24747440587E+03  0.41625439297E+03  0.92202339227E+02 0.  0.
          4    1    3    3  502    0  0.82207485027E+02 -0.24716013415E+03 -0.29467800093E+03  0.39329547003E+03  0.00000000000E+00 0. -1.
         -3    1    3    3    0  502 -0.97404506402E+01 -0.11759208805E+01 -0.22699602244E+02  0.24729155073E+02  0.00000000000E+00 0.  1.
         11    1    5    5    0    0 -0.35580743103E+03  0.16401716542E+03 -0.24741406982E+03  0.46337272306E+03  0.00000000000E+00 0. -1.
        -11    1    5    5    0    0 -0.30221470175E+02  0.12195228974E+02 -0.60666873177E+02  0.68866032050E+02  0.00000000000E+00 0.  1.
          4    1    6    6  503    0  0.17823043467E+03 -0.19500591373E+01  0.10887536123E+03  0.20886295712E+03  0.00000000000E+00 0. -1.
         -4    1    6    6    0  503  0.13533143215E+03  0.74073719784E+02  0.13859904464E+03  0.20739143585E+03  0.00000000000E+00 0.  1.
<mgrwt>
<rscale>  0 0.13132017E+04</rscale>
<asrwt>0</asrwt>
<pdfrwt beam="1">  1        2 0.13419246E+00 0.13132017E+04</pdfrwt>
<pdfrwt beam="2">  1       -3 0.76041048E-01 0.13132017E+04</pdfrwt>
<totfact> 0.30978031E+01</totfact>
</mgrwt>
</event>
<event>
12    6  0.1586493E-007  0.2753677E+04  0.7818608E-02  0.8317796E-01
          2   -1    0    0  501    0  0.00000000000E+00  0.00000000000E+00  0.13524000778E+04  0.13524000778E+04  0.00000000000E+00 0. -1.
         -1   -1    0    0    0  501 -0.00000000000E+00 -0.00000000000E+00 -0.14017190297E+04  0.14017190297E+04  0.00000000000E+00 0.  1.
         24    2    1    2    0    0  0.21605332718E+02 -0.18866512388E+03 -0.12418632132E+04  0.12588395802E+04  0.79947038636E+02 0.  0.
        254    2    1    2    0    0 -0.21605332718E+02  0.18866512388E+03  0.11925442613E+04  0.14952795272E+04  0.88183770049E+03 0.  0.
         23    2    4    4    0    0 -0.30242419648E+03 -0.49572291558E+02  0.95166984136E+02  0.33404434359E+03  0.92795807589E+02 0.  0.
         23    2    4    4    0    0  0.28081886377E+03  0.23823741544E+03  0.10973772772E+04  0.11612351836E+04  0.92811437404E+02 0.  0.
          4    1    3    3  502    0 -0.25850373008E+02 -0.49879806747E+02 -0.25337690466E+03  0.25953052368E+03  0.00000000000E+00 0. -1.
         -3    1    3    3    0  502  0.47455705726E+02 -0.13878531714E+03 -0.98848630856E+03  0.99930905653E+03  0.00000000000E+00 0.  1.
         11    1    5    5    0    0 -0.23126711658E+03 -0.60933005968E+02  0.38207333047E+02  0.24219230113E+03  0.00000000000E+00 0.  1.
        -11    1    5    5    0    0 -0.71157079908E+02  0.11360714410E+02  0.56959651089E+02  0.91852042465E+02  0.00000000000E+00 0. -1.
          1    1    6    6  503    0  0.35541735877E+02  0.73187491958E+02  0.18350926657E+03  0.20073682992E+03  0.00000000000E+00 0. -1.
         -1    1    6    6    0  503  0.24527712789E+03  0.16504992348E+03  0.91386801060E+03  0.96049835372E+03  0.00000000000E+00 0.  1.
<mgrwt>
<rscale>  0 0.27536775E+04</rscale>
<asrwt>0</asrwt>
<pdfrwt beam="1">  1        2 0.20806155E+00 0.27536775E+04</pdfrwt>
<pdfrwt beam="2">  1       -1 0.21564908E+00 0.27536775E+04</pdfrwt>
<totfact> 0.18052922E+00</totfact>
</mgrwt>
</event>
<event>
12    6  0.1846883E-007  0.2449190E+04  0.7818608E-02  0.8421314E-01
         -1   -1    0    0    0  501 -0.00000000000E+00  0.00000000000E+00  0.76423006947E+03  0.76423006947E+03  0.00000000000E+00 0.  1.
          2   -1    0    0  501    0  0.00000000000E+00 -0.00000000000E+00 -0.19622798114E+04  0.19622798114E+04  0.00000000000E+00 0. -1.
         24    2    1    2    0    0  0.16800631318E+03 -0.58139805330E+03  0.44595406935E+03  0.75597785313E+03  0.79860282956E+02 0.  0.
        254    2    1    2    0    0 -0.16800631318E+03  0.58139805330E+03 -0.16440038113E+04  0.19705320277E+04  0.90221844537E+03 0.  0.
         23    2    4    4    0    0 -0.46976908253E+03  0.51466117471E+03 -0.78753433243E+03  0.10555505137E+04  0.91746643842E+02 0.  0.
         23    2    4    4    0    0  0.30176276935E+03  0.66736878597E+02 -0.85646947884E+03  0.91498151398E+03  0.90203230616E+02 0.  0.
          2    1    3    3  502    0 -0.90636839907E+00 -0.30121535183E+02  0.43173003409E+02  0.52650133986E+02  0.00000000000E+00 0. -1.
         -1    1    3    3    0  502  0.16891268158E+03 -0.55127651812E+03  0.40278106594E+03  0.70332771914E+03  0.00000000000E+00 0.  1.
         11    1    5    5    0    0 -0.25078256765E+03  0.34131867988E+03 -0.47441947250E+03  0.63597497857E+03  0.00000000000E+00 0. -1.
        -11    1    5    5    0    0 -0.21898651488E+03  0.17334249483E+03 -0.31311485993E+03  0.41957553518E+03  0.00000000000E+00 0.  1.
          2    1    6    6  503    0  0.10697578688E+03 -0.19333685638E+02 -0.30789061426E+03  0.32651836200E+03  0.00000000000E+00 0. -1.
         -2    1    6    6    0  503  0.19478698248E+03  0.86070564234E+02 -0.54857886458E+03  0.58846315198E+03  0.00000000000E+00 0.  1.
<mgrwt>
<rscale>  0 0.24491903E+04</rscale>
<asrwt>0</asrwt>
<pdfrwt beam="1">  1        2 0.30188920E+00 0.24491903E+04</pdfrwt>
<pdfrwt beam="2">  1       -1 0.11757386E+00 0.24491903E+04</pdfrwt>
<totfact> 0.46502331E+00</totfact>
</mgrwt>
</event>
<event>
12    6  0.1586493E-007  0.1451799E+04  0.7818608E-02  0.8917154E-01
         -1   -1    0    0    0  501 -0.00000000000E+00  0.00000000000E+00  0.39669196630E+03  0.39669196630E+03  0.00000000000E+00 0.  1.
          2   -1    0    0  501    0  0.00000000000E+00 -0.00000000000E+00 -0.13283099443E+04  0.13283099443E+04  0.00000000000E+00 0. -1.
         24    2    1    2    0    0 -0.40281327329E+02  0.27297069579E+03  0.12141541738E+03  0.31595946347E+03  0.94620784662E+02 0.  0.
        254    2    1    2    0    0  0.40281327329E+02 -0.27297069579E+03 -0.10530333954E+04  0.14090424472E+04  0.89464277787E+03 0.  0.
         23    2    4    4    0    0 -0.17953083970E+03  0.27334529274E+03 -0.39950680944E+03  0.52459160623E+03  0.92960696366E+02 0.  0.
         23    2    4    4    0    0  0.21981216703E+03 -0.54631598853E+03 -0.65352658597E+03  0.88445084095E+03  0.91530013514E+02 0.  0.
          2    1    3    3  502    0  0.27627304272E+02  0.58192291838E+02  0.11968436897E+02  0.65519876774E+02  0.00000000000E+00 0. -1.
         -1    1    3    3    0  502 -0.67908631601E+02  0.21477840395E+03  0.10944698048E+03  0.25043958670E+03  0.00000000000E+00 0.  1.
         11    1    5    5    0    0 -0.13656859227E+03  0.20240785909E+03 -0.22793539822E+03  0.33402764493E+03  0.00000000000E+00 0. -1.
        -11    1    5    5    0    0 -0.42962247425E+02  0.70937433655E+02 -0.17157141122E+03  0.19056396130E+03  0.00000000000E+00 0.  1.
          1    1    6    6  503    0  0.20713845210E+03 -0.54471367338E+03 -0.63431367189E+03  0.86137863837E+03  0.00000000000E+00 0. -1.
         -1    1    6    6    0  503  0.12673714925E+02 -0.16023151580E+01 -0.19212914087E+02  0.23072202573E+02  0.00000000000E+00 0.  1.
<mgrwt>
<rscale>  0 0.14517987E+04</rscale>
<asrwt>0</asrwt>
<pdfrwt beam="1">  1        2 0.20435537E+00 0.14517987E+04</pdfrwt>
<pdfrwt beam="2">  1       -1 0.61029535E-01 0.14517987E+04</pdfrwt>
<totfact> 0.47898432E+01</totfact>
</mgrwt>
</event>
<event>
12    6  0.1586493E-007  0.1610910E+04  0.7818608E-02  0.8813873E-01
         -1   -1    0    0    0  501 -0.00000000000E+00  0.00000000000E+00  0.30932130083E+03  0.30932130083E+03  0.00000000000E+00 0.  1.
          2   -1    0    0  501    0  0.00000000000E+00 -0.00000000000E+00 -0.20973595703E+04  0.20973595703E+04  0.00000000000E+00 0. -1.
         24    2    1    2    0    0 -0.67862486760E+02 -0.20655134196E+03  0.13599095106E+03  0.26856395497E+03  0.79776469978E+02 0.  0.
        254    2    1    2    0    0  0.67862486760E+02  0.20655134196E+03 -0.19240292206E+04  0.21381169162E+04  0.90685540840E+03 0.  0.
         23    2    4    4    0    0  0.20344675702E+03  0.45371746030E+03 -0.16841837101E+04  0.17589452483E+04  0.10081418803E+03 0.  0.
         23    2    4    4    0    0 -0.13558427026E+03 -0.24716611834E+03 -0.23984551050E+03  0.37917166791E+03  0.82286696604E+02 0.  0.
          2    1    3    3  502    0 -0.54155133467E+01 -0.14077389653E+03  0.81440397478E+02  0.16272417175E+03  0.00000000000E+00 0. -1.
         -1    1    3    3    0  502 -0.62446973413E+02 -0.65777445426E+02  0.54550553587E+02  0.10583978322E+03  0.00000000000E+00 0.  1.
         11    1    5    5    0    0  0.21166897426E+03  0.44446483898E+03 -0.16637456388E+04  0.17350510939E+04  0.00000000000E+00 0.  1.
        -11    1    5    5    0    0 -0.82222172398E+01  0.92526213174E+01 -0.20438071221E+02  0.23894154365E+02  0.00000000000E+00 0. -1.
          3    1    6    6  503    0  0.79029135572E+01 -0.44171634727E+02 -0.42030892971E+02  0.61483211701E+02  0.00000000000E+00 0. -1.
         -3    1    6    6    0  503 -0.14348718382E+03 -0.20299448361E+03 -0.19781461753E+03  0.31768845621E+03  0.00000000000E+00 0.  1.
<mgrwt>
<rscale>  0 0.16109103E+04</rscale>
<asrwt>0</asrwt>
<pdfrwt beam="1">  1        2 0.32267071E+00 0.16109103E+04</pdfrwt>
<pdfrwt beam="2">  1       -1 0.47587892E-01 0.16109103E+04</pdfrwt>
<totfact> 0.28378820E+01</totfact>
</mgrwt>
</event>
<event>
12    6  0.1586493E-007  0.2661401E+04  0.7818608E-02  0.8347639E-01
         -1   -1    0    0    0  501 -0.00000000000E+00  0.00000000000E+00  0.41116902146E+03  0.41116902146E+03  0.00000000000E+00 0.  1.
          2   -1    0    0  501    0  0.00000000000E+00 -0.00000000000E+00 -0.43066555506E+04  0.43066555506E+04  0.00000000000E+00 0. -1.
         24    2    1    2    0    0 -0.35551145836E+03 -0.21661555282E+03 -0.36723613968E+04  0.36967934491E+04  0.82054138482E+02 0.  0.
        254    2    1    2    0    0  0.35551145836E+03  0.21661555282E+03 -0.22312513231E+03  0.10210311230E+04  0.90521214897E+03 0.  0.
         23    2    4    4    0    0  0.20790950980E+03  0.55608225994E+03 -0.22178207074E+03  0.64011573672E+03  0.90039021638E+02 0.  0.
         23    2    4    4    0    0  0.14760194856E+03 -0.33946670712E+03 -0.13430615684E+01  0.38091538624E+03  0.89837337454E+02 0.  0.
          2    1    3    3  502    0 -0.93699725061E+02 -0.81783488055E+02 -0.13800690300E+04  0.13856618293E+04  0.00000000000E+00 0. -1.
         -1    1    3    3    0  502 -0.26181173330E+03 -0.13483206476E+03 -0.22922923667E+04  0.23111316198E+04  0.00000000000E+00 0.  1.
         11    1    5    5    0    0  0.89866054346E+02  0.36183360593E+03 -0.12733967759E+03  0.39397317116E+03  0.00000000000E+00 0. -1.
        -11    1    5    5    0    0  0.11804345545E+03  0.19424865401E+03 -0.94442393158E+02  0.24614256557E+03  0.00000000000E+00 0.  1.
          2    1    6    6  503    0  0.10410416210E+03 -0.26071737689E+03  0.36923522616E+02  0.28315114992E+03  0.00000000000E+00 0. -1.
         -2    1    6    6    0  503  0.43497786467E+02 -0.78749330230E+02 -0.38266584184E+02  0.97764236326E+02  0.00000000000E+00 0.  1.
<mgrwt>
<rscale>  0 0.26614006E+04</rscale>
<asrwt>0</asrwt>
<pdfrwt beam="1">  1        2 0.66256237E+00 0.26614006E+04</pdfrwt>
<pdfrwt beam="2">  1       -1 0.63256775E-01 0.26614006E+04</pdfrwt>
<totfact> 0.47575038E-01</totfact>
</mgrwt>
</event>
<event>
12    6  0.1586493E-007  0.1862302E+04  0.7818608E-02  0.8673852E-01
         -1   -1    0    0    0  501 -0.00000000000E+00  0.00000000000E+00  0.29671327452E+03  0.29671327452E+03  0.00000000000E+00 0.  1.
          2   -1    0    0  501    0  0.00000000000E+00 -0.00000000000E+00 -0.29221538953E+04  0.29221538953E+04  0.00000000000E+00 0. -1.
         24    2    1    2    0    0 -0.23163110890E+03  0.66060252745E+03 -0.12345929887E+04  0.14216225420E+04  0.82110500835E+02 0.  0.
        254    2    1    2    0    0  0.23163110890E+03 -0.66060252745E+03 -0.13908476320E+04  0.17972446278E+04  0.89754244837E+03 0.  0.
         23    2    4    4    0    0 -0.22013787303E+03 -0.58385214666E+03 -0.55698648499E+03  0.84138932866E+03  0.91422347512E+02 0.  0.
         23    2    4    4    0    0  0.45176898192E+03 -0.76750380791E+02 -0.83386114705E+03  0.95585529911E+03  0.91373444193E+02 0.  0.
          2    1    3    3  502    0 -0.23681815863E+03  0.64422632282E+03 -0.11888683700E+04  0.13727776209E+04  0.00000000000E+00 0. -1.
         -1    1    3    3    0  502  0.51870497295E+01  0.16376204625E+02 -0.45724618759E+02  0.48844921164E+02  0.00000000000E+00 0.  1.
         11    1    5    5    0    0 -0.14352839386E+03 -0.45005093039E+03 -0.45931357915E+03  0.65887419420E+03  0.00000000000E+00 0. -1.
        -11    1    5    5    0    0 -0.76609479165E+02 -0.13380121627E+03 -0.97672905846E+02  0.18251513446E+03  0.00000000000E+00 0.  1.
          1    1    6    6  503    0  0.45595466373E+03 -0.76329199610E+02 -0.83037724205E+03  0.95039316402E+03  0.00000000000E+00 0. -1.
         -1    1    6    6    0  503 -0.41856818068E+01 -0.42118118105E+00 -0.34839049937E+01  0.54621350935E+01  0.00000000000E+00 0.  1.
<mgrwt>
<rscale>  0 0.18623016E+04</rscale>
<asrwt>0</asrwt>
<pdfrwt beam="1">  1        2 0.44956214E+00 0.18623016E+04</pdfrwt>
<pdfrwt beam="2">  1       -1 0.45648196E-01 0.18623016E+04</pdfrwt>
<totfact> 0.99551428E+00</totfact>
</mgrwt>
</event>
<event>
12    6  0.1586493E-007  0.1294588E+04  0.7818608E-02  0.9033868E-01
          2   -1    0    0  501    0  0.00000000000E+00  0.00000000000E+00  0.23198354150E+04  0.23198354150E+04  0.00000000000E+00 0. -1.
         -1   -1    0    0    0  501 -0.00000000000E+00 -0.00000000000E+00 -0.18061171897E+03  0.18061171897E+03  0.00000000000E+00 0.  1.
         24    2    1    2    0    0 -0.48659437290E+02 -0.48172718377E+02 -0.59895181965E+02  0.12125785538E+03  0.80172832272E+02 0.  0.
        254    2    1    2    0    0  0.48659437290E+02  0.48172718377E+02  0.21991188780E+04  0.23791892786E+04  0.90538910540E+03 0.  0.
         23    2    4    4    0    0  0.25763958690E+03  0.39414161155E+03  0.13867466260E+04  0.14673547618E+04  0.91312789988E+02 0.  0.
         23    2    4    4    0    0 -0.20898014961E+03 -0.34596889317E+03  0.81237225201E+03  0.91183451679E+03  0.90146171289E+02 0.  0.
          4    1    3    3  502    0 -0.30994859123E+02 -0.18549647435E+02  0.14759819789E+02  0.39020802044E+02  0.00000000000E+00 0. -1.
         -3    1    3    3    0  502 -0.17664578167E+02 -0.29623070942E+02 -0.74655001753E+02  0.82237053332E+02  0.00000000000E+00 0.  1.
         11    1    5    5    0    0  0.20871719647E+03  0.34862596298E+03  0.10924776208E+04  0.11655943901E+04  0.00000000000E+00 0.  1.
        -11    1    5    5    0    0  0.48922390427E+02  0.45515648572E+02  0.29426900514E+03  0.30176037172E+03  0.00000000000E+00 0. -1.
          4    1    6    6  503    0 -0.15842710359E+03 -0.31680333397E+03  0.66773656646E+03  0.75586746309E+03  0.00000000000E+00 0.  1.
         -4    1    6    6    0  503 -0.50553046021E+02 -0.29165559198E+02  0.14463568555E+03  0.15596705370E+03  0.00000000000E+00 0. -1.
<mgrwt>
<rscale>  0 0.12945879E+04</rscale>
<asrwt>0</asrwt>
<pdfrwt beam="1">  1        2 0.35689773E+00 0.12945879E+04</pdfrwt>
<pdfrwt beam="2">  1       -1 0.27786420E-01 0.12945879E+04</pdfrwt>
<totfact> 0.57744565E+01</totfact>
</mgrwt>
</event>
<event>
12    6  0.1586493E-007  0.1585183E+04  0.7818608E-02  0.8829703E-01
         -1   -1    0    0    0  501 -0.00000000000E+00  0.00000000000E+00  0.90545046959E+03  0.90545046959E+03  0.00000000000E+00 0.  1.
          2   -1    0    0  501    0  0.00000000000E+00 -0.00000000000E+00 -0.69379944521E+03  0.69379944521E+03  0.00000000000E+00 0. -1.
         24    2    1    2    0    0  0.19359438636E+03 -0.40763238708E+03  0.36817664670E+03  0.58791470006E+03  0.80291356615E+02 0.  0.
        254    2    1    2    0    0 -0.19359438636E+03  0.40763238708E+03 -0.15652562232E+03  0.10113352147E+04  0.89143462840E+03 0.  0.
         23    2    4    4    0    0 -0.49724063743E+03  0.28493069810E+02 -0.80473752885E+02  0.51093585218E+03  0.80742266522E+02 0.  0.
         23    2    4    4    0    0  0.30364625108E+03  0.37913931727E+03 -0.76051869437E+02  0.50039936256E+03  0.93101920043E+02 0.  0.
          2    1    3    3  502    0  0.58049359535E+02 -0.11467298724E+03  0.60809092751E+02  0.14218779099E+03  0.00000000000E+00 0. -1.
         -1    1    3    3    0  502  0.13554502682E+03 -0.29295939984E+03  0.30736755395E+03  0.44572690907E+03  0.00000000000E+00 0.  1.
         11    1    5    5    0    0 -0.45153642701E+03  0.17381824128E+02 -0.94918417307E+02  0.46173236693E+03  0.00000000000E+00 0. -1.
        -11    1    5    5    0    0 -0.45704210426E+02  0.11111245682E+02  0.14444664422E+02  0.49203485258E+02  0.00000000000E+00 0.  1.
          3    1    6    6  503    0  0.26406093911E+03  0.35353904967E+03 -0.91761733816E+02  0.45070861430E+03  0.00000000000E+00 0. -1.
         -3    1    6    6    0  503  0.39585311965E+02  0.25600267595E+02  0.15709864379E+02  0.49690748265E+02  0.00000000000E+00 0.  1.
<mgrwt>
<rscale>  0 0.15851827E+04</rscale>
<asrwt>0</asrwt>
<pdfrwt beam="1">  1        2 0.10673838E+00 0.15851827E+04</pdfrwt>
<pdfrwt beam="2">  1       -1 0.13930007E+00 0.15851827E+04</pdfrwt>
<totfact> 0.19298522E+01</totfact>
</mgrwt>
</event>
<event>
12    6  0.1586493E-007  0.1682856E+04  0.7818608E-02  0.8771203E-01
          2   -1    0    0  501    0  0.00000000000E+00  0.00000000000E+00  0.23239783107E+04  0.23239783107E+04  0.00000000000E+00 0. -1.
         -1   -1    0    0    0  501 -0.00000000000E+00 -0.00000000000E+00 -0.30465030428E+03  0.30465030428E+03  0.00000000000E+00 0.  1.
         24    2    1    2    0    0  0.32532109345E+03  0.13014997879E+03 -0.35699100443E+02  0.36106443683E+03  0.79500131761E+02 0.  0.
        254    2    1    2    0    0 -0.32532109345E+03 -0.13014997879E+03  0.20550271068E+04  0.22675641781E+04  0.89215360857E+03 0.  0.
         23    2    4    4    0    0 -0.40400309586E+03 -0.38972671958E+03  0.80759733927E+03  0.98772570084E+03  0.91011978855E+02 0.  0.
         23    2    4    4    0    0  0.78682002408E+02  0.25957674079E+03  0.12474297675E+04  0.12798384773E+04  0.91293817326E+02 0.  0.
          2    1    3    3  502    0  0.19630802280E+03  0.11116834177E+03 -0.46052158824E+02  0.23025212564E+03  0.00000000000E+00 0. -1.
         -1    1    3    3    0  502  0.12901307064E+03  0.18981637015E+02  0.10353058381E+02  0.13081231119E+03  0.00000000000E+00 0.  1.
         11    1    5    5    0    0  0.34295306950E+00 -0.12603360790E+02  0.38444861475E+02  0.40459482125E+02  0.00000000000E+00 0. -1.
        -11    1    5    5    0    0 -0.40434604892E+03 -0.37712335879E+03  0.76915247779E+03  0.94726621871E+03  0.00000000000E+00 0.  1.
          3    1    6    6  503    0  0.51465835315E+02  0.75299385235E+02  0.27507040637E+03  0.28979727066E+03  0.00000000000E+00 0. -1.
         -3    1    6    6    0  503  0.27216167092E+02  0.18427735555E+03  0.97235936117E+03  0.99004120661E+03  0.00000000000E+00 0.  1.
<mgrwt>
<rscale>  0 0.16828555E+04</rscale>
<asrwt>0</asrwt>
<pdfrwt beam="1">  1        2 0.35753511E+00 0.16828555E+04</pdfrwt>
<pdfrwt beam="2">  1       -1 0.46869279E-01 0.16828555E+04</pdfrwt>
<totfact> 0.21650984E+01</totfact>
</mgrwt>
</event>
<event>
12    6  0.1586493E-007  0.2894265E+04  0.7818608E-02  0.8274586E-01
         -1   -1    0    0    0  501 -0.00000000000E+00  0.00000000000E+00  0.15414014392E+04  0.15414014392E+04  0.00000000000E+00 0.  1.
          2   -1    0    0  501    0  0.00000000000E+00 -0.00000000000E+00 -0.13586288133E+04  0.13586288133E+04  0.00000000000E+00 0. -1.
         24    2    1    2    0    0  0.12490237662E+04  0.25710478600E+03 -0.21538104307E+03  0.12957475702E+04  0.80059555701E+02 0.  0.
        254    2    1    2    0    0 -0.12490237662E+04 -0.25710478600E+03  0.39815366896E+03  0.16042826822E+04  0.88827548697E+03 0.  0.
         23    2    4    4    0    0 -0.91019244760E+02  0.53958758233E+02  0.37643382769E+03  0.40146874561E+03  0.90987232974E+02 0.  0.
         23    2    4    4    0    0 -0.11580045215E+04 -0.31106354423E+03  0.21719841267E+02  0.12028139366E+04  0.92491157935E+02 0.  0.
          4    1    3    3  502    0  0.89599037537E+03  0.15254419694E+03 -0.13456872561E+03  0.91879117686E+03  0.00000000000E+00 0. -1.
         -3    1    3    3    0  502  0.35303339086E+03  0.10456058905E+03 -0.80812317464E+02  0.37695639337E+03  0.00000000000E+00 0.  1.
         11    1    5    5    0    0 -0.53750101648E+02  0.72419146667E+02  0.18817682118E+03  0.20867228436E+03  0.00000000000E+00 0. -1.
        -11    1    5    5    0    0 -0.37269143112E+02 -0.18460388434E+02  0.18825700651E+03  0.19279646125E+03  0.00000000000E+00 0.  1.
          1    1    6    6  503    0 -0.10076859789E+04 -0.29634477484E+03  0.36973314396E+02  0.10510082224E+04  0.00000000000E+00 0. -1.
         -1    1    6    6    0  503 -0.15031854256E+03 -0.14718769385E+02 -0.15253473129E+02  0.15180571416E+03  0.00000000000E+00 0.  1.
<mgrwt>
<rscale>  0 0.28942650E+04</rscale>
<asrwt>0</asrwt>
<pdfrwt beam="1">  1        2 0.20901982E+00 0.28942650E+04</pdfrwt>
<pdfrwt beam="2">  1       -1 0.23713868E+00 0.28942650E+04</pdfrwt>
<totfact> 0.12728275E+00</totfact>
</mgrwt>
</event>
<event>
12    6  0.1586493E-007  0.1352557E+04  0.7818608E-02  0.8988895E-01
          2   -1    0    0  501    0  0.00000000000E+00  0.00000000000E+00  0.15259566852E+04  0.15259566852E+04  0.00000000000E+00 0. -1.
         -1   -1    0    0    0  501 -0.00000000000E+00 -0.00000000000E+00 -0.29971514689E+03  0.29971514689E+03  0.00000000000E+00 0.  1.
         24    2    1    2    0    0  0.36970051466E+03  0.23674898506E+02  0.26531552166E+03  0.46272442060E+03  0.80514545461E+02 0.  0.
        254    2    1    2    0    0 -0.36970051466E+03 -0.23674898506E+02  0.96092601663E+03  0.13629474115E+04  0.89275297011E+03 0.  0.
         23    2    4    4    0    0  0.13954819346E+03 -0.32607559677E+03  0.37781696665E+03  0.52644162176E+03  0.92715304722E+02 0.  0.
         23    2    4    4    0    0 -0.50924870812E+03  0.30240069826E+03  0.58310904998E+03  0.83650578971E+03  0.94579823480E+02 0.  0.
          4    1    3    3  502    0  0.28045232890E+03  0.20459739624E+02  0.24054702749E+03  0.37004727017E+03  0.00000000000E+00 0. -1.
         -3    1    3    3    0  502  0.89248185762E+02  0.32151588820E+01  0.24768494173E+02  0.92677150431E+02  0.00000000000E+00 0.  1.
         11    1    5    5    0    0  0.10172291309E+03 -0.17578384939E+03  0.15717635108E+03  0.25681105524E+03  0.00000000000E+00 0.  1.
        -11    1    5    5    0    0  0.37825280370E+02 -0.15029174738E+03  0.22064061557E+03  0.26963056653E+03  0.00000000000E+00 0. -1.
          3    1    6    6  503    0 -0.33842135791E+02  0.10291558289E+02  0.70181486027E+02  0.78591649098E+02  0.00000000000E+00 0. -1.
         -3    1    6    6    0  503 -0.47540657233E+03  0.29210913997E+03  0.51292756396E+03  0.75791414061E+03  0.00000000000E+00 0.  1.
<mgrwt>
<rscale>  0 0.13525566E+04</rscale>
<asrwt>0</asrwt>
<pdfrwt beam="1">  1        2 0.23476256E+00 0.13525566E+04</pdfrwt>
<pdfrwt beam="2">  1       -1 0.46110023E-01 0.13525566E+04</pdfrwt>
<totfact> 0.63885075E+01</totfact>
</mgrwt>
</event>
<event>
12    6  0.1586493E-007  0.2019118E+04  0.7818608E-02  0.8597734E-01
         -1   -1    0    0    0  501 -0.00000000000E+00  0.00000000000E+00  0.50813861425E+03  0.50813861425E+03  0.00000000000E+00 0.  1.
          2   -1    0    0  501    0  0.00000000000E+00 -0.00000000000E+00 -0.20057694209E+04  0.20057694209E+04  0.00000000000E+00 0. -1.
         24    2    1    2    0    0 -0.71282801067E+03 -0.28489073421E+03 -0.28862254943E+03  0.82382887659E+03  0.78131546987E+02 0.  0.
        254    2    1    2    0    0  0.71282801067E+03  0.28489073421E+03 -0.12090082572E+04  0.16900791586E+04  0.89742971476E+03 0.  0.
         23    2    4    4    0    0  0.83725300760E+03 -0.14771791875E+02 -0.82538907843E+03  0.11793026635E+04  0.90977122123E+02 0.  0.
         23    2    4    4    0    0 -0.12442499693E+03  0.29966252609E+03 -0.38361917881E+03  0.51077649508E+03  0.91922490054E+02 0.  0.
          2    1    3    3  502    0 -0.21278329512E+03 -0.68352366174E+02 -0.11855596579E+03  0.25299069877E+03  0.00000000000E+00 0. -1.
         -3    1    3    3    0  502 -0.50004471555E+03 -0.21653836804E+03 -0.17006658364E+03  0.57083817782E+03  0.00000000000E+00 0.  1.
         11    1    5    5    0    0  0.57990162860E+03 -0.18428302577E+00 -0.51251991839E+03  0.77392674044E+03  0.00000000000E+00 0.  1.
        -11    1    5    5    0    0  0.25735137900E+03 -0.14587508849E+02 -0.31286916004E+03  0.40537592305E+03  0.00000000000E+00 0. -1.
          2    1    6    6  503    0 -0.17907819730E+02  0.71019187257E+02 -0.36897331820E+02  0.82011145959E+02  0.00000000000E+00 0. -1.
         -2    1    6    6    0  503 -0.10651717720E+03  0.22864333883E+03 -0.34672184699E+03  0.42876534912E+03  0.00000000000E+00 0.  1.
<mgrwt>
<rscale>  0 0.20191175E+04</rscale>
<asrwt>0</asrwt>
<pdfrwt beam="1">  1        2 0.30857991E+00 0.20191175E+04</pdfrwt>
<pdfrwt beam="2">  1       -1 0.78175171E-01 0.20191175E+04</pdfrwt>
<totfact> 0.11474637E+01</totfact>
</mgrwt>
</event>
<event>
12    6  0.1586493E-007  0.2027159E+04  0.7818608E-02  0.8594027E-01
         -1   -1    0    0    0  501 -0.00000000000E+00  0.00000000000E+00  0.18844028777E+04  0.18844028777E+04  0.00000000000E+00 0.  1.
          2   -1    0    0  501    0  0.00000000000E+00 -0.00000000000E+00 -0.54518225169E+03  0.54518225169E+03  0.00000000000E+00 0. -1.
         24    2    1    2    0    0 -0.58233646284E+03  0.30975593761E+03 -0.48396704129E+02  0.66616807304E+03  0.79832097136E+02 0.  0.
        254    2    1    2    0    0  0.58233646284E+03 -0.30975593761E+03  0.13876173301E+04  0.17634170563E+04  0.86550179832E+03 0.  0.
         23    2    4    4    0    0  0.65600173658E+03 -0.50172844692E+03  0.12440962377E+04  0.14961145827E+04  0.92269622053E+02 0.  0.
         23    2    4    4    0    0 -0.73665273743E+02  0.19197250931E+03  0.14352109242E+03  0.26730247361E+03  0.92586670426E+02 0.  0.
          4    1    3    3  502    0 -0.47829807697E+03  0.27477443073E+03 -0.63982170822E+02  0.55530510209E+03  0.00000000000E+00 0. -1.
         -3    1    3    3    0  502 -0.10403838586E+03  0.34981506877E+02  0.15585466693E+02  0.11086297095E+03  0.00000000000E+00 0.  1.
         11    1    5    5    0    0  0.56496411588E+03 -0.44672863733E+03  0.10272630447E+04  0.12545996535E+04  0.00000000000E+00 0.  1.
        -11    1    5    5    0    0  0.91037620703E+02 -0.54999809587E+02  0.21683319300E+03  0.24151492920E+03  0.00000000000E+00 0. -1.
          3    1    6    6  503    0 -0.31136233495E+02  0.46569496261E+01  0.88159657533E+01  0.32693630392E+02  0.00000000000E+00 0. -1.
         -3    1    6    6    0  503 -0.42529040248E+02  0.18731555968E+03  0.13470512667E+03  0.23460884321E+03  0.00000000000E+00 0.  1.
<mgrwt>
<rscale>  0 0.20271586E+04</rscale>
<asrwt>0</asrwt>
<pdfrwt beam="1">  1        2 0.83874194E-01 0.20271586E+04</pdfrwt>
<pdfrwt beam="2">  1       -1 0.28990813E+00 0.20271586E+04</pdfrwt>
<totfact> 0.22623745E+00</totfact>
</mgrwt>
</event>
<event>
12    6  0.1586493E-007  0.1297011E+04  0.7818608E-02  0.9031939E-01
          2   -1    0    0  501    0  0.00000000000E+00  0.00000000000E+00  0.11897698165E+04  0.11897698165E+04  0.00000000000E+00 0. -1.
         -1   -1    0    0    0  501 -0.00000000000E+00 -0.00000000000E+00 -0.35347961247E+03  0.35347961247E+03  0.00000000000E+00 0.  1.
         24    2    1    2    0    0 -0.81007779745E+02  0.10839977609E+03  0.56955824359E+03  0.59094441962E+03  0.80659422284E+02 0.  0.
        254    2    1    2    0    0  0.81007779745E+02 -0.10839977609E+03  0.26673196040E+03  0.95230500931E+03  0.90411620947E+03 0.  0.
         23    2    4    4    0    0  0.13670024543E+03 -0.47807389588E+03  0.42580457549E+02  0.50683497629E+03  0.88470282013E+02 0.  0.
         23    2    4    4    0    0 -0.55692465688E+02  0.36967411979E+03  0.22415150285E+03  0.44547003303E+03  0.91864294014E+02 0.  0.
          4    1    3    3  502    0 -0.26297529316E+02  0.13583894570E+02  0.27699685027E+03  0.27857375558E+03  0.00000000000E+00 0. -1.
         -3    1    3    3    0  502 -0.54710250429E+02  0.94815881516E+02  0.29256139332E+03  0.31237066404E+03  0.00000000000E+00 0.  1.
         11    1    5    5    0    0  0.14584321992E+03 -0.46265512368E+03  0.32303668183E+02  0.48617233081E+03  0.00000000000E+00 0. -1.
        -11    1    5    5    0    0 -0.91429744847E+01 -0.15418772199E+02  0.10276789366E+02  0.20662645480E+02  0.00000000000E+00 0.  1.
          3    1    6    6  503    0 -0.79594138836E+02  0.23330154384E+03  0.14511229424E+03  0.28604617675E+03  0.00000000000E+00 0. -1.
         -3    1    6    6    0  503  0.23901673147E+02  0.13637257595E+03  0.79039208614E+02  0.15942385628E+03  0.00000000000E+00 0.  1.
<mgrwt>
<rscale>  0 0.12970110E+04</rscale>
<asrwt>0</asrwt>
<pdfrwt beam="1">  1        2 0.18304151E+00 0.12970110E+04</pdfrwt>
<pdfrwt beam="2">  1       -1 0.54381480E-01 0.12970110E+04</pdfrwt>
<totfact> 0.73323622E+01</totfact>
</mgrwt>
</event>
<event>
12    6  0.1586493E-007  0.1446804E+04  0.7818608E-02  0.8920619E-01
         -3   -1    0    0    0  501 -0.00000000000E+00  0.00000000000E+00  0.99527865073E+03  0.99527865073E+03  0.00000000000E+00 0.  1.
          2   -1    0    0  501    0  0.00000000000E+00 -0.00000000000E+00 -0.52579320917E+03  0.52579320917E+03  0.00000000000E+00 0. -1.
         24    2    1    2    0    0 -0.21884543712E+03  0.16162323361E+03  0.48805578140E+03  0.56384261764E+03  0.75529177953E+02 0.  0.
        254    2    1    2    0    0  0.21884543712E+03 -0.16162323361E+03 -0.18570339827E+02  0.95722924226E+03  0.91756611191E+03 0.  0.
         23    2    4    4    0    0  0.48876652551E+03  0.47152939492E+00 -0.24840037207E+03  0.55582713308E+03  0.91368037176E+02 0.  0.
         23    2    4    4    0    0 -0.26992108839E+03 -0.16209476301E+03  0.22983003225E+03  0.40140210918E+03  0.95758568181E+02 0.  0.
          4    1    3    3  502    0 -0.15938223060E+02  0.41229191949E+02  0.10544361302E+03  0.11433384779E+03  0.00000000000E+00 0. -1.
         -3    1    3    3    0  502 -0.20290721406E+03  0.12039404166E+03  0.38261216838E+03  0.44950876985E+03  0.00000000000E+00 0.  1.
         11    1    5    5    0    0  0.33653062105E+03  0.21601382169E+02 -0.12842605293E+03  0.36085000995E+03  0.00000000000E+00 0. -1.
        -11    1    5    5    0    0  0.15223590447E+03 -0.21129852774E+02 -0.11997431915E+03  0.19497712312E+03  0.00000000000E+00 0.  1.
          4    1    6    6  503    0 -0.16675287348E+03 -0.13504763550E+03  0.11051517571E+03  0.24136691723E+03  0.00000000000E+00 0. -1.
         -4    1    6    6    0  503 -0.10316821492E+03 -0.27047127502E+02  0.11931485653E+03  0.16003519196E+03  0.00000000000E+00 0.  1.
<mgrwt>
<rscale>  0 0.14468044E+04</rscale>
<asrwt>0</asrwt>
<pdfrwt beam="1">  1        2 0.80891263E-01 0.14468044E+04</pdfrwt>
<pdfrwt beam="2">  1       -3 0.15311979E+00 0.14468044E+04</pdfrwt>
<totfact> 0.10803548E+01</totfact>
</mgrwt>
</event>
<event>
12    6  0.1586493E-007  0.1760443E+04  0.7818608E-02  0.8727623E-01
         -1   -1    0    0    0  501 -0.00000000000E+00  0.00000000000E+00  0.27467666714E+03  0.27467666714E+03  0.00000000000E+00 0.  1.
          2   -1    0    0  501    0  0.00000000000E+00 -0.00000000000E+00 -0.28207354972E+04  0.28207354972E+04  0.00000000000E+00 0. -1.
         24    2    1    2    0    0 -0.10971759203E+03  0.48337619192E+03 -0.22209188993E+03  0.54891874034E+03  0.79350381255E+02 0.  0.
        254    2    1    2    0    0  0.10971759203E+03 -0.48337619192E+03 -0.23239669401E+04  0.25464934240E+04  0.91548671576E+03 0.  0.
         23    2    4    4    0    0 -0.79564084555E+02 -0.26494394177E+03 -0.10785671245E+03  0.30955552174E+03  0.87554638849E+02 0.  0.
         23    2    4    4    0    0  0.18928167659E+03 -0.21843225015E+03 -0.22161102277E+04  0.22369379023E+04  0.95950176421E+02 0.  0.
          2    1    3    3  502    0 -0.37612224845E+02  0.53227595155E+02 -0.19629703614E+02  0.68067478342E+02  0.00000000000E+00 0. -1.
         -1    1    3    3    0  502 -0.72105367186E+02  0.43014859676E+03 -0.20246218632E+03  0.48085126200E+03  0.00000000000E+00 0.  1.
         11    1    5    5    0    0 -0.19722366993E+02 -0.13516895961E+02  0.94749873122E+01  0.25718740654E+02  0.00000000000E+00 0.  1.
        -11    1    5    5    0    0 -0.59841717561E+02 -0.25142704581E+03 -0.11733169977E+03  0.28383678108E+03  0.00000000000E+00 0. -1.
          1    1    6    6  503    0  0.11334393498E+03 -0.90380770584E+02 -0.13882001913E+04  0.13957490113E+04  0.00000000000E+00 0. -1.
         -1    1    6    6    0  503  0.75937741603E+02 -0.12805147956E+03 -0.82791003634E+03  0.84118889097E+03  0.00000000000E+00 0.  1.
<mgrwt>
<rscale>  0 0.17604434E+04</rscale>
<asrwt>0</asrwt>
<pdfrwt beam="1">  1        2 0.43395931E+00 0.17604434E+04</pdfrwt>
<pdfrwt beam="2">  1       -1 0.42257948E-01 0.17604434E+04</pdfrwt>
<totfact> 0.13374525E+01</totfact>
</mgrwt>
</event>
<event>
12    6  0.1586493E-007  0.3399218E+04  0.7818608E-02  0.8138098E-01
         -1   -1    0    0    0  501 -0.00000000000E+00  0.00000000000E+00  0.11266264314E+04  0.11266264314E+04  0.00000000000E+00 0.  1.
          2   -1    0    0  501    0  0.00000000000E+00 -0.00000000000E+00 -0.25640007277E+04  0.25640007277E+04  0.00000000000E+00 0. -1.
         24    2    1    2    0    0  0.15573762324E+04  0.24944139422E+03 -0.56417060641E+03  0.16770224860E+04  0.80462458293E+02 0.  0.
        254    2    1    2    0    0 -0.15573762324E+04 -0.24944139422E+03 -0.87320368989E+03  0.20136046730E+04  0.89692661725E+03 0.  0.
         23    2    4    4    0    0 -0.12392147127E+03 -0.34158774632E+03 -0.19729713941E+03  0.42344823652E+03  0.91342916056E+02 0.  0.
         23    2    4    4    0    0 -0.14334547611E+04  0.92146352096E+02 -0.67590655048E+03  0.15901564365E+04  0.92001767055E+02 0.  0.
          2    1    3    3  502    0  0.33891278413E+03  0.77940894524E+02 -0.99246406558E+02  0.36164417249E+03  0.00000000000E+00 0. -1.
         -1    1    3    3    0  502  0.12184634483E+04  0.17150049970E+03 -0.46492419986E+03  0.13153783135E+04  0.00000000000E+00 0.  1.
         11    1    5    5    0    0 -0.21771186405E+02 -0.16582883460E+03 -0.12049472589E+03  0.20613627994E+03  0.00000000000E+00 0.  1.
        -11    1    5    5    0    0 -0.10215028487E+03 -0.17575891172E+03 -0.76802413518E+02  0.21731195657E+03  0.00000000000E+00 0. -1.
          3    1    6    6  503    0 -0.12016254781E+04  0.84978067868E+02 -0.60236519181E+03  0.13468366219E+04  0.00000000000E+00 0. -1.
         -3    1    6    6    0  503 -0.23182928299E+03  0.71682842282E+01 -0.73541358675E+02  0.24331981462E+03  0.00000000000E+00 0.  1.
<mgrwt>
<rscale>  0 0.33992181E+04</rscale>
<asrwt>0</asrwt>
<pdfrwt beam="1">  1        2 0.39446164E+00 0.33992181E+04</pdfrwt>
<pdfrwt beam="2">  1       -1 0.17332715E+00 0.33992181E+04</pdfrwt>
<totfact> 0.69952663E-01</totfact>
</mgrwt>
</event>
<event>
12    6  0.1586493E-007  0.1723094E+04  0.7818608E-02  0.8748302E-01
          2   -1    0    0  501    0  0.00000000000E+00  0.00000000000E+00  0.28717750446E+04  0.28717750446E+04  0.00000000000E+00 0. -1.
         -1   -1    0    0    0  501 -0.00000000000E+00 -0.00000000000E+00 -0.25846839314E+03  0.25846839314E+03  0.00000000000E+00 0.  1.
         24    2    1    2    0    0 -0.33714963769E+03  0.52167009928E+03  0.89072848311E+03  0.10887159279E+04  0.78074134159E+02 0.  0.
        254    2    1    2    0    0  0.33714963769E+03 -0.52167009928E+03  0.17225781683E+04  0.20415275098E+04  0.90263473043E+03 0.  0.
         23    2    4    4    0    0  0.25276124956E+03 -0.35424915569E+03  0.17719223615E+04  0.18268590122E+04  0.91237502455E+02 0.  0.
         23    2    4    4    0    0  0.84388388130E+02 -0.16742094360E+03 -0.49344193126E+02  0.21466849760E+03  0.92176689348E+02 0.  0.
          2    1    3    3  502    0 -0.26603695123E+03  0.42672725416E+03  0.66508869743E+03  0.83379540914E+03  0.00000000000E+00 0. -1.
         -1    1    3    3    0  502 -0.71112686458E+02  0.94942845124E+02  0.22563978568E+03  0.25492051879E+03  0.00000000000E+00 0.  1.
         11    1    5    5    0    0  0.17011449303E+03 -0.19111756295E+03  0.88308270820E+03  0.91940194318E+03  0.00000000000E+00 0. -1.
        -11    1    5    5    0    0  0.82646756534E+02 -0.16313159273E+03  0.88883965326E+03  0.90745706902E+03  0.00000000000E+00 0.  1.
          2    1    6    6  503    0  0.99282878566E+02 -0.16656992080E+03 -0.47404149773E+02  0.19962410152E+03  0.00000000000E+00 0. -1.
         -2    1    6    6    0  503 -0.14894490436E+02 -0.85102279744E+00 -0.19400433528E+01  0.15044396078E+02  0.00000000000E+00 0.  1.
<mgrwt>
<rscale>  0 0.17230938E+04</rscale>
<asrwt>0</asrwt>
<pdfrwt beam="1">  1        2 0.44181152E+00 0.17230938E+04</pdfrwt>
<pdfrwt beam="2">  1       -1 0.39764370E-01 0.17230938E+04</pdfrwt>
<totfact> 0.13974107E+01</totfact>
</mgrwt>
</event>
<event>
12    6  0.1586493E-007  0.1293431E+04  0.7818608E-02  0.9034790E-01
          2   -1    0    0  501    0  0.00000000000E+00  0.00000000000E+00  0.54539895468E+03  0.54539895468E+03  0.00000000000E+00 0. -1.
         -1   -1    0    0    0  501 -0.00000000000E+00 -0.00000000000E+00 -0.76685354220E+03  0.76685354220E+03  0.00000000000E+00 0.  1.
         24    2    1    2    0    0 -0.81111242608E+02 -0.21485470346E+03  0.19526321771E+03  0.31095320820E+03  0.76305938316E+02 0.  0.
        254    2    1    2    0    0  0.81111242608E+02  0.21485470346E+03 -0.41671780523E+03  0.10012992887E+04  0.88102494802E+03 0.  0.
         23    2    4    4    0    0  0.25805548458E+03 -0.13764949984E+03 -0.50106946684E+03  0.58741917765E+03  0.91927480903E+02 0.  0.
         23    2    4    4    0    0 -0.17694424198E+03  0.35250420330E+03  0.84351661611E+02  0.41388011103E+03  0.92806602012E+02 0.  0.
          4    1    3    3  502    0 -0.69093509329E+02 -0.16232626657E+03  0.18585319272E+03  0.25625210066E+03  0.00000000000E+00 0. -1.
         -3    1    3    3    0  502 -0.12017733280E+02 -0.52528436896E+02  0.94100249923E+01  0.54701107541E+02  0.00000000000E+00 0.  1.
         11    1    5    5    0    0  0.27812435512E+01 -0.22137296979E+02 -0.16785755600E+02  0.27920544842E+02  0.00000000000E+00 0.  1.
        -11    1    5    5    0    0  0.25527424103E+03 -0.11551220286E+03 -0.48428371124E+03  0.55949863281E+03  0.00000000000E+00 0. -1.
          2    1    6    6  503    0 -0.18135410088E+03  0.34371699786E+03  0.67608404980E+02  0.39446366239E+03  0.00000000000E+00 0. -1.
         -2    1    6    6    0  503  0.44098589065E+01  0.87872054376E+01  0.16743256631E+02  0.19416448635E+02  0.00000000000E+00 0.  1.
<mgrwt>
<rscale>  0 0.12934313E+04</rscale>
<asrwt>0</asrwt>
<pdfrwt beam="1">  1        2 0.83907532E-01 0.12934313E+04</pdfrwt>
<pdfrwt beam="2">  1       -1 0.11797747E+00 0.12934313E+04</pdfrwt>
<totfact> 0.40242056E+01</totfact>
</mgrwt>
</event>
<event>
12    6  0.1586493E-007  0.2116744E+04  0.7818608E-02  0.8553903E-01
         -1   -1    0    0    0  501 -0.00000000000E+00  0.00000000000E+00  0.46869886521E+03  0.46869886521E+03  0.00000000000E+00 0.  1.
          2   -1    0    0  501    0  0.00000000000E+00 -0.00000000000E+00 -0.23899159795E+04  0.23899159795E+04  0.00000000000E+00 0. -1.
         24    2    1    2    0    0  0.55689797266E+02 -0.39123268763E+03 -0.18526290441E+04  0.18962330191E+04  0.85445411839E+02 0.  0.
        254    2    1    2    0    0 -0.55689797266E+02  0.39123268763E+03 -0.68588070258E+02  0.96238182566E+03  0.87482003039E+03 0.  0.
         23    2    4    4    0    0 -0.77581832030E+02  0.23838821297E+03  0.38867521248E+03  0.47132190073E+03  0.90708503271E+02 0.  0.
         23    2    4    4    0    0  0.21892034763E+02  0.15284447466E+03 -0.45726328274E+03  0.49105992492E+03  0.90605990421E+02 0.  0.
          4    1    3    3  502    0  0.54858313702E+02 -0.37391377705E+03 -0.18241898907E+04  0.18629250400E+04  0.00000000000E+00 0. -1.
         -3    1    3    3    0  502  0.83148356422E+00 -0.17318910587E+02 -0.28439153375E+02  0.33307979127E+02  0.00000000000E+00 0.  1.
         11    1    5    5    0    0  0.10604276786E+02 -0.10524583077E+00  0.28706735535E+02  0.30602915350E+02  0.00000000000E+00 0. -1.
        -11    1    5    5    0    0 -0.88186108815E+02  0.23849345881E+03  0.35996847695E+03  0.44071898538E+03  0.00000000000E+00 0.  1.
          3    1    6    6  503    0  0.12098467852E+02  0.18867445953E+02 -0.10905044276E+02  0.24925357205E+02  0.00000000000E+00 0. -1.
         -3    1    6    6    0  503  0.97935669113E+01  0.13397702871E+03 -0.44635823847E+03  0.46613456772E+03  0.00000000000E+00 0.  1.
<mgrwt>
<rscale>  0 0.21167436E+04</rscale>
<asrwt>0</asrwt>
<pdfrwt beam="1">  1        2 0.36767938E+00 0.21167436E+04</pdfrwt>
<pdfrwt beam="2">  1       -1 0.72107519E-01 0.21167436E+04</pdfrwt>
<totfact> 0.81901065E+00</totfact>
</mgrwt>
</event>
<event>
12    6  0.1586493E-007  0.2092961E+04  0.7818608E-02  0.8564351E-01
         -1   -1    0    0    0  501 -0.00000000000E+00  0.00000000000E+00  0.13193793859E+04  0.13193793859E+04  0.00000000000E+00 0.  1.
          2   -1    0    0  501    0  0.00000000000E+00 -0.00000000000E+00 -0.83002756876E+03  0.83002756876E+03  0.00000000000E+00 0. -1.
         24    2    1    2    0    0  0.58368072989E+03 -0.52970810498E+03  0.52913242775E+03  0.95259724063E+03  0.78654343976E+02 0.  0.
        254    2    1    2    0    0 -0.58368072989E+03  0.52970810498E+03 -0.39780610653E+02  0.11968097140E+04  0.89972058084E+03 0.  0.
         23    2    4    4    0    0 -0.60499866652E+03  0.15080893669E+03  0.28242784821E+03  0.69057399838E+03  0.91434325733E+02 0.  0.
         23    2    4    4    0    0  0.21317936632E+02  0.37889916830E+03 -0.32220845886E+03  0.50623571561E+03  0.91854638619E+02 0.  0.
          4    1    3    3  502    0  0.38274109567E+02 -0.44194623602E+02  0.64756201514E+02  0.87243554793E+02  0.00000000000E+00 0. -1.
         -3    1    3    3    0  502  0.54540662032E+03 -0.48551348138E+03  0.46437622624E+03  0.86535368583E+03  0.00000000000E+00 0.  1.
         11    1    5    5    0    0 -0.49219824486E+03  0.10618641211E+03  0.26183826605E+03  0.56753320953E+03  0.00000000000E+00 0.  1.
        -11    1    5    5    0    0 -0.11280042166E+03  0.44622524578E+02  0.20589582164E+02  0.12304078885E+03  0.00000000000E+00 0. -1.
          2    1    6    6  503    0  0.63051165620E+01  0.14267247380E+02  0.46944426689E+01  0.16289463915E+02  0.00000000000E+00 0. -1.
         -2    1    6    6    0  503  0.15012820070E+02  0.36463192092E+03 -0.32690290153E+03  0.48994625169E+03  0.00000000000E+00 0.  1.
<mgrwt>
<rscale>  0 0.20929608E+04</rscale>
<asrwt>0</asrwt>
<pdfrwt beam="1">  1        2 0.12769655E+00 0.20929608E+04</pdfrwt>
<pdfrwt beam="2">  1       -1 0.20298144E+00 0.20929608E+04</pdfrwt>
<totfact> 0.49509806E+00</totfact>
</mgrwt>
</event>
<event>
12    6  0.1586493E-007  0.1448904E+04  0.7818608E-02  0.8919161E-01
         -1   -1    0    0    0  501 -0.00000000000E+00  0.00000000000E+00  0.49065418331E+03  0.49065418331E+03  0.00000000000E+00 0.  1.
          2   -1    0    0  501    0  0.00000000000E+00 -0.00000000000E+00 -0.10696548759E+04  0.10696548759E+04  0.00000000000E+00 0. -1.
         24    2    1    2    0    0 -0.13787121053E+03  0.64279171382E+02  0.25965971367E+03  0.31149907227E+03  0.80425260667E+02 0.  0.
        254    2    1    2    0    0  0.13787121053E+03 -0.64279171382E+02 -0.83866040630E+03  0.12488099870E+04  0.91270741418E+03 0.  0.
         23    2    4    4    0    0 -0.11500809049E+03 -0.42470230776E+03 -0.56927479894E+03  0.72458070402E+03  0.85699993195E+02 0.  0.
         23    2    4    4    0    0  0.25287930102E+03  0.36042313638E+03 -0.26938560736E+03  0.52422928295E+03  0.91624000822E+02 0.  0.
          2    1    3    3  502    0 -0.13040004837E+03  0.47832714171E+02  0.16755262993E+03  0.21763737031E+03  0.00000000000E+00 0. -1.
         -1    1    3    3    0  502 -0.74711621595E+01  0.16446457211E+02  0.92107083739E+02  0.93861701954E+02  0.00000000000E+00 0.  1.
         11    1    5    5    0    0 -0.86561783164E+00 -0.12060119928E+03 -0.11950712342E+03  0.16978619234E+03  0.00000000000E+00 0. -1.
        -11    1    5    5    0    0 -0.11414247266E+03 -0.30410110848E+03 -0.44976767553E+03  0.55479451168E+03  0.00000000000E+00 0.  1.
          3    1    6    6  503    0  0.46037399038E+02  0.40272624981E+02 -0.73698326756E+02  0.95774578045E+02  0.00000000000E+00 0. -1.
         -3    1    6    6    0  503  0.20684190198E+03  0.32015051140E+03 -0.19568728060E+03  0.42845470491E+03  0.00000000000E+00 0.  1.
<mgrwt>
<rscale>  0 0.14489039E+04</rscale>
<asrwt>0</asrwt>
<pdfrwt beam="1">  1        2 0.16456229E+00 0.14489039E+04</pdfrwt>
<pdfrwt beam="2">  1       -1 0.75485259E-01 0.14489039E+04</pdfrwt>
<totfact> 0.44406610E+01</totfact>
</mgrwt>
</event>
<event>
12    6  0.1586493E-007  0.1218633E+04  0.7818608E-02  0.9096702E-01
          2   -1    0    0  501    0  0.00000000000E+00  0.00000000000E+00  0.18156411144E+04  0.18156411144E+04  0.00000000000E+00 0. -1.
         -1   -1    0    0    0  501 -0.00000000000E+00 -0.00000000000E+00 -0.20448226984E+03  0.20448226984E+03  0.00000000000E+00 0.  1.
         24    2    1    2    0    0  0.23376497355E+02  0.53581151168E+02  0.86906000151E+03  0.87467920052E+03  0.79881269375E+02 0.  0.
        254    2    1    2    0    0 -0.23376497355E+02 -0.53581151168E+02  0.74209884308E+03  0.11454441838E+04  0.87058272716E+03 0.  0.
         23    2    4    4    0    0  0.76352819969E+02 -0.14599581831E+03  0.89934429940E+03  0.91878064884E+03  0.90516184961E+02 0.  0.
         23    2    4    4    0    0 -0.99729317324E+02  0.92414667143E+02 -0.15724545632E+03  0.22666353492E+03  0.90353843826E+02 0.  0.
          4    1    3    3  502    0  0.41962107287E+02  0.48834117654E+02  0.81058801636E+03  0.81314114504E+03  0.00000000000E+00 0. -1.
         -3    1    3    3    0  502 -0.18585609932E+02  0.47470335142E+01  0.58471985154E+02  0.61538055475E+02  0.00000000000E+00 0.  1.
         11    1    5    5    0    0  0.22347600776E+02 -0.11214310598E+03  0.42269913589E+03  0.43789273911E+03  0.00000000000E+00 0.  1.
        -11    1    5    5    0    0  0.54005219192E+02 -0.33852712331E+02  0.47664516350E+03  0.48088790973E+03  0.00000000000E+00 0. -1.
          3    1    6    6  503    0 -0.50876771174E+02  0.64411462642E+01 -0.10005607257E+03  0.11243287717E+03  0.00000000000E+00 0. -1.
         -3    1    6    6    0  503 -0.48852546150E+02  0.85973520879E+02 -0.57189383749E+02  0.11423065776E+03  0.00000000000E+00 0.  1.
<mgrwt>
<rscale>  0 0.12186327E+04</rscale>
<asrwt>0</asrwt>
<pdfrwt beam="1">  1        2 0.27932939E+00 0.12186327E+04</pdfrwt>
<pdfrwt beam="2">  1       -1 0.31458812E-01 0.12186327E+04</pdfrwt>
<totfact> 0.89140051E+01</totfact>
</mgrwt>
</event>
<event>
12    6  0.1586493E-007  0.3266794E+04  0.7818608E-02  0.8171396E-01
          2   -1    0    0  501    0  0.00000000000E+00  0.00000000000E+00  0.14042119369E+04  0.14042119369E+04  0.00000000000E+00 0. -1.
         -1   -1    0    0    0  501 -0.00000000000E+00 -0.00000000000E+00 -0.18999879513E+04  0.18999879513E+04  0.00000000000E+00 0.  1.
         24    2    1    2    0    0  0.33253857311E+03  0.13884792264E+04 -0.71904833367E+03  0.16005747493E+04  0.79702931863E+02 0.  0.
        254    2    1    2    0    0 -0.33253857311E+03 -0.13884792264E+04  0.22327231930E+03  0.17036251388E+04  0.90223700896E+03 0.  0.
         23    2    4    4    0    0 -0.61045596063E+02 -0.13162103815E+04 -0.20630944644E+02  0.13211625224E+04  0.94384540954E+02 0.  0.
         23    2    4    4    0    0 -0.27149297705E+03 -0.72268844860E+02  0.24390326395E+03  0.38246261639E+03  0.88643263976E+02 0.  0.
          2    1    3    3  502    0  0.12929691449E+03  0.49593543158E+03 -0.21714026399E+03  0.55661435361E+03  0.00000000000E+00 0. -1.
         -1    1    3    3    0  502  0.20324165862E+03  0.89254379479E+03 -0.50190806968E+03  0.10439603957E+04  0.00000000000E+00 0.  1.
         11    1    5    5    0    0 -0.44202268327E+02 -0.11741089515E+04  0.92626754640E+01  0.11749772201E+04  0.00000000000E+00 0. -1.
        -11    1    5    5    0    0 -0.16843327736E+02 -0.14210142996E+03 -0.29893620108E+02  0.14618530230E+03  0.00000000000E+00 0.  1.
          3    1    6    6  503    0 -0.79166652253E+02 -0.89822706976E+01  0.12327418566E+03  0.14678066925E+03  0.00000000000E+00 0. -1.
         -3    1    6    6    0  503 -0.19232632480E+03 -0.63286574163E+02  0.12062907828E+03  0.23568194714E+03  0.00000000000E+00 0.  1.
<mgrwt>
<rscale>  0 0.32667940E+04</rscale>
<asrwt>0</asrwt>
<pdfrwt beam="1">  1        2 0.21603261E+00 0.32667940E+04</pdfrwt>
<pdfrwt beam="2">  1       -1 0.29230584E+00 0.32667940E+04</pdfrwt>
<totfact> 0.50831360E-01</totfact>
</mgrwt>
</event>
<event>
12    6  0.1586493E-007  0.1968444E+04  0.7818608E-02  0.8621518E-01
         -1   -1    0    0    0  501 -0.00000000000E+00  0.00000000000E+00  0.47981114493E+03  0.47981114493E+03  0.00000000000E+00 0.  1.
          2   -1    0    0  501    0  0.00000000000E+00 -0.00000000000E+00 -0.20189056033E+04  0.20189056033E+04  0.00000000000E+00 0. -1.
         24    2    1    2    0    0  0.81974734415E+01  0.41474957367E+03  0.21973553463E+03  0.47641305742E+03  0.81248314867E+02 0.  0.
        254    2    1    2    0    0 -0.81974734415E+01 -0.41474957367E+03 -0.17588299930E+04  0.20223036908E+04  0.90782424850E+03 0.  0.
         23    2    4    4    0    0 -0.19824247074E+02 -0.31800746791E+03 -0.18372912708E+04  0.18668768127E+04  0.89822434259E+02 0.  0.
         23    2    4    4    0    0  0.11626773632E+02 -0.96742105758E+02  0.78461277723E+02  0.15542687816E+03  0.92234079721E+02 0.  0.
          4    1    3    3  502    0 -0.32846375011E+01 -0.21903585348E+01  0.73775523094E+01  0.83674842158E+01  0.00000000000E+00 0. -1.
         -3    1    3    3    0  502  0.11482110943E+02  0.41693993221E+03  0.21235798232E+03  0.46804557320E+03  0.00000000000E+00 0.  1.
         11    1    5    5    0    0 -0.43030542616E+02 -0.29261930998E+03 -0.16837867671E+04  0.17095658997E+04  0.00000000000E+00 0.  1.
        -11    1    5    5    0    0  0.23206295542E+02 -0.25388157928E+02 -0.15350450362E+03  0.15731091299E+03  0.00000000000E+00 0. -1.
          4    1    6    6  503    0 -0.24731152820E+02 -0.88027514922E+02  0.74282254934E+02  0.11780631011E+03  0.00000000000E+00 0.  1.
         -4    1    6    6    0  503  0.36357926452E+02 -0.87145908361E+01  0.41790227892E+01  0.37620568055E+02  0.00000000000E+00 0. -1.
<mgrwt>
<rscale>  0 0.19684445E+04</rscale>
<asrwt>0</asrwt>
<pdfrwt beam="1">  1        2 0.31060086E+00 0.19684445E+04</pdfrwt>
<pdfrwt beam="2">  1       -1 0.73817101E-01 0.19684445E+04</pdfrwt>
<totfact> 0.12782292E+01</totfact>
</mgrwt>
</event>
<event>
12    6  0.1586493E-007  0.1474794E+04  0.7818608E-02  0.8901390E-01
         -1   -1    0    0    0  501 -0.00000000000E+00  0.00000000000E+00  0.48986904357E+03  0.48986904357E+03  0.00000000000E+00 0.  1.
          2   -1    0    0  501    0  0.00000000000E+00 -0.00000000000E+00 -0.11099993373E+04  0.11099993373E+04  0.00000000000E+00 0. -1.
         24    2    1    2    0    0 -0.17284896675E+03  0.61470167569E+02  0.25806177980E+03  0.32693793109E+03  0.81468900698E+02 0.  0.
        254    2    1    2    0    0  0.17284896675E+03 -0.61470167569E+02 -0.87819207353E+03  0.12729304498E+04  0.90303669094E+03 0.  0.
         23    2    4    4    0    0  0.18883429220E+03  0.20211740418E+03 -0.94277039833E+03  0.98616126531E+03  0.84783148321E+02 0.  0.
         23    2    4    4    0    0 -0.15985325450E+02 -0.26358757175E+03  0.64578324805E+02  0.28676918448E+03  0.91281249552E+02 0.  0.
          2    1    3    3  502    0  0.68847552030E+01 -0.28711080338E+00  0.26458700024E+02  0.27341270888E+02  0.00000000000E+00 0. -1.
         -1    1    3    3    0  502 -0.17973372196E+03  0.61757278372E+02  0.23160307977E+03  0.29959666020E+03  0.00000000000E+00 0.  1.
         11    1    5    5    0    0  0.71973969049E+02  0.28635659535E+02 -0.19921063311E+03  0.21374079994E+03  0.00000000000E+00 0.  1.
        -11    1    5    5    0    0  0.11686032316E+03  0.17348174465E+03 -0.74355976523E+03  0.77242046537E+03  0.00000000000E+00 0. -1.
          3    1    6    6  503    0 -0.23714160439E+02 -0.25740154778E+03  0.78080399203E+02  0.27002678931E+03  0.00000000000E+00 0. -1.
         -3    1    6    6    0  503  0.77288349884E+01 -0.61860239688E+01 -0.13502074399E+02  0.16742395166E+02  0.00000000000E+00 0.  1.
<mgrwt>
<rscale>  0 0.14747940E+04</rscale>
<asrwt>0</asrwt>
<pdfrwt beam="1">  1        2 0.17076913E+00 0.14747940E+04</pdfrwt>
<pdfrwt beam="2">  1       -1 0.75364469E-01 0.14747940E+04</pdfrwt>
<totfact> 0.41975111E+01</totfact>
</mgrwt>
</event>
<event>
12    6  0.1586493E-007  0.1505231E+04  0.7818608E-02  0.8880982E-01
         -1   -1    0    0    0  501 -0.00000000000E+00  0.00000000000E+00  0.18594794515E+03  0.18594794515E+03  0.00000000000E+00 0.  1.
          2   -1    0    0  501    0  0.00000000000E+00 -0.00000000000E+00 -0.30461746637E+04  0.30461746637E+04  0.00000000000E+00 0. -1.
         24    2    1    2    0    0 -0.22370631620E+03  0.32821668722E+03 -0.33948058155E+03  0.52851119155E+03  0.79412245098E+02 0.  0.
        254    2    1    2    0    0  0.22370631620E+03 -0.32821668722E+03 -0.25207461370E+04  0.27036114173E+04  0.89307496824E+03 0.  0.
         23    2    4    4    0    0  0.44272548174E+03 -0.48974030924E+03 -0.14642253205E+04  0.16088957891E+04  0.93479667419E+02 0.  0.
         23    2    4    4    0    0 -0.21901916554E+03  0.16152362202E+03 -0.10565208165E+04  0.10947156282E+04  0.90037745728E+02 0.  0.
          2    1    3    3  502    0 -0.97279355726E+02  0.94162748773E+02 -0.14904184025E+03  0.20135383397E+03  0.00000000000E+00 0. -1.
         -1    1    3    3    0  502 -0.12642696047E+03  0.23405393845E+03 -0.19043874130E+03  0.32715735759E+03  0.00000000000E+00 0.  1.
         11    1    5    5    0    0  0.43050138860E+03 -0.48773637166E+03 -0.14038089625E+04  0.15472226139E+04  0.00000000000E+00 0. -1.
        -11    1    5    5    0    0  0.12224093137E+02 -0.20039375782E+01 -0.60416358040E+02  0.61673175187E+02  0.00000000000E+00 0.  1.
          3    1    6    6  503    0 -0.19071430854E+03  0.16568621802E+03 -0.99932117675E+03  0.10307602459E+04  0.00000000000E+00 0. -1.
         -3    1    6    6    0  503 -0.28304857008E+02 -0.41625960023E+01 -0.57199639719E+02  0.63955382258E+02  0.00000000000E+00 0.  1.
<mgrwt>
<rscale>  0 0.15052308E+04</rscale>
<asrwt>0</asrwt>
<pdfrwt beam="1">  1        2 0.46864225E+00 0.15052308E+04</pdfrwt>
<pdfrwt beam="2">  1       -1 0.28607377E-01 0.15052308E+04</pdfrwt>
<totfact> 0.20016508E+01</totfact>
</mgrwt>
</event>
<event>
12    6  0.1586493E-007  0.3032844E+04  0.7818608E-02  0.8234414E-01
         -1   -1    0    0    0  501 -0.00000000000E+00  0.00000000000E+00  0.12493828117E+04  0.12493828117E+04  0.00000000000E+00 0.  1.
          2   -1    0    0  501    0  0.00000000000E+00 -0.00000000000E+00 -0.18405374652E+04  0.18405374652E+04  0.00000000000E+00 0. -1.
         24    2    1    2    0    0 -0.68251218177E+03 -0.30886119151E+03  0.91267580089E+03  0.11834622468E+04  0.79922826054E+02 0.  0.
        254    2    1    2    0    0  0.68251218177E+03  0.30886119151E+03 -0.15038304545E+04  0.19064580301E+04  0.90103167031E+03 0.  0.
         23    2    4    4    0    0  0.71691046960E+03 -0.10353781726E+03 -0.78868043791E+03  0.10751094672E+04  0.95722684550E+02 0.  0.
         23    2    4    4    0    0 -0.34398287822E+02  0.41239900876E+03 -0.71515001657E+03  0.83134856290E+03  0.91895060871E+02 0.  0.
          2    1    3    3  502    0 -0.18984436205E+03 -0.96917746302E+02  0.20714328240E+03  0.29722427692E+03  0.00000000000E+00 0. -1.
         -1    1    3    3    0  502 -0.49266781973E+03 -0.21194344520E+03  0.70553251850E+03  0.88623796985E+03  0.00000000000E+00 0.  1.
         11    1    5    5    0    0  0.82734486202E+02 -0.39866665023E+02 -0.12295730849E+03  0.15346936469E+03  0.00000000000E+00 0.  1.
        -11    1    5    5    0    0  0.63417598339E+03 -0.63671152233E+02 -0.66572312942E+03  0.92164010253E+03  0.00000000000E+00 0. -1.
          3    1    6    6  503    0 -0.45405313441E+02  0.93697391129E+02 -0.15345092929E+03  0.18544010163E+03  0.00000000000E+00 0. -1.
         -3    1    6    6    0  503  0.11007025619E+02  0.31870161763E+03 -0.56169908728E+03  0.64590846127E+03  0.00000000000E+00 0.  1.
<mgrwt>
<rscale>  0 0.30328441E+04</rscale>
<asrwt>0</asrwt>
<pdfrwt beam="1">  1        2 0.28315961E+00 0.30328441E+04</pdfrwt>
<pdfrwt beam="2">  1       -1 0.19221274E+00 0.30328441E+04</pdfrwt>
<totfact> 0.13570152E+00</totfact>
</mgrwt>
</event>
<event>
12    6  0.1586493E-007  0.2025759E+04  0.7818608E-02  0.8594671E-01
         -1   -1    0    0    0  501 -0.00000000000E+00  0.00000000000E+00  0.19411780911E+04  0.19411780911E+04  0.00000000000E+00 0.  1.
          2   -1    0    0  501    0  0.00000000000E+00 -0.00000000000E+00 -0.52850611056E+03  0.52850611056E+03  0.00000000000E+00 0. -1.
         24    2    1    2    0    0  0.20876765586E+02 -0.67026587871E+03  0.11343323855E+04  0.13199770603E+04  0.77053822617E+02 0.  0.
        254    2    1    2    0    0 -0.20876765586E+02  0.67026587871E+03  0.27833959507E+03  0.11497071413E+04  0.89143782348E+03 0.  0.
         23    2    4    4    0    0 -0.13220374673E+03  0.69730420414E+03 -0.11969307391E+03  0.72536783487E+03  0.90117035859E+02 0.  0.
         23    2    4    4    0    0  0.11132698115E+03 -0.27038325439E+02  0.39803266899E+03  0.42433930646E+03  0.92244640223E+02 0.  0.
          2    1    3    3  502    0  0.12957156482E+02 -0.17775312943E+02  0.28954075638E+02  0.36361905208E+02  0.00000000000E+00 0. -1.
         -1    1    3    3    0  502  0.79196091038E+01 -0.65249056576E+03  0.11053783098E+04  0.12836151551E+04  0.00000000000E+00 0.  1.
         11    1    5    5    0    0 -0.47249382125E+01  0.66249377312E+01 -0.12462923155E+02  0.14884196137E+02  0.00000000000E+00 0. -1.
        -11    1    5    5    0    0 -0.12747880852E+03  0.69067926641E+03 -0.10723015076E+03  0.71048363873E+03  0.00000000000E+00 0.  1.
          2    1    6    6  503    0  0.18147491830E+02 -0.21563860605E+02  0.19017733347E+02  0.34000084200E+02  0.00000000000E+00 0. -1.
         -2    1    6    6    0  503  0.93179489317E+02 -0.54744648335E+01  0.37901493564E+03  0.39033922226E+03  0.00000000000E+00 0.  1.
<mgrwt>
<rscale>  0 0.20257586E+04</rscale>
<asrwt>0</asrwt>
<pdfrwt beam="1">  1        2 0.81308633E-01 0.20257586E+04</pdfrwt>
<pdfrwt beam="2">  1       -1 0.29864278E+00 0.20257586E+04</pdfrwt>
<totfact> 0.20607822E+00</totfact>
</mgrwt>
</event>
<event>
12    6  0.1586493E-007  0.1288120E+04  0.7818608E-02  0.9039039E-01
          2   -1    0    0  501    0  0.00000000000E+00  0.00000000000E+00  0.77961027705E+03  0.77961027705E+03  0.00000000000E+00 0. -1.
         -1   -1    0    0    0  501 -0.00000000000E+00 -0.00000000000E+00 -0.53207791957E+03  0.53207791957E+03  0.00000000000E+00 0.  1.
         24    2    1    2    0    0  0.31342775164E+03  0.68802517893E+02  0.70794061650E+02  0.33867666082E+03  0.81971577080E+02 0.  0.
        254    2    1    2    0    0 -0.31342775164E+03 -0.68802517893E+02  0.17673829582E+03  0.97301153580E+03  0.90141238156E+03 0.  0.
         23    2    4    4    0    0 -0.34456198731E+03 -0.34344940132E+03 -0.16710558598E+03  0.52255792994E+03  0.91989449972E+02 0.  0.
         23    2    4    4    0    0  0.31134235673E+02  0.27464688343E+03  0.34384388181E+03  0.45045360586E+03  0.90992223692E+02 0.  0.
          4    1    3    3  502    0  0.16637431635E+03  0.22958350782E+02  0.76465467343E+02  0.18453852364E+03  0.00000000000E+00 0. -1.
         -3    1    3    3    0  502  0.14705343529E+03  0.45844167111E+02 -0.56714056937E+01  0.15413813718E+03  0.00000000000E+00 0.  1.
         11    1    5    5    0    0 -0.27047431242E+03 -0.25283763249E+03 -0.85842115791E+02  0.38006853451E+03  0.00000000000E+00 0. -1.
        -11    1    5    5    0    0 -0.74087674897E+02 -0.90611768827E+02 -0.81263470192E+02  0.14248939543E+03  0.00000000000E+00 0.  1.
          2    1    6    6  503    0  0.27871302326E+02  0.18169904549E+02  0.53863511165E+02  0.63310605429E+02  0.00000000000E+00 0. -1.
         -2    1    6    6    0  503  0.32629333466E+01  0.25647697888E+03  0.28998037064E+03  0.38714300043E+03  0.00000000000E+00 0.  1.
<mgrwt>
<rscale>  0 0.12881202E+04</rscale>
<asrwt>0</asrwt>
<pdfrwt beam="1">  1        2 0.11994004E+00 0.12881202E+04</pdfrwt>
<pdfrwt beam="2">  1       -1 0.81858141E-01 0.12881202E+04</pdfrwt>
<totfact> 0.59319765E+01</totfact>
</mgrwt>
</event>
<event>
12    6  0.1586493E-007  0.2722479E+04  0.7818608E-02  0.8327748E-01
          2   -1    0    0  501    0  0.00000000000E+00  0.00000000000E+00  0.30844239890E+04  0.30844239890E+04  0.00000000000E+00 0. -1.
         -1   -1    0    0    0  501 -0.00000000000E+00 -0.00000000000E+00 -0.60075163864E+03  0.60075163864E+03  0.00000000000E+00 0.  1.
         24    2    1    2    0    0 -0.87163627228E+03  0.33167647292E+03  0.21700447394E+04  0.23633670191E+04  0.81550120655E+02 0.  0.
        254    2    1    2    0    0  0.87163627228E+03 -0.33167647292E+03  0.31362761095E+03  0.13218086085E+04  0.88264185566E+03 0.  0.
         23    2    4    4    0    0  0.29516968103E+02 -0.41367971848E+03  0.17468628133E+03  0.45955555059E+03  0.93133486486E+02 0.  0.
         23    2    4    4    0    0  0.84211930418E+03  0.82003245566E+02  0.13894132962E+03  0.86225305792E+03  0.91028501410E+02 0.  0.
          4    1    3    3  502    0 -0.71555373570E+03  0.23809223164E+03  0.17581131678E+04  0.19130256063E+04  0.00000000000E+00 0. -1.
         -3    1    3    3    0  502 -0.15608253658E+03  0.93584241275E+02  0.41193157157E+03  0.45034141281E+03  0.00000000000E+00 0.  1.
         11    1    5    5    0    0  0.36589172515E+02 -0.55032868563E+02  0.21451419015E+02  0.69480555160E+02  0.00000000000E+00 0. -1.
        -11    1    5    5    0    0 -0.70722044117E+01 -0.35864684992E+03  0.15323486231E+03  0.39007499543E+03  0.00000000000E+00 0.  1.
          2    1    6    6  503    0  0.14097815936E+03 -0.37094887851E+01  0.53112733439E+02  0.15069692823E+03  0.00000000000E+00 0. -1.
         -2    1    6    6    0  503  0.70114114481E+03  0.85712734351E+02  0.85828596178E+02  0.71155612969E+03  0.00000000000E+00 0.  1.
<mgrwt>
<rscale>  0 0.27224788E+04</rscale>
<asrwt>0</asrwt>
<pdfrwt beam="1">  1        2 0.47452676E+00 0.27224788E+04</pdfrwt>
<pdfrwt beam="2">  1       -1 0.92423331E-01 0.27224788E+04</pdfrwt>
<totfact> 0.17448135E+00</totfact>
</mgrwt>
</event>
<event>
12    6  0.1586493E-007  0.1540646E+04  0.7818608E-02  0.8857865E-01
         -1   -1    0    0    0  501 -0.00000000000E+00  0.00000000000E+00  0.44916143038E+03  0.44916143038E+03  0.00000000000E+00 0.  1.
          2   -1    0    0  501    0  0.00000000000E+00 -0.00000000000E+00 -0.13211237434E+04  0.13211237434E+04  0.00000000000E+00 0. -1.
         24    2    1    2    0    0 -0.18896492758E+03 -0.26529039349E+03 -0.74453875768E+03  0.81655136547E+03  0.79570308749E+02 0.  0.
        254    2    1    2    0    0  0.18896492758E+03  0.26529039349E+03 -0.12742355535E+03  0.95373380832E+03  0.88729063893E+03 0.  0.
         23    2    4    4    0    0 -0.96711487089E+02  0.53552660162E+02 -0.44523410115E+03  0.46804087576E+03  0.92778539596E+02 0.  0.
         23    2    4    4    0    0  0.28567641467E+03  0.21173773333E+03  0.31781054581E+03  0.48569293255E+03  0.91924969929E+02 0.  0.
          2    1    3    3  502    0 -0.15904125618E+03 -0.19522122429E+03 -0.63515380690E+03  0.68324651921E+03  0.00000000000E+00 0. -1.
         -1    1    3    3    0  502 -0.29923671392E+02 -0.70069169199E+02 -0.10938495078E+03  0.13330484627E+03  0.00000000000E+00 0.  1.
         11    1    5    5    0    0  0.39868744727E+01 -0.11542851683E+02 -0.78471394487E+01  0.14515859967E+02  0.00000000000E+00 0.  1.
        -11    1    5    5    0    0 -0.10069836156E+03  0.65095511846E+02 -0.43738696170E+03  0.45352501580E+03  0.00000000000E+00 0. -1.
          4    1    6    6  503    0  0.10407303606E+03  0.12617377689E+03  0.17361049319E+03  0.23851964731E+03  0.00000000000E+00 0.  1.
         -4    1    6    6    0  503  0.18160337860E+03  0.85563956433E+02  0.14420005262E+03  0.24717328524E+03  0.00000000000E+00 0. -1.
<mgrwt>
<rscale>  0 0.15406464E+04</rscale>
<asrwt>0</asrwt>
<pdfrwt beam="1">  1        2 0.20324981E+00 0.15406464E+04</pdfrwt>
<pdfrwt beam="2">  1       -1 0.69101758E-01 0.15406464E+04</pdfrwt>
<totfact> 0.37384752E+01</totfact>
</mgrwt>
</event>
<event>
12    6  0.1586493E-007  0.2695618E+04  0.7818608E-02  0.8336428E-01
          2   -1    0    0  501    0  0.00000000000E+00  0.00000000000E+00  0.27518725461E+04  0.27518725461E+04  0.00000000000E+00 0. -1.
         -1   -1    0    0    0  501 -0.00000000000E+00 -0.00000000000E+00 -0.66012849413E+03  0.66012849413E+03  0.00000000000E+00 0.  1.
         24    2    1    2    0    0 -0.67650892395E+03  0.35844757874E+03 -0.24035339145E+03  0.80638702556E+03  0.79632225357E+02 0.  0.
        254    2    1    2    0    0  0.67650892395E+03 -0.35844757874E+03  0.23320974434E+04  0.26056140147E+04  0.87429795665E+03 0.  0.
         23    2    4    4    0    0  0.25766730858E+03 -0.46617387029E+03  0.55637253371E+03  0.77564547160E+03  0.91460276053E+02 0.  0.
         23    2    4    4    0    0  0.41884161537E+03  0.10772629155E+03  0.17757249097E+04  0.18299685431E+04  0.92480598167E+02 0.  0.
          4    1    3    3  502    0 -0.24250582532E+03  0.17204270730E+03 -0.87992117920E+02  0.31008124946E+03  0.00000000000E+00 0. -1.
         -3    1    3    3    0  502 -0.43400309863E+03  0.18640487144E+03 -0.15236127353E+03  0.49630577610E+03  0.00000000000E+00 0.  1.
         11    1    5    5    0    0  0.14582109510E+03 -0.33524439964E+03  0.34137543744E+03  0.50018975255E+03  0.00000000000E+00 0.  1.
        -11    1    5    5    0    0  0.11184621348E+03 -0.13092947065E+03  0.21499709627E+03  0.27545571905E+03  0.00000000000E+00 0. -1.
          4    1    6    6  503    0  0.37704723131E+03  0.12265097744E+03  0.16362238105E+04  0.16835784018E+04  0.00000000000E+00 0.  1.
         -4    1    6    6    0  503  0.41794384060E+02 -0.14924685889E+02  0.13950109924E+03  0.14639014132E+03  0.00000000000E+00 0. -1.
<mgrwt>
<rscale>  0 0.26956183E+04</rscale>
<asrwt>0</asrwt>
<pdfrwt beam="1">  1        2 0.42336500E+00 0.26956183E+04</pdfrwt>
<pdfrwt beam="2">  1       -1 0.10155823E+00 0.26956183E+04</pdfrwt>
<totfact> 0.22681347E+00</totfact>
</mgrwt>
</event>
<event>
12    6  0.1586493E-007  0.1666482E+04  0.7818608E-02  0.8780715E-01
         -1   -1    0    0    0  501 -0.00000000000E+00  0.00000000000E+00  0.53218542802E+03  0.53218542802E+03  0.00000000000E+00 0.  1.
          2   -1    0    0  501    0  0.00000000000E+00 -0.00000000000E+00 -0.13046019864E+04  0.13046019864E+04  0.00000000000E+00 0. -1.
         24    2    1    2    0    0  0.12610056099E+03 -0.49920200478E+03 -0.57679065225E+03  0.77749273237E+03  0.81874900356E+02 0.  0.
        254    2    1    2    0    0 -0.12610056099E+03  0.49920200478E+03 -0.19562590612E+03  0.10592946820E+04  0.90483796073E+03 0.  0.
         23    2    4    4    0    0 -0.57579878876E+02 -0.15862874843E+03  0.20483090427E+03  0.28068627479E+03  0.91381416224E+02 0.  0.
         23    2    4    4    0    0 -0.68520682117E+02  0.65783075321E+03 -0.40045681039E+03  0.77860840724E+03  0.91809645926E+02 0.  0.
          4    1    3    3  502    0  0.18640647484E+02 -0.90070081258E+02 -0.15429699123E+03  0.17963199820E+03  0.00000000000E+00 0. -1.
         -3    1    3    3    0  502  0.10745991351E+03 -0.40913192352E+03 -0.42249366102E+03  0.59786073417E+03  0.00000000000E+00 0.  1.
         11    1    5    5    0    0 -0.73984359471E+02 -0.11231903470E+03  0.18253620782E+03  0.22673490725E+03  0.00000000000E+00 0. -1.
        -11    1    5    5    0    0  0.16404480595E+02 -0.46309713729E+02  0.22294696454E+02  0.53951367538E+02  0.00000000000E+00 0.  1.
          4    1    6    6  503    0 -0.79821079092E+02  0.41330130294E+03 -0.28195026177E+03  0.50664121605E+03  0.00000000000E+00 0. -1.
         -4    1    6    6    0  503  0.11300396975E+02  0.24452945027E+03 -0.11850654862E+03  0.27196719120E+03  0.00000000000E+00 0.  1.
<mgrwt>
<rscale>  0 0.16664815E+04</rscale>
<asrwt>0</asrwt>
<pdfrwt beam="1">  1        2 0.20070800E+00 0.16664815E+04</pdfrwt>
<pdfrwt beam="2">  1       -1 0.81874682E-01 0.16664815E+04</pdfrwt>
<totfact> 0.26526644E+01</totfact>
</mgrwt>
</event>
<event>
12    6  0.1586493E-007  0.1995493E+04  0.7818608E-02  0.8608731E-01
          2   -1    0    0  501    0  0.00000000000E+00  0.00000000000E+00  0.11013712864E+04  0.11013712864E+04  0.00000000000E+00 0. -1.
         -1   -1    0    0    0  501 -0.00000000000E+00 -0.00000000000E+00 -0.90387161403E+03  0.90387161403E+03  0.00000000000E+00 0.  1.
         24    2    1    2    0    0 -0.50119663481E+03 -0.42578194981E+03 -0.22279940921E+03  0.69862102544E+03  0.77093611377E+02 0.  0.
        254    2    1    2    0    0  0.50119663481E+03  0.42578194981E+03  0.42029908155E+03  0.13066218750E+04  0.10479127209E+04 0.  0.
         23    2    4    4    0    0 -0.16276365908E+03 -0.21438366127E+03  0.21603859148E+03  0.35693418856E+03  0.90977903998E+02 0.  0.
         23    2    4    4    0    0  0.66396029389E+03  0.64016561108E+03  0.20426049007E+03  0.94968768640E+03  0.97616967821E+02 0.  0.
          2    1    3    3  502    0 -0.26616980290E+03 -0.26130470448E+03 -0.97110600872E+02  0.38543090349E+03  0.00000000000E+00 0. -1.
         -1    1    3    3    0  502 -0.23502683192E+03 -0.16447724533E+03 -0.12568880834E+03  0.31319012196E+03  0.00000000000E+00 0.  1.
         11    1    5    5    0    0 -0.15169653115E+03 -0.21579551462E+03  0.18034340522E+03  0.31953604726E+03  0.00000000000E+00 0. -1.
        -11    1    5    5    0    0 -0.11067127925E+02  0.14118533441E+01  0.35695186260E+02  0.37398141297E+02  0.00000000000E+00 0.  1.
          3    1    6    6  503    0  0.58691070054E+03  0.53807620101E+03  0.20331254652E+03  0.82178230698E+03  0.00000000000E+00 0. -1.
         -3    1    6    6    0  503  0.77049593357E+02  0.10208941007E+03  0.94794354731E+00  0.12790537941E+03  0.00000000000E+00 0.  1.
<mgrwt>
<rscale>  0 0.19954932E+04</rscale>
<asrwt>0</asrwt>
<pdfrwt beam="1">  1        2 0.16944174E+00 0.19954932E+04</pdfrwt>
<pdfrwt beam="2">  1       -1 0.13905717E+00 0.19954932E+04</pdfrwt>
<totfact> 0.98332141E+00</totfact>
</mgrwt>
</event>
<event>
12    6  0.1586493E-007  0.1239803E+04  0.7818608E-02  0.9078713E-01
         -1   -1    0    0    0  501 -0.00000000000E+00  0.00000000000E+00  0.53949808067E+03  0.53949808067E+03  0.00000000000E+00 0.  1.
          2   -1    0    0  501    0  0.00000000000E+00 -0.00000000000E+00 -0.71228753375E+03  0.71228753375E+03  0.00000000000E+00 0. -1.
         24    2    1    2    0    0 -0.51214806762E+02 -0.10907237337E+03  0.21587199288E+03  0.25969500644E+03  0.79504968400E+02 0.  0.
        254    2    1    2    0    0  0.51214806762E+02  0.10907237337E+03 -0.38866144596E+03  0.99209060798E+03  0.90480181023E+03 0.  0.
         23    2    4    4    0    0  0.11758098465E+03 -0.22777223704E+03  0.17692121626E+03  0.32413435708E+03  0.89757923091E+02 0.  0.
         23    2    4    4    0    0 -0.66366177886E+02  0.33684461041E+03 -0.56558266222E+03  0.66795625089E+03  0.91722648088E+02 0.  0.
          2    1    3    3  502    0 -0.61969771393E+01 -0.97129646604E+02  0.13605171435E+03  0.16728012360E+03  0.00000000000E+00 0. -1.
         -1    1    3    3    0  502 -0.45017829623E+02 -0.11942726761E+02  0.79820278527E+02  0.92414882841E+02  0.00000000000E+00 0.  1.
         11    1    5    5    0    0  0.63940523971E+02 -0.38089446591E+02  0.45891539591E+02  0.87437005629E+02  0.00000000000E+00 0.  1.
        -11    1    5    5    0    0  0.53640460676E+02 -0.18968279045E+03  0.13102967667E+03  0.23669735145E+03  0.00000000000E+00 0. -1.
          1    1    6    6  503    0 -0.27889099988E+02  0.11790081764E+03 -0.28718615695E+03  0.31169583482E+03  0.00000000000E+00 0. -1.
         -1    1    6    6    0  503 -0.38477077898E+02  0.21894379277E+03 -0.27839650527E+03  0.35626041608E+03  0.00000000000E+00 0.  1.
<mgrwt>
<rscale>  0 0.12398028E+04</rscale>
<asrwt>0</asrwt>
<pdfrwt beam="1">  1        2 0.10958270E+00 0.12398028E+04</pdfrwt>
<pdfrwt beam="2">  1       -1 0.82999705E-01 0.12398028E+04</pdfrwt>
<totfact> 0.64967760E+01</totfact>
</mgrwt>
</event>
<event>
12    6  0.1586493E-007  0.1079772E+04  0.7818608E-02  0.9225135E-01
         -1   -1    0    0    0  501 -0.00000000000E+00  0.00000000000E+00  0.16248736977E+03  0.16248736977E+03  0.00000000000E+00 0.  1.
          2   -1    0    0  501    0  0.00000000000E+00 -0.00000000000E+00 -0.17938441265E+04  0.17938441265E+04  0.00000000000E+00 0. -1.
         24    2    1    2    0    0  0.16940440034E+02  0.71242843802E+02 -0.48583111291E+03  0.49768672271E+03  0.79357938384E+02 0.  0.
        254    2    1    2    0    0 -0.16940440034E+02 -0.71242843802E+02 -0.11455256438E+04  0.14586447735E+04  0.90002947366E+03 0.  0.
         23    2    4    4    0    0 -0.19952105883E+02  0.31265623477E+03 -0.98998485701E+02  0.34013161944E+03  0.87959142212E+02 0.  0.
         23    2    4    4    0    0  0.30116658487E+01 -0.38389907857E+03 -0.10465271581E+04  0.11185131541E+04  0.92005492190E+02 0.  0.
          4    1    3    3  502    0  0.86648265488E+01  0.33979093099E+02 -0.42096217703E+03  0.42242018474E+03  0.00000000000E+00 0. -1.
         -3    1    3    3    0  502  0.82756134856E+01  0.37263750703E+02 -0.64868935884E+02  0.75266537968E+02  0.00000000000E+00 0.  1.
         11    1    5    5    0    0 -0.28031598798E+02  0.28090628600E+02 -0.21296155695E+02  0.45037542048E+02  0.00000000000E+00 0. -1.
        -11    1    5    5    0    0  0.80794929145E+01  0.28456560617E+03 -0.77702330005E+02  0.29509407739E+03  0.00000000000E+00 0.  1.
          1    1    6    6  503    0  0.19596033763E+02 -0.37044298813E+03 -0.10127345061E+04  0.10785375246E+04  0.00000000000E+00 0. -1.
         -1    1    6    6    0  503 -0.16584367914E+02 -0.13456090447E+02 -0.33792651939E+02  0.39975629505E+02  0.00000000000E+00 0.  1.
<mgrwt>
<rscale>  0 0.10797722E+04</rscale>
<asrwt>0</asrwt>
<pdfrwt beam="1">  1        2 0.27597602E+00 0.10797722E+04</pdfrwt>
<pdfrwt beam="2">  1       -1 0.24998057E-01 0.10797722E+04</pdfrwt>
<totfact> 0.13805963E+02</totfact>
</mgrwt>
</event>
<event>
12    6  0.1586493E-007  0.1908693E+04  0.7818608E-02  0.8650542E-01
         -1   -1    0    0    0  501 -0.00000000000E+00  0.00000000000E+00  0.12773091744E+04  0.12773091744E+04  0.00000000000E+00 0.  1.
          2   -1    0    0  501    0  0.00000000000E+00 -0.00000000000E+00 -0.71304339571E+03  0.71304339571E+03  0.00000000000E+00 0. -1.
         24    2    1    2    0    0 -0.14020660373E+03  0.72837999754E+03  0.21404081158E+03  0.77619248547E+03  0.80411398045E+02 0.  0.
        254    2    1    2    0    0  0.14020660373E+03 -0.72837999754E+03  0.35022496716E+03  0.12141600847E+04  0.89517141993E+03 0.  0.
         23    2    4    4    0    0 -0.14090011538E+03  0.15549146191E+03  0.89815111024E+02  0.24573673422E+03  0.91045873780E+02 0.  0.
         23    2    4    4    0    0  0.28110671911E+03 -0.88387145945E+03  0.26040985613E+03  0.96842335046E+03  0.98897665232E+02 0.  0.
          2    1    3    3  502    0 -0.11444916520E+03  0.65702821931E+03  0.21373356345E+03  0.70033329818E+03  0.00000000000E+00 0. -1.
         -3    1    3    3    0  502 -0.25757438529E+02  0.71351778222E+02  0.30724812777E+00  0.75859187291E+02  0.00000000000E+00 0.  1.
         11    1    5    5    0    0 -0.50383776114E+02  0.11730802987E+03  0.31524915929E+02  0.13150482536E+03  0.00000000000E+00 0.  1.
        -11    1    5    5    0    0 -0.90516339268E+02  0.38183432039E+02  0.58290195095E+02  0.11423190886E+03  0.00000000000E+00 0. -1.
          4    1    6    6  503    0  0.19311275724E+03 -0.45660109412E+03  0.11903061919E+03  0.50984839361E+03  0.00000000000E+00 0. -1.
         -4    1    6    6    0  503  0.87993961875E+02 -0.42727036533E+03  0.14137923694E+03  0.45857495685E+03  0.00000000000E+00 0.  1.
<mgrwt>
<rscale>  0 0.19086926E+04</rscale>
<asrwt>0</asrwt>
<pdfrwt beam="1">  1        2 0.10969898E+00 0.19086926E+04</pdfrwt>
<pdfrwt beam="2">  1       -1 0.19650910E+00 0.19086926E+04</pdfrwt>
<totfact> 0.68036153E+00</totfact>
</mgrwt>
</event>
<event>
12    6  0.1586493E-007  0.1230414E+04  0.7818608E-02  0.9086644E-01
         -1   -1    0    0    0  501 -0.00000000000E+00  0.00000000000E+00  0.31698913866E+03  0.31698913866E+03  0.00000000000E+00 0.  1.
          2   -1    0    0  501    0  0.00000000000E+00 -0.00000000000E+00 -0.11939832513E+04  0.11939832513E+04  0.00000000000E+00 0. -1.
         24    2    1    2    0    0  0.23103762250E+03 -0.39473687480E+02 -0.60255819902E+01  0.24777276954E+03  0.80115433421E+02 0.  0.
        254    2    1    2    0    0 -0.23103762250E+03  0.39473687480E+02 -0.87096853061E+03  0.12631996204E+04  0.88439275471E+03 0.  0.
         23    2    4    4    0    0  0.15258139784E+03  0.28790182905E+03 -0.67828699945E+03  0.75780402272E+03  0.89583129513E+02 0.  0.
         23    2    4    4    0    0 -0.38361902034E+03 -0.24842814157E+03 -0.19268153116E+03  0.50539559765E+03  0.97048665051E+02 0.  0.
          2    1    3    3  502    0  0.21329271387E+03 -0.28449760472E+02 -0.28532283670E+02  0.21706510975E+03  0.00000000000E+00 0. -1.
         -1    1    3    3    0  502  0.17744908634E+02 -0.11023927008E+02  0.22506701680E+02  0.30707659787E+02  0.00000000000E+00 0.  1.
         11    1    5    5    0    0 -0.89244246702E+01  0.95802132140E+01 -0.11479766809E+02  0.17412951700E+02  0.00000000000E+00 0.  1.
        -11    1    5    5    0    0  0.16150582251E+03  0.27832161583E+03 -0.66680723264E+03  0.74039107102E+03  0.00000000000E+00 0. -1.
          3    1    6    6  503    0 -0.34830025607E+03 -0.20117397014E+03 -0.13880250047E+03  0.42549990456E+03  0.00000000000E+00 0. -1.
         -3    1    6    6    0  503 -0.35318764267E+02 -0.47254171425E+02 -0.53879030699E+02  0.79895693097E+02  0.00000000000E+00 0.  1.
<mgrwt>
<rscale>  0 0.12304141E+04</rscale>
<asrwt>0</asrwt>
<pdfrwt beam="1">  1        2 0.18368973E+00 0.12304141E+04</pdfrwt>
<pdfrwt beam="2">  1       -1 0.48767561E-01 0.12304141E+04</pdfrwt>
<totfact> 0.90222599E+01</totfact>
</mgrwt>
</event>
<event>
12    6  0.1586493E-007  0.1074915E+04  0.7818608E-02  0.9229993E-01
         -1   -1    0    0    0  501 -0.00000000000E+00  0.00000000000E+00  0.92874287306E+03  0.92874287306E+03  0.00000000000E+00 0.  1.
          2   -1    0    0  501    0  0.00000000000E+00 -0.00000000000E+00 -0.31102296819E+03  0.31102296819E+03  0.00000000000E+00 0. -1.
         24    2    1    2    0    0 -0.61776847834E+02 -0.14249684626E+03  0.15410283717E+03  0.23176736519E+03  0.76463697416E+02 0.  0.
        254    2    1    2    0    0  0.61776847834E+02  0.14249684626E+03  0.46361706771E+03  0.10079984761E+04  0.88147513416E+03 0.  0.
         23    2    4    4    0    0  0.55546265959E+02 -0.13529355692E+03 -0.21097762837E+03  0.27247329402E+03  0.91325801803E+02 0.  0.
         23    2    4    4    0    0  0.62305818752E+01  0.27779040318E+03  0.67459469608E+03  0.73552518204E+03  0.93343243902E+02 0.  0.
          4    1    3    3  502    0 -0.57425316188E+02 -0.12287630726E+03  0.16100261941E+03  0.21051863880E+03  0.00000000000E+00 0. -1.
         -3    1    3    3    0  502 -0.43515316466E+01 -0.19620538998E+02 -0.68997822426E+01  0.21248726391E+02  0.00000000000E+00 0.  1.
         11    1    5    5    0    0  0.60932847825E+02 -0.78635638911E+02 -0.73520942686E+02  0.12370005927E+03  0.00000000000E+00 0.  1.
        -11    1    5    5    0    0 -0.53865818661E+01 -0.56657918013E+02 -0.13745668569E+03  0.14877323475E+03  0.00000000000E+00 0. -1.
          4    1    6    6  503    0 -0.19112965150E+01  0.22560766118E+03  0.61903934136E+03  0.65887189649E+03  0.00000000000E+00 0. -1.
         -4    1    6    6    0  503  0.81418783902E+01  0.52182742004E+02  0.55555354719E+02  0.76653285545E+02  0.00000000000E+00 0.  1.
<mgrwt>
<rscale>  0 0.10749146E+04</rscale>
<asrwt>0</asrwt>
<pdfrwt beam="1">  1        2 0.47849688E-01 0.10749146E+04</pdfrwt>
<pdfrwt beam="2">  1       -1 0.14288352E+00 0.10749146E+04</pdfrwt>
<totfact> 0.47739698E+01</totfact>
</mgrwt>
</event>
<event>
12    6  0.1586493E-007  0.3204275E+04  0.7818608E-02  0.8187689E-01
          2   -1    0    0  501    0  0.00000000000E+00  0.00000000000E+00  0.20028233267E+04  0.20028233267E+04  0.00000000000E+00 0. -1.
         -1   -1    0    0    0  501 -0.00000000000E+00 -0.00000000000E+00 -0.12816129431E+04  0.12816129431E+04  0.00000000000E+00 0.  1.
         24    2    1    2    0    0  0.75006661220E+03 -0.64678327516E+03 -0.78545041035E+03  0.12665555312E+04  0.79385381655E+02 0.  0.
        254    2    1    2    0    0 -0.75006661220E+03  0.64678327516E+03  0.15066607940E+04  0.20178807386E+04  0.90602836562E+03 0.  0.
         23    2    4    4    0    0  0.16154557733E+03  0.30769872053E+03  0.31958399957E+03  0.48048914368E+03  0.89221119936E+02 0.  0.
         23    2    4    4    0    0 -0.91161218952E+03  0.33908455463E+03  0.11870767944E+04  0.15373915949E+04  0.91686863910E+02 0.  0.
          4    1    3    3  502    0  0.14593272310E+02 -0.30160844163E+02 -0.32609067941E+02  0.46754587254E+02  0.00000000000E+00 0. -1.
         -3    1    3    3    0  502  0.73547333989E+03 -0.61662243100E+03 -0.75284134240E+03  0.12198009440E+04  0.00000000000E+00 0.  1.
         11    1    5    5    0    0  0.73565231323E+02  0.65754401446E+02  0.11591668131E+03  0.15222405058E+03  0.00000000000E+00 0.  1.
        -11    1    5    5    0    0  0.87980346003E+02  0.24194431909E+03  0.20366731826E+03  0.32826509310E+03  0.00000000000E+00 0. -1.
          3    1    6    6  503    0 -0.68891745107E+03  0.22436605988E+03  0.92293950092E+03  0.11733561717E+04  0.00000000000E+00 0. -1.
         -3    1    6    6    0  503 -0.22269473845E+03  0.11471849475E+03  0.26413729350E+03  0.36403542326E+03  0.00000000000E+00 0.  1.
<mgrwt>
<rscale>  0 0.32042748E+04</rscale>
<asrwt>0</asrwt>
<pdfrwt beam="1">  1        2 0.30812666E+00 0.32042748E+04</pdfrwt>
<pdfrwt beam="2">  1       -1 0.19717122E+00 0.32042748E+04</pdfrwt>
<totfact> 0.10035701E+00</totfact>
</mgrwt>
</event>
<event>
12    6  0.1586493E-007  0.3009586E+04  0.7818608E-02  0.8240999E-01
          2   -1    0    0  501    0  0.00000000000E+00  0.00000000000E+00  0.22189894864E+04  0.22189894864E+04  0.00000000000E+00 0. -1.
         -1   -1    0    0    0  501 -0.00000000000E+00 -0.00000000000E+00 -0.10204652032E+04  0.10204652032E+04  0.00000000000E+00 0.  1.
         24    2    1    2    0    0 -0.13069819559E+04 -0.31296708945E+03  0.81036430640E+03  0.15721959863E+04  0.94655576351E+02 0.  0.
        254    2    1    2    0    0  0.13069819559E+04  0.31296708945E+03  0.38815997678E+03  0.16672587032E+04  0.90715664792E+03 0.  0.
         23    2    4    4    0    0  0.58141993889E+03 -0.19182716399E+03  0.46694848081E+03  0.77553256817E+03  0.92536881190E+02 0.  0.
         23    2    4    4    0    0  0.72556201701E+03  0.50479425344E+03 -0.78788504030E+02  0.89172613508E+03  0.87808842287E+02 0.  0.
          4    1    3    3  502    0 -0.78890499930E+03 -0.18512585278E+03  0.54208056617E+03  0.97493282820E+03  0.00000000000E+00 0. -1.
         -3    1    3    3    0  502 -0.51807695660E+03 -0.12784123666E+03  0.26828374024E+03  0.59726315811E+03  0.00000000000E+00 0.  1.
         11    1    5    5    0    0  0.32379916143E+03 -0.10101306647E+03  0.31529854401E+03  0.46310118591E+03  0.00000000000E+00 0. -1.
        -11    1    5    5    0    0  0.25762077746E+03 -0.90814097524E+02  0.15164993680E+03  0.31243138226E+03  0.00000000000E+00 0.  1.
          2    1    6    6  503    0  0.64325737628E+03  0.46305094397E+03 -0.94187158534E+02  0.79816505165E+03  0.00000000000E+00 0. -1.
         -2    1    6    6    0  503  0.82304640733E+02  0.41743309472E+02  0.15398654504E+02  0.93561083429E+02  0.00000000000E+00 0.  1.
<mgrwt>
<rscale>  0 0.30095857E+04</rscale>
<asrwt>0</asrwt>
<pdfrwt beam="1">  1        2 0.34138300E+00 0.30095857E+04</pdfrwt>
<pdfrwt beam="2">  1       -1 0.15699465E+00 0.30095857E+04</pdfrwt>
<totfact> 0.15094228E+00</totfact>
</mgrwt>
</event>
<event>
12    6  0.1586493E-007  0.3058714E+04  0.7818608E-02  0.8227161E-01
         -1   -1    0    0    0  501 -0.00000000000E+00  0.00000000000E+00  0.11419488591E+04  0.11419488591E+04  0.00000000000E+00 0.  1.
          2   -1    0    0  501    0  0.00000000000E+00 -0.00000000000E+00 -0.20481940943E+04  0.20481940943E+04  0.00000000000E+00 0. -1.
         24    2    1    2    0    0 -0.65507510808E+03 -0.69835907744E+03 -0.14725858618E+04  0.17581296543E+04  0.75378794463E+02 0.  0.
        254    2    1    2    0    0  0.65507510808E+03  0.69835907744E+03  0.56634062659E+03  0.14320132992E+04  0.90171591174E+03 0.  0.
         23    2    4    4    0    0  0.30382147815E+03  0.46167535377E+03 -0.16314410244E+03  0.58315133638E+03  0.89430755888E+02 0.  0.
         23    2    4    4    0    0  0.35125362994E+03  0.23668372366E+03  0.72948472903E+03  0.84886196282E+03  0.94975599158E+02 0.  0.
          4    1    3    3  502    0 -0.64367625887E+03 -0.68361042795E+03 -0.14591397907E+04  0.17351458936E+04  0.00000000000E+00 0. -1.
         -3    1    3    3    0  502 -0.11398849213E+02 -0.14748649491E+02 -0.13446071082E+02  0.22983760630E+02  0.00000000000E+00 0.  1.
         11    1    5    5    0    0  0.28458800396E+03  0.42749742303E+03 -0.17437488853E+03  0.54235687554E+03  0.00000000000E+00 0.  1.
        -11    1    5    5    0    0  0.19233474186E+02  0.34177930745E+02  0.11230786092E+02  0.40794460843E+02  0.00000000000E+00 0. -1.
          3    1    6    6  503    0  0.12146084300E+03  0.13494617701E+03  0.27507304384E+03  0.32958820749E+03  0.00000000000E+00 0. -1.
         -3    1    6    6    0  503  0.22979278694E+03  0.10173754665E+03  0.45441168519E+03  0.51927375532E+03  0.00000000000E+00 0.  1.
<mgrwt>
<rscale>  0 0.30587140E+04</rscale>
<asrwt>0</asrwt>
<pdfrwt beam="1">  1        2 0.31510678E+00 0.30587140E+04</pdfrwt>
<pdfrwt beam="2">  1       -1 0.17568444E+00 0.30587140E+04</pdfrwt>
<totfact> 0.13608026E+00</totfact>
</mgrwt>
</event>
<event>
12    6  0.1586493E-007  0.1390933E+04  0.7818608E-02  0.8960408E-01
         -1   -1    0    0    0  501 -0.00000000000E+00  0.00000000000E+00  0.33956312955E+03  0.33956312955E+03  0.00000000000E+00 0.  1.
          2   -1    0    0  501    0  0.00000000000E+00 -0.00000000000E+00 -0.14243997327E+04  0.14243997327E+04  0.00000000000E+00 0. -1.
         24    2    1    2    0    0 -0.33916472474E+03  0.56401583717E+02 -0.13534475423E+03  0.37802492637E+03  0.79817249406E+02 0.  0.
        254    2    1    2    0    0  0.33916472474E+03 -0.56401583717E+02 -0.94949184893E+03  0.13859379359E+04  0.94924988374E+03 0.  0.
         23    2    4    4    0    0  0.50810965731E+03 -0.18633906708E+03 -0.10070766022E+04  0.11469559388E+04  0.91689536774E+02 0.  0.
         23    2    4    4    0    0 -0.16894493257E+03  0.12993748337E+03  0.57584753236E+02  0.23898199708E+03  0.91489077490E+02 0.  0.
          4    1    3    3  502    0 -0.48822185591E+02 -0.15299352357E+02 -0.37877646137E+01  0.51303246966E+02  0.00000000000E+00 0. -1.
         -3    1    3    3    0  502 -0.29034253915E+03  0.71700936074E+02 -0.13155698962E+03  0.32672167940E+03  0.00000000000E+00 0.  1.
         11    1    5    5    0    0  0.46684227431E+03 -0.14120196063E+03 -0.89825175781E+03  0.10221232427E+04  0.00000000000E+00 0.  1.
        -11    1    5    5    0    0  0.41267382999E+02 -0.45137106449E+02 -0.10882484435E+03  0.12483269614E+03  0.00000000000E+00 0. -1.
          2    1    6    6  503    0  0.45169610192E+01  0.10280671291E+02 -0.12595040466E+02  0.16873949846E+02  0.00000000000E+00 0. -1.
         -2    1    6    6    0  503 -0.17346189359E+03  0.11965681208E+03  0.70179793702E+02  0.22210804724E+03  0.00000000000E+00 0.  1.
<mgrwt>
<rscale>  0 0.13909330E+04</rscale>
<asrwt>0</asrwt>
<pdfrwt beam="1">  1        2 0.21913842E+00 0.13909330E+04</pdfrwt>
<pdfrwt beam="2">  1       -1 0.52240482E-01 0.13909330E+04</pdfrwt>
<totfact> 0.57395234E+01</totfact>
</mgrwt>
</event>
<event>
12    6  0.1586493E-007  0.1124060E+04  0.7818608E-02  0.9182054E-01
          2   -1    0    0  501    0  0.00000000000E+00  0.00000000000E+00  0.98618980709E+03  0.98618980709E+03  0.00000000000E+00 0. -1.
         -1   -1    0    0    0  501 -0.00000000000E+00 -0.00000000000E+00 -0.32030107432E+03  0.32030107432E+03  0.00000000000E+00 0.  1.
         24    2    1    2    0    0  0.38434126731E+02  0.17234030368E+03  0.10184038724E+03  0.21773548988E+03  0.76543560878E+02 0.  0.
        254    2    1    2    0    0 -0.38434126731E+02 -0.17234030368E+03  0.56404834553E+03  0.10887553915E+04  0.91436284051E+03 0.  0.
         23    2    4    4    0    0 -0.21456993865E+03 -0.21395188242E+03 -0.14610767814E+03  0.35019012737E+03  0.97313951379E+02 0.  0.
         23    2    4    4    0    0  0.17613581192E+03  0.41611578743E+02  0.71015602366E+03  0.73856526415E+03  0.91660917195E+02 0.  0.
          4    1    3    3  502    0  0.39258355230E+02  0.77280310033E+02  0.84597862451E+02  0.12112086156E+03  0.00000000000E+00 0. -1.
         -3    1    3    3    0  502 -0.82422849930E+00  0.95059993645E+02  0.17242524788E+02  0.96614628321E+02  0.00000000000E+00 0.  1.
         11    1    5    5    0    0 -0.76999909955E+02 -0.90966936485E+02 -0.10995271816E+03  0.16215292134E+03  0.00000000000E+00 0. -1.
        -11    1    5    5    0    0 -0.13757002870E+03 -0.12298494594E+03 -0.36154959974E+02  0.18803720604E+03  0.00000000000E+00 0.  1.
          1    1    6    6  503    0  0.82160761120E+02  0.60105327909E+02  0.28155570028E+03  0.29939381000E+03  0.00000000000E+00 0. -1.
         -1    1    6    6    0  503  0.93975050801E+02 -0.18493749166E+02  0.42860032339E+03  0.43917145415E+03  0.00000000000E+00 0.  1.
<mgrwt>
<rscale>  0 0.11240599E+04</rscale>
<asrwt>0</asrwt>
<pdfrwt beam="1">  1        2 0.15172151E+00 0.11240599E+04</pdfrwt>
<pdfrwt beam="2">  1       -1 0.49277089E-01 0.11240599E+04</pdfrwt>
<totfact> 0.11994240E+02</totfact>
</mgrwt>
</event>
<event>
12    6  0.1586493E-007  0.1496027E+04  0.7818608E-02  0.8887099E-01
         -1   -1    0    0    0  501 -0.00000000000E+00  0.00000000000E+00  0.19304718023E+03  0.19304718023E+03  0.00000000000E+00 0.  1.
          2   -1    0    0  501    0  0.00000000000E+00 -0.00000000000E+00 -0.28983797856E+04  0.28983797856E+04  0.00000000000E+00 0. -1.
         24    2    1    2    0    0 -0.22580129976E+03  0.25745472281E+03 -0.19773548749E+03  0.40449891157E+03  0.85152129636E+02 0.  0.
        254    2    1    2    0    0  0.22580129976E+03 -0.25745472281E+03 -0.25075971179E+04  0.26869280543E+04  0.90236904971E+03 0.  0.
         23    2    4    4    0    0 -0.28647287815E+03 -0.83561952652E+02 -0.38898784136E+03  0.49842740661E+03  0.89827774598E+02 0.  0.
         23    2    4    4    0    0  0.51227417791E+03 -0.17389277016E+03 -0.21186092765E+04  0.21885006476E+04  0.91467422141E+02 0.  0.
          2    1    3    3  502    0 -0.26146132948E+02  0.70227023328E+02 -0.69637695881E+02  0.10229791670E+03  0.00000000000E+00 0. -1.
         -1    1    3    3    0  502 -0.19965516681E+03  0.18722769948E+03 -0.12809779161E+03  0.30220099487E+03  0.00000000000E+00 0.  1.
         11    1    5    5    0    0 -0.26767222524E+02 -0.13543948172E+02 -0.96533967249E+02  0.10108773203E+03  0.00000000000E+00 0. -1.
        -11    1    5    5    0    0 -0.25970565563E+03 -0.70018004480E+02 -0.29245387411E+03  0.39733967458E+03  0.00000000000E+00 0.  1.
          2    1    6    6  503    0  0.89469235583E+02 -0.65695347397E+02 -0.37335151217E+03  0.38950221363E+03  0.00000000000E+00 0. -1.
         -2    1    6    6    0  503  0.42280494232E+03 -0.10819742276E+03 -0.17452577644E+04  0.17989984340E+04  0.00000000000E+00 0.  1.
<mgrwt>
<rscale>  0 0.14960268E+04</rscale>
<asrwt>0</asrwt>
<pdfrwt beam="1">  1        2 0.44590458E+00 0.14960268E+04</pdfrwt>
<pdfrwt beam="2">  1       -1 0.29699566E-01 0.14960268E+04</pdfrwt>
<totfact> 0.23163329E+01</totfact>
</mgrwt>
</event>
<event>
12    6  0.1586493E-007  0.2026177E+04  0.7818608E-02  0.8594479E-01
          2   -1    0    0  501    0  0.00000000000E+00  0.00000000000E+00  0.19487876133E+04  0.19487876133E+04  0.00000000000E+00 0. -1.
         -1   -1    0    0    0  501 -0.00000000000E+00 -0.00000000000E+00 -0.52666014216E+03  0.52666014216E+03  0.00000000000E+00 0.  1.
         24    2    1    2    0    0 -0.70527831323E+03  0.36408491690E+03  0.78278681653E+03  0.11179034103E+04  0.83531483755E+02 0.  0.
        254    2    1    2    0    0  0.70527831323E+03 -0.36408491690E+03  0.63934065461E+03  0.13575443452E+04  0.89676911778E+03 0.  0.
         23    2    4    4    0    0  0.34505084025E+01 -0.89888477428E+02  0.58286974564E+03  0.59558757826E+03  0.83039620691E+02 0.  0.
         23    2    4    4    0    0  0.70182780483E+03 -0.27419643948E+03  0.56470908960E+02  0.76195676690E+03  0.98199775994E+02 0.  0.
          4    1    3    3  502    0 -0.51144048399E+03  0.28825255816E+03  0.61825159833E+03  0.85258192849E+03  0.00000000000E+00 0. -1.
         -3    1    3    3    0  502 -0.19383782925E+03  0.75832358741E+02  0.16453521821E+03  0.26532148181E+03  0.00000000000E+00 0.  1.
         11    1    5    5    0    0  0.23869417267E+02 -0.68183286080E+02  0.52997559599E+03  0.53487647352E+03  0.00000000000E+00 0.  1.
        -11    1    5    5    0    0 -0.20418908864E+02 -0.21705191348E+02  0.52894149655E+02  0.60711104737E+02  0.00000000000E+00 0. -1.
          1    1    6    6  503    0  0.21656867108E+03 -0.10471814831E+03  0.60057251405E+02  0.24794102791E+03  0.00000000000E+00 0. -1.
         -1    1    6    6    0  503  0.48525913376E+03 -0.16947829117E+03 -0.35863424444E+01  0.51401573898E+03  0.00000000000E+00 0.  1.
<mgrwt>
<rscale>  0 0.20261774E+04</rscale>
<asrwt>0</asrwt>
<pdfrwt beam="1">  1        2 0.29981348E+00 0.20261774E+04</pdfrwt>
<pdfrwt beam="2">  1       -1 0.81024638E-01 0.20261774E+04</pdfrwt>
<totfact> 0.11430937E+01</totfact>
</mgrwt>
</event>
<event>
12    6  0.1586493E-007  0.1660159E+04  0.7818608E-02  0.8784419E-01
         -1   -1    0    0    0  501 -0.00000000000E+00  0.00000000000E+00  0.57514862377E+03  0.57514862377E+03  0.00000000000E+00 0.  1.
          2   -1    0    0  501    0  0.00000000000E+00 -0.00000000000E+00 -0.11980069560E+04  0.11980069560E+04  0.00000000000E+00 0. -1.
         24    2    1    2    0    0 -0.39237209645E+03 -0.17582764350E+03  0.22375828418E+03  0.49119232090E+03  0.79566978572E+02 0.  0.
        254    2    1    2    0    0  0.39237209645E+03  0.17582764350E+03 -0.84661661638E+03  0.12819632589E+04  0.86127746959E+03 0.  0.
         23    2    4    4    0    0  0.33626532034E+03 -0.20652422034E+03 -0.70877617404E+02  0.41073411781E+03  0.89175443002E+02 0.  0.
         23    2    4    4    0    0  0.56106776108E+02  0.38235186384E+03 -0.77573899898E+03  0.87122914105E+03  0.89041021813E+02 0.  0.
          2    1    3    3  502    0 -0.11706930549E+02 -0.22044771640E+02  0.23971888211E+02  0.34607450122E+02  0.00000000000E+00 0. -1.
         -1    1    3    3    0  502 -0.38066516590E+03 -0.15378287186E+03  0.19978639597E+03  0.45658487077E+03  0.00000000000E+00 0.  1.
         11    1    5    5    0    0  0.41246834389E+02 -0.64274231633E+02 -0.41495491276E+01  0.76483311625E+02  0.00000000000E+00 0.  1.
        -11    1    5    5    0    0  0.29501848595E+03 -0.14224998870E+03 -0.66728068276E+02  0.33425080618E+03  0.00000000000E+00 0. -1.
          4    1    6    6  503    0  0.60584773334E+02  0.34038486428E+03 -0.62010125730E+03  0.70997037960E+03  0.00000000000E+00 0. -1.
         -4    1    6    6    0  503 -0.44779972259E+01  0.41966999554E+02 -0.15563774168E+03  0.16125876145E+03  0.00000000000E+00 0.  1.
<mgrwt>
<rscale>  0 0.16601591E+04</rscale>
<asrwt>0</asrwt>
<pdfrwt beam="1">  1        2 0.18430876E+00 0.16601591E+04</pdfrwt>
<pdfrwt beam="2">  1       -1 0.88484404E-01 0.16601591E+04</pdfrwt>
<totfact> 0.25926445E+01</totfact>
</mgrwt>
</event>
<event>
12    6  0.1586493E-007  0.3011278E+04  0.7818608E-02  0.8240518E-01
          2   -1    0    0  501    0  0.00000000000E+00  0.00000000000E+00  0.20429539347E+04  0.20429539347E+04  0.00000000000E+00 0. -1.
         -1   -1    0    0    0  501 -0.00000000000E+00 -0.00000000000E+00 -0.11096427386E+04  0.11096427386E+04  0.00000000000E+00 0.  1.
         24    2    1    2    0    0  0.53054589119E+02  0.13387223576E+04  0.13664122779E+03  0.13495811154E+04  0.87783949984E+02 0.  0.
        254    2    1    2    0    0 -0.53054589119E+02 -0.13387223576E+04  0.79666996824E+03  0.18030155579E+04  0.90619519056E+03 0.  0.
         23    2    4    4    0    0 -0.13959282722E+03 -0.89105126336E+03  0.95047386095E+03  0.13134620412E+04  0.91233009674E+02 0.  0.
         23    2    4    4    0    0  0.86538238097E+02 -0.44767109425E+03 -0.15380389271E+03  0.48955351663E+03  0.90048503349E+02 0.  0.
          4    1    3    3  502    0  0.34062444043E+02  0.61207137368E+03  0.10537982760E+03  0.62201006796E+03  0.00000000000E+00 0. -1.
         -3    1    3    3    0  502  0.18992145076E+02  0.72665098392E+03  0.31261400190E+02  0.72757104749E+03  0.00000000000E+00 0.  1.
         11    1    5    5    0    0 -0.31504618203E+02 -0.22307934643E+03  0.18269806794E+03  0.29006123457E+03  0.00000000000E+00 0. -1.
        -11    1    5    5    0    0 -0.10808820901E+03 -0.66797191692E+03  0.76777579301E+03  0.10234008067E+04  0.00000000000E+00 0.  1.
          2    1    6    6  503    0  0.36015550845E+02 -0.45509309854E+02 -0.32257396594E+02  0.66398470021E+02  0.00000000000E+00 0. -1.
         -2    1    6    6    0  503  0.50522687252E+02 -0.40216178439E+03 -0.12154649611E+03  0.42315504661E+03  0.00000000000E+00 0.  1.
<mgrwt>
<rscale>  0 0.30112781E+04</rscale>
<asrwt>0</asrwt>
<pdfrwt beam="1">  1        2 0.31430060E+00 0.30112781E+04</pdfrwt>
<pdfrwt beam="2">  1       -1 0.17071427E+00 0.30112781E+04</pdfrwt>
<totfact> 0.14952852E+00</totfact>
</mgrwt>
</event>
<event>
12    6  0.1586493E-007  0.1674889E+04  0.7818608E-02  0.8775817E-01
          2   -1    0    0  501    0  0.00000000000E+00  0.00000000000E+00  0.13866608510E+04  0.13866608510E+04  0.00000000000E+00 0. -1.
         -1   -1    0    0    0  501 -0.00000000000E+00 -0.00000000000E+00 -0.50575687172E+03  0.50575687172E+03  0.00000000000E+00 0.  1.
         24    2    1    2    0    0 -0.44868564212E+03  0.31278055359E+03  0.26855166901E+03  0.61457556477E+03  0.80203776312E+02 0.  0.
        254    2    1    2    0    0  0.44868564212E+03 -0.31278055359E+03  0.61235231031E+03  0.12778421580E+04  0.97916022624E+03 0.  0.
         23    2    4    4    0    0 -0.21447291604E+03  0.73103652749E+02 -0.62783421918E+02  0.25182675621E+03  0.90178607865E+02 0.  0.
         23    2    4    4    0    0  0.66315855816E+03 -0.38588420633E+03  0.67513573223E+03  0.10260154018E+04  0.90628107174E+02 0.  0.
          4    1    3    3  502    0 -0.38603244353E+03  0.27716507845E+03  0.20164882618E+03  0.51624003843E+03  0.00000000000E+00 0. -1.
         -3    1    3    3    0  502 -0.62653198586E+02  0.35615475134E+02  0.66902842831E+02  0.98335526342E+02  0.00000000000E+00 0.  1.
         11    1    5    5    0    0 -0.21902741830E+03  0.64246272092E+02 -0.46815081594E+02  0.23300696408E+03  0.00000000000E+00 0.  1.
        -11    1    5    5    0    0  0.45545022659E+01  0.88573806570E+01 -0.15968340324E+02  0.18819792127E+02  0.00000000000E+00 0. -1.
          2    1    6    6  503    0  0.43425906331E+03 -0.24072109873E+03  0.37954726657E+03  0.62496696633E+03  0.00000000000E+00 0. -1.
         -2    1    6    6    0  503  0.22889949485E+03 -0.14516310760E+03  0.29558846566E+03  0.40104843546E+03  0.00000000000E+00 0.  1.
<mgrwt>
<rscale>  0 0.16748890E+04</rscale>
<asrwt>0</asrwt>
<pdfrwt beam="1">  1        2 0.21333244E+00 0.16748890E+04</pdfrwt>
<pdfrwt beam="2">  1       -1 0.77808750E-01 0.16748890E+04</pdfrwt>
<totfact> 0.26483331E+01</totfact>
</mgrwt>
</event>
<event>
12    6  0.1586493E-007  0.3276306E+04  0.7818608E-02  0.8168950E-01
         -1   -1    0    0    0  501 -0.00000000000E+00  0.00000000000E+00  0.71565552252E+03  0.71565552252E+03  0.00000000000E+00 0.  1.
          2   -1    0    0  501    0  0.00000000000E+00 -0.00000000000E+00 -0.37497733810E+04  0.37497733810E+04  0.00000000000E+00 0. -1.
         24    2    1    2    0    0 -0.28426161168E+03 -0.67041875578E+03  0.40538508928E+03  0.83728897456E+03  0.80310549371E+02 0.  0.
        254    2    1    2    0    0  0.28426161168E+03  0.67041875578E+03 -0.34395029477E+04  0.36281399289E+04  0.89607636082E+03 0.  0.
         23    2    4    4    0    0  0.59199733653E+03  0.35923766189E+03 -0.18761180162E+04  0.20020504319E+04  0.94204974339E+02 0.  0.
         23    2    4    4    0    0 -0.30773572486E+03  0.31118109389E+03 -0.15633849315E+04  0.16260894970E+04  0.91976401691E+02 0.  0.
          2    1    3    3  502    0 -0.11485710922E+03 -0.21046611342E+03  0.10001983952E+03  0.25979243394E+03  0.00000000000E+00 0. -1.
         -1    1    3    3    0  502 -0.16940450245E+03 -0.45995264236E+03  0.30536524976E+03  0.57749654062E+03  0.00000000000E+00 0.  1.
         11    1    5    5    0    0  0.57865925451E+03  0.36387483238E+03 -0.18517443016E+04  0.19738815529E+04  0.00000000000E+00 0. -1.
        -11    1    5    5    0    0  0.13338082026E+02 -0.46371704883E+01 -0.24373714581E+02  0.28168879011E+02  0.00000000000E+00 0.  1.
          2    1    6    6  503    0 -0.26134607265E+03  0.27061014127E+03 -0.12023416052E+04  0.12598241758E+04  0.00000000000E+00 0. -1.
         -2    1    6    6    0  503 -0.46389652207E+02  0.40570952618E+02 -0.36104332634E+03  0.36626532121E+03  0.00000000000E+00 0.  1.
<mgrwt>
<rscale>  0 0.32763065E+04</rscale>
<asrwt>0</asrwt>
<pdfrwt beam="1">  1        2 0.57688823E+00 0.32763065E+04</pdfrwt>
<pdfrwt beam="2">  1       -1 0.11010085E+00 0.32763065E+04</pdfrwt>
<totfact> 0.38713050E-01</totfact>
</mgrwt>
</event>
<event>
12    6  0.1586493E-007  0.2100920E+04  0.7818608E-02  0.8560838E-01
         -1   -1    0    0    0  501 -0.00000000000E+00  0.00000000000E+00  0.66946623079E+03  0.66946623079E+03  0.00000000000E+00 0.  1.
          2   -1    0    0  501    0  0.00000000000E+00 -0.00000000000E+00 -0.16482782783E+04  0.16482782783E+04  0.00000000000E+00 0. -1.
         24    2    1    2    0    0 -0.50281626100E+03 -0.30560709471E+03 -0.10818915015E+04  0.12340958202E+04  0.79267797622E+02 0.  0.
        254    2    1    2    0    0  0.50281626100E+03  0.30560709471E+03  0.10307945400E+03  0.10836486889E+04  0.90412898330E+03 0.  0.
         23    2    4    4    0    0  0.19508874822E+03  0.52364946880E+03 -0.19075433573E+03  0.59721841330E+03  0.89522235946E+02 0.  0.
         23    2    4    4    0    0  0.30772751278E+03 -0.21804237409E+03  0.29383378973E+03  0.48643027559E+03  0.89651648080E+02 0.  0.
          4    1    3    3  502    0 -0.49842802648E+03 -0.30124230333E+03 -0.10418446297E+04  0.11935734813E+04  0.00000000000E+00 0. -1.
         -3    1    3    3    0  502 -0.43882345126E+01 -0.43647913872E+01 -0.40046871808E+02  0.40522338871E+02  0.00000000000E+00 0.  1.
         11    1    5    5    0    0  0.28667214520E+02  0.13406894117E+03 -0.82349888268E+02  0.15993059205E+03  0.00000000000E+00 0. -1.
        -11    1    5    5    0    0  0.16642153370E+03  0.38958052763E+03 -0.10840444747E+03  0.43728782125E+03  0.00000000000E+00 0.  1.
          2    1    6    6  503    0  0.11943949006E+03 -0.46735125203E+02  0.13587768332E+03  0.18684942745E+03  0.00000000000E+00 0. -1.
         -2    1    6    6    0  503  0.18828802272E+03 -0.17130724888E+03  0.15795610641E+03  0.29958084814E+03  0.00000000000E+00 0.  1.
<mgrwt>
<rscale>  0 0.21009204E+04</rscale>
<asrwt>0</asrwt>
<pdfrwt beam="1">  1        2 0.25358127E+00 0.21009204E+04</pdfrwt>
<pdfrwt beam="2">  1       -1 0.10299481E+00 0.21009204E+04</pdfrwt>
<totfact> 0.97935260E+00</totfact>
</mgrwt>
</event>
<event>
12    6  0.1586493E-007  0.1411798E+04  0.7818608E-02  0.8945323E-01
          4   -1    0    0  501    0  0.00000000000E+00  0.00000000000E+00  0.14404228921E+04  0.14404228921E+04  0.00000000000E+00 0. -1.
         -3   -1    0    0    0  501 -0.00000000000E+00 -0.00000000000E+00 -0.34593550086E+03  0.34593550086E+03  0.00000000000E+00 0.  1.
         24    2    1    2    0    0  0.24670394032E+03 -0.31925004531E+03  0.22752024453E+03  0.47010644271E+03  0.80319239301E+02 0.  0.
        254    2    1    2    0    0 -0.24670394032E+03  0.31925004531E+03  0.86696714672E+03  0.13162519503E+04  0.90449087196E+03 0.  0.
         23    2    4    4    0    0 -0.37571383940E+03 -0.10657735929E+03  0.81207184848E+02  0.40863626403E+03  0.88709451451E+02 0.  0.
         23    2    4    4    0    0  0.12900989908E+03  0.42582740460E+03  0.78575996188E+03  0.90761568623E+03  0.91514936665E+02 0.  0.
          4    1    3    3  502    0  0.96603416880E+02 -0.17168086430E+03  0.14231710010E+03  0.24302406527E+03  0.00000000000E+00 0. -1.
         -3    1    3    3    0  502  0.15010052344E+03 -0.14756918102E+03  0.85203144437E+02  0.22708237744E+03  0.00000000000E+00 0.  1.
         11    1    5    5    0    0 -0.18368397574E+03 -0.55013983915E+02 -0.52572364546E+01  0.19181756933E+03  0.00000000000E+00 0.  1.
        -11    1    5    5    0    0 -0.19202986367E+03 -0.51563375375E+02  0.86464421303E+02  0.21681869470E+03  0.00000000000E+00 0. -1.
          4    1    6    6  503    0  0.94816600182E+02  0.30427163669E+03  0.63857216759E+03  0.71368468513E+03  0.00000000000E+00 0.  1.
         -4    1    6    6    0  503  0.34193298897E+02  0.12155576791E+03  0.14718779429E+03  0.19393100110E+03  0.00000000000E+00 0. -1.
<mgrwt>
<rscale>  0 0.14117980E+04</rscale>
<asrwt>0</asrwt>
<pdfrwt beam="1">  1        4 0.22160352E+00 0.14117980E+04</pdfrwt>
<pdfrwt beam="2">  1       -3 0.53220847E-01 0.14117980E+04</pdfrwt>
<totfact> 0.73977576E-01</totfact>
</mgrwt>
</event>
<event>
12    6  0.1586493E-007  0.1753750E+04  0.7818608E-02  0.8731289E-01
         -1   -1    0    0    0  501 -0.00000000000E+00  0.00000000000E+00  0.40447637094E+03  0.40447637094E+03  0.00000000000E+00 0.  1.
          2   -1    0    0  501    0  0.00000000000E+00 -0.00000000000E+00 -0.19010001440E+04  0.19010001440E+04  0.00000000000E+00 0. -1.
         24    2    1    2    0    0 -0.35208866293E+03  0.29024742553E+02  0.14865984667E+03  0.39168874998E+03  0.80693646588E+02 0.  0.
        254    2    1    2    0    0  0.35208866293E+03 -0.29024742553E+02 -0.16451836197E+04  0.19137877650E+04  0.91167187323E+03 0.  0.
         23    2    4    4    0    0  0.55592322775E+03  0.15777880723E+02 -0.15763944315E+04  0.16740369514E+04  0.89892905938E+02 0.  0.
         23    2    4    4    0    0 -0.20383456481E+03 -0.44802623276E+02 -0.68789188269E+02  0.23975081353E+03  0.95878544523E+02 0.  0.
          4    1    3    3  502    0 -0.16689748443E+02  0.19589668204E+02  0.30183790869E+01  0.25911646334E+02  0.00000000000E+00 0. -1.
         -3    1    3    3    0  502 -0.33539891449E+03  0.94350743495E+01  0.14564146758E+03  0.36577710364E+03  0.00000000000E+00 0.  1.
         11    1    5    5    0    0  0.20256332994E+03  0.49125542017E+02 -0.58346923018E+03  0.61958176546E+03  0.00000000000E+00 0. -1.
        -11    1    5    5    0    0  0.35335989781E+03 -0.33347661294E+02 -0.99292520129E+03  0.10544551860E+04  0.00000000000E+00 0.  1.
          4    1    6    6  503    0 -0.21139312658E+03 -0.46376243443E+02 -0.75811175567E+02  0.22931450949E+03  0.00000000000E+00 0. -1.
         -4    1    6    6    0  503  0.75585617657E+01  0.15736201672E+01  0.70219872989E+01  0.10436304040E+02  0.00000000000E+00 0.  1.
<mgrwt>
<rscale>  0 0.17537499E+04</rscale>
<asrwt>0</asrwt>
<pdfrwt beam="1">  1        2 0.29246155E+00 0.17537499E+04</pdfrwt>
<pdfrwt beam="2">  1       -1 0.62227135E-01 0.17537499E+04</pdfrwt>
<totfact> 0.21437821E+01</totfact>
</mgrwt>
</event>
<event>
12    6  0.1586493E-007  0.2252946E+04  0.7818608E-02  0.8496708E-01
          2   -1    0    0  501    0  0.00000000000E+00  0.00000000000E+00  0.26973911957E+04  0.26973911957E+04  0.00000000000E+00 0. -1.
         -1   -1    0    0    0  501 -0.00000000000E+00 -0.00000000000E+00 -0.47043294427E+03  0.47043294427E+03  0.00000000000E+00 0.  1.
         24    2    1    2    0    0  0.38682523246E+01  0.41250451459E+02  0.22648881322E+04  0.22666658125E+04  0.79618408577E+02 0.  0.
        254    2    1    2    0    0 -0.38682523246E+01 -0.41250451459E+02 -0.37929880809E+02  0.90115832745E+03  0.89940596627E+03 0.  0.
         23    2    4    4    0    0 -0.40227759653E+03 -0.19806983586E+03 -0.67803361661E+02  0.46251940927E+03  0.90928452915E+02 0.  0.
         23    2    4    4    0    0  0.39840934420E+03  0.15681938440E+03  0.29873480851E+02  0.43863891818E+03  0.90495031987E+02 0.  0.
          2    1    3    3  502    0  0.38249197470E+02  0.14496326001E+02  0.14838530133E+04  0.14844166900E+04  0.00000000000E+00 0. -1.
         -1    1    3    3    0  502 -0.34380945145E+02  0.26754125459E+02  0.78103511889E+03  0.78224912244E+03  0.00000000000E+00 0.  1.
         11    1    5    5    0    0 -0.17792823425E+02 -0.34881815216E+01  0.15224007483E+02  0.23675353843E+02  0.00000000000E+00 0.  1.
        -11    1    5    5    0    0 -0.38448477310E+03 -0.19458165434E+03 -0.83027369144E+02  0.43884405542E+03  0.00000000000E+00 0. -1.
          1    1    6    6  503    0  0.33144457368E+03  0.15784860037E+03  0.48518028614E+01  0.36714469362E+03  0.00000000000E+00 0. -1.
         -1    1    6    6    0  503  0.66964770525E+02 -0.10292159689E+01  0.25021677990E+02  0.71494224566E+02  0.00000000000E+00 0.  1.
<mgrwt>
<rscale>  0 0.22529462E+04</rscale>
<asrwt>0</asrwt>
<pdfrwt beam="1">  1        2 0.41498325E+00 0.22529462E+04</pdfrwt>
<pdfrwt beam="2">  1       -1 0.72374301E-01 0.22529462E+04</pdfrwt>
<totfact> 0.53162045E+00</totfact>
</mgrwt>
</event>
<event>
12    6  0.1586493E-007  0.1734207E+04  0.7818608E-02  0.8742092E-01
         -1   -1    0    0    0  501 -0.00000000000E+00  0.00000000000E+00  0.60711759931E+03  0.60711759931E+03  0.00000000000E+00 0.  1.
          2   -1    0    0  501    0  0.00000000000E+00 -0.00000000000E+00 -0.12384226196E+04  0.12384226196E+04  0.00000000000E+00 0. -1.
         24    2    1    2    0    0 -0.48766514728E+03 -0.40103879133E+03 -0.26006006203E+03  0.68760461762E+03  0.80743211955E+02 0.  0.
        254    2    1    2    0    0  0.48766514728E+03  0.40103879133E+03 -0.37124495823E+03  0.11579356013E+04  0.89685150923E+03 0.  0.
         23    2    4    4    0    0 -0.92666173610E+02 -0.14251479489E+03  0.11183108474E+03  0.22334752505E+03  0.92089298721E+02 0.  0.
         23    2    4    4    0    0  0.58033132089E+03  0.54355358622E+03 -0.48307604297E+03  0.93458807620E+03  0.88642347585E+02 0.  0.
          4    1    3    3  502    0 -0.49050453062E+03 -0.39587590312E+03 -0.25960686963E+03  0.68169505792E+03  0.00000000000E+00 0. -1.
         -3    1    3    3    0  502  0.28393833378E+01 -0.51628882186E+01 -0.45319239239E+00  0.59095596995E+01  0.00000000000E+00 0.  1.
         11    1    5    5    0    0 -0.96064205681E+02 -0.13905189780E+03  0.72807696013E+02  0.18402370090E+03  0.00000000000E+00 0. -1.
        -11    1    5    5    0    0  0.33980320708E+01 -0.34628970917E+01  0.39023388727E+02  0.39323824152E+02  0.00000000000E+00 0.  1.
          2    1    6    6  503    0  0.39406263758E+03  0.37740537141E+03 -0.28280034240E+03  0.61456993936E+03  0.00000000000E+00 0. -1.
         -2    1    6    6    0  503  0.18626868332E+03  0.16614821481E+03 -0.20027570057E+03  0.32001813684E+03  0.00000000000E+00 0.  1.
<mgrwt>
<rscale>  0 0.17342066E+04</rscale>
<asrwt>0</asrwt>
<pdfrwt beam="1">  1        2 0.19052656E+00 0.17342066E+04</pdfrwt>
<pdfrwt beam="2">  1       -1 0.93402707E-01 0.17342066E+04</pdfrwt>
<totfact> 0.21627479E+01</totfact>
</mgrwt>
</event>
<event>
12    6  0.1586493E-007  0.2040627E+04  0.7818608E-02  0.8587858E-01
         -1   -1    0    0    0  501 -0.00000000000E+00  0.00000000000E+00  0.38685714845E+03  0.38685714845E+03  0.00000000000E+00 0.  1.
          2   -1    0    0  501    0  0.00000000000E+00 -0.00000000000E+00 -0.26910193290E+04  0.26910193290E+04  0.00000000000E+00 0. -1.
         24    2    1    2    0    0  0.72266797936E+03 -0.10055805523E+03 -0.14943918198E+04  0.16649484898E+04  0.80533419339E+02 0.  0.
        254    2    1    2    0    0 -0.72266797936E+03  0.10055805523E+03 -0.80977036074E+03  0.14129279877E+04  0.89904200701E+03 0.  0.
         23    2    4    4    0    0 -0.75433992691E+03  0.18416868379E+03 -0.22319631708E+03  0.81257588555E+03  0.86695700031E+02 0.  0.
         23    2    4    4    0    0  0.31671947550E+02 -0.83610628556E+02 -0.58657404366E+03  0.60035210213E+03  0.91431331395E+02 0.  0.
          4    1    3    3  502    0  0.42115377256E+03 -0.34595759316E+02 -0.79038797352E+03  0.89625917869E+03  0.00000000000E+00 0. -1.
         -3    1    3    3    0  502  0.30151420680E+03 -0.65962295916E+02 -0.70400384631E+03  0.76868931111E+03  0.00000000000E+00 0.  1.
         11    1    5    5    0    0 -0.24114504906E+03  0.70223475179E+02 -0.31993258852E+02  0.25319131060E+03  0.00000000000E+00 0.  1.
        -11    1    5    5    0    0 -0.51319487785E+03  0.11394520861E+03 -0.19120305823E+03  0.55938457495E+03  0.00000000000E+00 0. -1.
          1    1    6    6  503    0 -0.25568706771E+02 -0.25839212148E+02 -0.88382351509E+02  0.95566017541E+02  0.00000000000E+00 0. -1.
         -1    1    6    6    0  503  0.57240654321E+02 -0.57771416408E+02 -0.49819169215E+03  0.50478608458E+03  0.00000000000E+00 0.  1.
<mgrwt>
<rscale>  0 0.20406274E+04</rscale>
<asrwt>0</asrwt>
<pdfrwt beam="1">  1        2 0.41400297E+00 0.20406274E+04</pdfrwt>
<pdfrwt beam="2">  1       -1 0.59516484E-01 0.20406274E+04</pdfrwt>
<totfact> 0.81175022E+00</totfact>
</mgrwt>
</event>
<event>
12    6  0.1586493E-007  0.1257756E+04  0.7818608E-02  0.9063752E-01
          2   -1    0    0  501    0  0.00000000000E+00  0.00000000000E+00  0.24338650481E+04  0.24338650481E+04  0.00000000000E+00 0. -1.
         -1   -1    0    0    0  501 -0.00000000000E+00 -0.00000000000E+00 -0.16249372536E+03  0.16249372536E+03  0.00000000000E+00 0.  1.
         24    2    1    2    0    0 -0.20711650565E+03 -0.15127270099E+03  0.87139415689E+03  0.91188389593E+03  0.80148524701E+02 0.  0.
        254    2    1    2    0    0  0.20711650565E+03  0.15127270099E+03  0.13999771658E+04  0.16844748775E+04  0.90096552160E+03 0.  0.
         23    2    4    4    0    0 -0.22969660931E+03 -0.19518492631E+02  0.52549262419E+02  0.25407249412E+03  0.93004856881E+02 0.  0.
         23    2    4    4    0    0  0.43681311497E+03  0.17079119362E+03  0.13474279034E+04  0.14304023834E+04  0.10253630713E+03 0.  0.
          4    1    3    3  502    0 -0.17081698687E+03 -0.89982709009E+02  0.70331088002E+03  0.72932950364E+03  0.00000000000E+00 0. -1.
         -3    1    3    3    0  502 -0.36299518780E+02 -0.61289991977E+02  0.16808327688E+03  0.18255439230E+03  0.00000000000E+00 0.  1.
         11    1    5    5    0    0 -0.20813373000E+02 -0.11902284916E+02 -0.21616962001E+02  0.32282408956E+02  0.00000000000E+00 0. -1.
        -11    1    5    5    0    0 -0.20888323631E+03 -0.76162077146E+01  0.74166224420E+02  0.22179008517E+03  0.00000000000E+00 0.  1.
          3    1    6    6  503    0  0.12155691086E+03  0.92373441927E+02  0.50218331773E+03  0.52487810009E+03  0.00000000000E+00 0. -1.
         -3    1    6    6    0  503  0.31525620411E+03  0.78417751689E+02  0.84524458566E+03  0.90552428327E+03  0.00000000000E+00 0.  1.
<mgrwt>
<rscale>  0 0.12577564E+04</rscale>
<asrwt>0</asrwt>
<pdfrwt beam="1">  1        2 0.37444075E+00 0.12577564E+04</pdfrwt>
<pdfrwt beam="2">  1       -1 0.24999037E-01 0.12577564E+04</pdfrwt>
<totfact> 0.59895624E+01</totfact>
</mgrwt>
</event>
<event>
12    6  0.1586493E-007  0.1073490E+04  0.7818608E-02  0.9231422E-01
         -1   -1    0    0    0  501 -0.00000000000E+00  0.00000000000E+00  0.16033870316E+03  0.16033870316E+03  0.00000000000E+00 0.  1.
          2   -1    0    0  501    0  0.00000000000E+00 -0.00000000000E+00 -0.17967926549E+04  0.17967926549E+04  0.00000000000E+00 0. -1.
         24    2    1    2    0    0 -0.93986252419E+00  0.37354823081E+02 -0.50593165220E+03  0.51273939323E+03  0.74421653545E+02 0.  0.
        254    2    1    2    0    0  0.93986252419E+00 -0.37354823081E+02 -0.11305222995E+04  0.14443919648E+04  0.89821557109E+03 0.  0.
         23    2    4    4    0    0 -0.20592067238E+02  0.26592637553E+01 -0.12691127389E+04  0.12725788581E+04  0.91535244968E+02 0.  0.
         23    2    4    4    0    0  0.21531929762E+02 -0.40014086836E+02  0.13859043937E+03  0.17181310674E+03  0.90816752953E+02 0.  0.
          4    1    3    3  502    0  0.16080364700E+02 -0.10116047118E+02 -0.30445996293E+03  0.30505209648E+03  0.00000000000E+00 0. -1.
         -1    1    3    3    0  502 -0.17020227225E+02  0.47470870199E+02 -0.20147168927E+03  0.20768729674E+03  0.00000000000E+00 0.  1.
         11    1    5    5    0    0  0.15555927540E+02 -0.21469787361E+02 -0.96624407460E+03  0.96660775413E+03  0.00000000000E+00 0. -1.
        -11    1    5    5    0    0 -0.36147994777E+02  0.24129051117E+02 -0.30286866432E+03  0.30597110396E+03  0.00000000000E+00 0.  1.
          2    1    6    6  503    0  0.33747088138E+02 -0.55763983043E+02  0.13712458094E+03  0.15182766039E+03  0.00000000000E+00 0. -1.
         -2    1    6    6    0  503 -0.12215158376E+02  0.15749896207E+02  0.14658584345E+01  0.19985446346E+02  0.00000000000E+00 0.  1.
<mgrwt>
<rscale>  0 0.10734904E+04</rscale>
<asrwt>0</asrwt>
<pdfrwt beam="1">  1        2 0.27642962E+00 0.10734904E+04</pdfrwt>
<pdfrwt beam="2">  1       -1 0.24667495E-01 0.10734904E+04</pdfrwt>
<totfact> 0.14077815E+02</totfact>
</mgrwt>
</event>
<event>
12    6  0.1586493E-007  0.2814652E+04  0.7818608E-02  0.8298734E-01
         -1   -1    0    0    0  501 -0.00000000000E+00  0.00000000000E+00  0.78818906441E+03  0.78818906441E+03  0.00000000000E+00 0.  1.
          2   -1    0    0  501    0  0.00000000000E+00 -0.00000000000E+00 -0.25128063477E+04  0.25128063477E+04  0.00000000000E+00 0. -1.
         24    2    1    2    0    0 -0.11691725484E+04  0.12025034799E+03 -0.23018795907E+03  0.12003591000E+04  0.80317360135E+02 0.  0.
        254    2    1    2    0    0  0.11691725484E+04 -0.12025034799E+03 -0.14944293242E+04  0.21006363121E+04  0.89326889369E+03 0.  0.
         23    2    4    4    0    0  0.88651136560E+03 -0.34817207354E+03 -0.59347303130E+03  0.11258186861E+04  0.90173615443E+02 0.  0.
         23    2    4    4    0    0  0.28266118281E+03  0.22792172556E+03 -0.90095629288E+03  0.97481762598E+03  0.81862720395E+02 0.  0.
          2    1    3    3  502    0 -0.11584304945E+04  0.11679857381E+03 -0.21949217125E+03  0.11848121921E+04  0.00000000000E+00 0. -1.
         -1    1    3    3    0  502 -0.10742053948E+02  0.34517741786E+01 -0.10695787829E+02  0.15546907901E+02  0.00000000000E+00 0.  1.
         11    1    5    5    0    0  0.60189592555E+03 -0.23006259168E+03 -0.35137930757E+03  0.73394476568E+03  0.00000000000E+00 0. -1.
        -11    1    5    5    0    0  0.28461544004E+03 -0.11810948187E+03 -0.24209372373E+03  0.39187392040E+03  0.00000000000E+00 0.  1.
          3    1    6    6  503    0  0.24845205246E+03  0.16218274716E+03 -0.75283066611E+03  0.80918828321E+03  0.00000000000E+00 0. -1.
         -3    1    6    6    0  503  0.34209130350E+02  0.65738978399E+02 -0.14812562677E+03  0.16562934277E+03  0.00000000000E+00 0.  1.
<mgrwt>
<rscale>  0 0.28146520E+04</rscale>
<asrwt>0</asrwt>
<pdfrwt beam="1">  1        2 0.38658560E+00 0.28146520E+04</pdfrwt>
<pdfrwt beam="2">  1       -1 0.12125985E+00 0.28146520E+04</pdfrwt>
<totfact> 0.20395824E+00</totfact>
</mgrwt>
</event>
<event>
12    6  0.1586493E-007  0.1810954E+04  0.7818608E-02  0.8700496E-01
         -1   -1    0    0    0  501 -0.00000000000E+00  0.00000000000E+00  0.59372027711E+03  0.59372027711E+03  0.00000000000E+00 0.  1.
          2   -1    0    0  501    0  0.00000000000E+00 -0.00000000000E+00 -0.13809347884E+04  0.13809347884E+04  0.00000000000E+00 0. -1.
         24    2    1    2    0    0 -0.60139128135E+03  0.53989099045E+02  0.61328436738E+02  0.61240439663E+03  0.81802639078E+02 0.  0.
        254    2    1    2    0    0  0.60139128135E+03 -0.53989099045E+02 -0.84854294799E+03  0.13622506689E+04  0.87813179769E+03 0.  0.
         23    2    4    4    0    0 -0.45782378262E+02  0.28367170909E+03 -0.40148800762E+03  0.50187553436E+03  0.90115298498E+02 0.  0.
         23    2    4    4    0    0  0.64717365961E+03 -0.33766080814E+03 -0.44705494037E+03  0.86037513449E+03  0.86825602786E+02 0.  0.
          4    1    3    3  502    0 -0.12810372871E+03 -0.10503113956E+02  0.38592297651E+02  0.13420225837E+03  0.00000000000E+00 0. -1.
         -3    1    3    3    0  502 -0.47328755264E+03  0.64492213001E+02  0.22736139088E+02  0.47820213826E+03  0.00000000000E+00 0.  1.
         11    1    5    5    0    0 -0.19039972998E+02  0.25874262447E+03 -0.31573914527E+03  0.40865813848E+03  0.00000000000E+00 0. -1.
        -11    1    5    5    0    0 -0.26742405264E+02  0.24929084620E+02 -0.85748862353E+02  0.93217395877E+02  0.00000000000E+00 0.  1.
          4    1    6    6  503    0  0.59756732815E+03 -0.31522666366E+03 -0.38418451555E+03  0.77720801794E+03  0.00000000000E+00 0. -1.
         -4    1    6    6    0  503  0.49606331457E+02 -0.22434144477E+02 -0.62870424819E+02  0.83167116554E+02  0.00000000000E+00 0.  1.
<mgrwt>
<rscale>  0 0.18109544E+04</rscale>
<asrwt>0</asrwt>
<pdfrwt beam="1">  1        2 0.21245150E+00 0.18109544E+04</pdfrwt>
<pdfrwt beam="2">  1       -1 0.91341582E-01 0.18109544E+04</pdfrwt>
<totfact> 0.18650541E+01</totfact>
</mgrwt>
</event>
<event>
12    6  0.1586493E-007  0.1248525E+04  0.7818608E-02  0.9071412E-01
         -1   -1    0    0    0  501 -0.00000000000E+00  0.00000000000E+00  0.26428449439E+03  0.26428449439E+03  0.00000000000E+00 0.  1.
          2   -1    0    0  501    0  0.00000000000E+00 -0.00000000000E+00 -0.14745605383E+04  0.14745605383E+04  0.00000000000E+00 0. -1.
         24    2    1    2    0    0 -0.26013243343E+03  0.94214937462E+02 -0.29362732118E+03  0.41096982009E+03  0.78318911643E+02 0.  0.
        254    2    1    2    0    0  0.26013243343E+03 -0.94214937462E+02 -0.91664872269E+03  0.13278752126E+04  0.92003389175E+03 0.  0.
         23    2    4    4    0    0 -0.26315763651E+03  0.19196687612E+03 -0.20777639118E+03  0.39701335931E+03  0.91352917608E+02 0.  0.
         23    2    4    4    0    0  0.52329006993E+03 -0.28618181359E+03 -0.70887233150E+03  0.93086185325E+03  0.90946576357E+02 0.  0.
          4    1    3    3  502    0 -0.18441622342E+03  0.34133116679E+02 -0.22228166016E+03  0.29083251118E+03  0.00000000000E+00 0. -1.
         -3    1    3    3    0  502 -0.75716210005E+02  0.60081820782E+02 -0.71345661015E+02  0.12013730891E+03  0.00000000000E+00 0.  1.
         11    1    5    5    0    0 -0.10167011962E+03  0.95122424419E+02 -0.13846660429E+03  0.19636213829E+03  0.00000000000E+00 0. -1.
        -11    1    5    5    0    0 -0.16148751689E+03  0.96844451706E+02 -0.69309786895E+02  0.20065122102E+03  0.00000000000E+00 0.  1.
          3    1    6    6  503    0  0.24563327985E+03 -0.18492322380E+03 -0.34624023527E+03  0.46304924942E+03  0.00000000000E+00 0. -1.
         -3    1    6    6    0  503  0.27765679008E+03 -0.10125858979E+03 -0.36263209623E+03  0.46781260383E+03  0.00000000000E+00 0.  1.
<mgrwt>
<rscale>  0 0.12485247E+04</rscale>
<asrwt>0</asrwt>
<pdfrwt beam="1">  1        2 0.22685547E+00 0.12485247E+04</pdfrwt>
<pdfrwt beam="2">  1       -1 0.40659152E-01 0.12485247E+04</pdfrwt>
<totfact> 0.86894664E+01</totfact>
</mgrwt>
</event>
<event>
12    6  0.1677187E-007  0.1808663E+04  0.7818608E-02  0.8701706E-01
         -1   -1    0    0    0  501 -0.00000000000E+00  0.00000000000E+00  0.38536427467E+03  0.38536427467E+03  0.00000000000E+00 0.  1.
          2   -1    0    0  501    0  0.00000000000E+00 -0.00000000000E+00 -0.21221889065E+04  0.21221889065E+04  0.00000000000E+00 0. -1.
         24    2    1    2    0    0 -0.52805244341E+02  0.35426837587E+03  0.13435285051E+03  0.39079952873E+03  0.79869313536E+02 0.  0.
        254    2    1    2    0    0  0.52805244341E+02 -0.35426837587E+03 -0.18711774824E+04  0.21167536525E+04  0.92252174972E+03 0.  0.
         23    2    4    4    0    0 -0.38363994397E+03 -0.32591094129E+03 -0.12600633854E+04  0.13599177811E+04  0.90659184987E+02 0.  0.
         23    2    4    4    0    0  0.43644518831E+03 -0.28357434575E+02 -0.61111409697E+03  0.75683587137E+03  0.89730430645E+02 0.  0.
          4    1    3    3  502    0  0.18656984299E+02  0.67854233177E+02  0.39714475725E+02  0.80805442919E+02  0.00000000000E+00 0. -1.
         -3    1    3    3    0  502 -0.71462228640E+02  0.28641414269E+03  0.94638374790E+02  0.30999408581E+03  0.00000000000E+00 0.  1.
         11    1    5    5    0    0 -0.36920927402E+03 -0.31928878633E+03 -0.12477387035E+04  0.13398181553E+04  0.00000000000E+00 0. -1.
        -11    1    5    5    0    0 -0.14430669957E+02 -0.66221549685E+01 -0.12324681861E+02  0.20099625738E+02  0.00000000000E+00 0.  1.
          1    1    6    6  503    0  0.43026046043E+03 -0.34795585367E+02 -0.57135900823E+03  0.71609071552E+03  0.00000000000E+00 0. -1.
         -1    1    6    6    0  503  0.61847278831E+01  0.64381507929E+01 -0.39755088740E+02  0.40745155851E+02  0.00000000000E+00 0.  1.
<mgrwt>
<rscale>  0 0.18086634E+04</rscale>
<asrwt>0</asrwt>
<pdfrwt beam="1">  1        2 0.32649061E+00 0.18086634E+04</pdfrwt>
<pdfrwt beam="2">  1       -1 0.59286810E-01 0.18086634E+04</pdfrwt>
<totfact> 0.17694931E+01</totfact>
</mgrwt>
</event>
<event>
12    6  0.1586493E-007  0.2118053E+04  0.7818608E-02  0.8553332E-01
         -1   -1    0    0    0  501 -0.00000000000E+00  0.00000000000E+00  0.34293345884E+03  0.34293345884E+03  0.00000000000E+00 0.  1.
          2   -1    0    0  501    0  0.00000000000E+00 -0.00000000000E+00 -0.32704224503E+04  0.32704224503E+04  0.00000000000E+00 0. -1.
         24    2    1    2    0    0  0.60362116979E+03  0.29855727099E+03 -0.21293896303E+04  0.22347754731E+04  0.80163937074E+02 0.  0.
        254    2    1    2    0    0 -0.60362116979E+03 -0.29855727099E+03 -0.79809936112E+03  0.13785804360E+04  0.90001470415E+03 0.  0.
         23    2    4    4    0    0 -0.18645332264E+03 -0.16496089715E+03  0.16906484525E+03  0.31297912731E+03  0.86000425116E+02 0.  0.
         23    2    4    4    0    0 -0.41716784715E+03 -0.13359637383E+03 -0.96716420636E+03  0.10656013087E+04  0.90678240304E+02 0.  0.
          4    1    3    3  502    0  0.39960196899E+03  0.18984453906E+03 -0.15174405151E+04  0.15806164619E+04  0.00000000000E+00 0. -1.
         -3    1    3    3    0  502  0.20401920080E+03  0.10871273192E+03 -0.61194911521E+03  0.65415901124E+03  0.00000000000E+00 0.  1.
         11    1    5    5    0    0 -0.79758976552E+02 -0.28361054599E+02  0.26953196331E+02  0.88838722138E+02  0.00000000000E+00 0. -1.
        -11    1    5    5    0    0 -0.10669434608E+03 -0.13659984255E+03  0.14211164891E+03  0.22414040517E+03  0.00000000000E+00 0.  1.
          3    1    6    6  503    0 -0.27089470954E+03 -0.89511872691E+02 -0.72685444889E+03  0.78084166697E+03  0.00000000000E+00 0. -1.
         -3    1    6    6    0  503 -0.14627313761E+03 -0.44084501141E+02 -0.24030975747E+03  0.28475964174E+03  0.00000000000E+00 0.  1.
<mgrwt>
<rscale>  0 0.21180531E+04</rscale>
<asrwt>0</asrwt>
<pdfrwt beam="1">  1        2 0.50314191E+00 0.21180531E+04</pdfrwt>
<pdfrwt beam="2">  1       -1 0.52758994E-01 0.21180531E+04</pdfrwt>
<totfact> 0.44326855E+00</totfact>
</mgrwt>
</event>
<event>
12    6  0.1586493E-007  0.1395099E+04  0.7818608E-02  0.8957374E-01
         -1   -1    0    0    0  501 -0.00000000000E+00  0.00000000000E+00  0.55661273871E+03  0.55661273871E+03  0.00000000000E+00 0.  1.
          2   -1    0    0  501    0  0.00000000000E+00 -0.00000000000E+00 -0.87417178865E+03  0.87417178865E+03  0.00000000000E+00 0. -1.
         24    2    1    2    0    0 -0.23167810382E+03  0.31876495749E+03  0.15205499858E+03  0.42993386887E+03  0.80228218846E+02 0.  0.
        254    2    1    2    0    0  0.23167810382E+03 -0.31876495749E+03 -0.46961404853E+03  0.10008506585E+04  0.79112504961E+03 0.  0.
         23    2    4    4    0    0  0.36888475454E+03 -0.49967826656E+03 -0.26400445178E+03  0.68128906408E+03  0.93285079586E+02 0.  0.
         23    2    4    4    0    0 -0.13720665071E+03  0.18091330907E+03 -0.20560959675E+03  0.31956159441E+03  0.91044033010E+02 0.  0.
          2    1    3    3  502    0 -0.49682325668E+00 -0.24206663058E+01  0.86856962039E+01  0.90303807925E+01  0.00000000000E+00 0. -1.
         -1    1    3    3    0  502 -0.23118128057E+03  0.32118562379E+03  0.14336930238E+03  0.42090348808E+03  0.00000000000E+00 0.  1.
         11    1    5    5    0    0  0.66617954175E+01 -0.23030178514E+02 -0.30271042372E+02  0.38614824185E+02  0.00000000000E+00 0.  1.
        -11    1    5    5    0    0  0.36222295912E+03 -0.47664808805E+03 -0.23373340941E+03  0.64267423989E+03  0.00000000000E+00 0. -1.
          4    1    6    6  503    0 -0.82090905812E+02  0.42132984969E+02 -0.10352439678E+03  0.13867734483E+03  0.00000000000E+00 0. -1.
         -4    1    6    6    0  503 -0.55115744902E+02  0.13878032411E+03 -0.10208519997E+03  0.18088424958E+03  0.00000000000E+00 0.  1.
<mgrwt>
<rscale>  0 0.13950988E+04</rscale>
<asrwt>0</asrwt>
<pdfrwt beam="1">  1        2 0.13448797E+00 0.13950988E+04</pdfrwt>
<pdfrwt beam="2">  1       -1 0.85632729E-01 0.13950988E+04</pdfrwt>
<totfact> 0.45734932E+01</totfact>
</mgrwt>
</event>
<event>
12    6  0.1586493E-007  0.2314577E+04  0.7818608E-02  0.8472196E-01
         -1   -1    0    0    0  501 -0.00000000000E+00  0.00000000000E+00  0.87668764979E+03  0.87668764979E+03  0.00000000000E+00 0.  1.
          2   -1    0    0  501    0  0.00000000000E+00 -0.00000000000E+00 -0.15277009844E+04  0.15277009844E+04  0.00000000000E+00 0. -1.
         24    2    1    2    0    0 -0.32120614516E+03 -0.86382043970E+03 -0.62320737986E+03  0.11151180785E+04  0.75774342284E+02 0.  0.
        254    2    1    2    0    0  0.32120614516E+03  0.86382043970E+03 -0.27805954770E+02  0.12892705557E+04  0.90115828521E+03 0.  0.
         23    2    4    4    0    0  0.35752355148E+03  0.33994064536E+03 -0.39770721731E+03  0.64083721082E+03  0.95491192449E+02 0.  0.
         23    2    4    4    0    0 -0.36317406322E+02  0.52387979434E+03  0.36990126255E+03  0.64843334490E+03  0.88712264238E+02 0.  0.
          4    1    3    3  502    0 -0.32515925154E+03 -0.85841996877E+03 -0.61736091355E+03  0.11062313859E+04  0.00000000000E+00 0. -1.
         -3    1    3    3    0  502  0.39531063864E+01 -0.54004709256E+01 -0.58464663112E+01  0.88866925596E+01  0.00000000000E+00 0.  1.
         11    1    5    5    0    0  0.24000891908E+03  0.16507214405E+03 -0.21642896307E+03  0.36289749246E+03  0.00000000000E+00 0. -1.
        -11    1    5    5    0    0  0.11751463240E+03  0.17486850131E+03 -0.18127825425E+03  0.27793971836E+03  0.00000000000E+00 0.  1.
          3    1    6    6  503    0 -0.52427540247E+02  0.46736332423E+03  0.35052611730E+03  0.58655407485E+03  0.00000000000E+00 0. -1.
         -3    1    6    6    0  503  0.16110133925E+02  0.56516470113E+02  0.19375145243E+02  0.61879270053E+02  0.00000000000E+00 0.  1.
<mgrwt>
<rscale>  0 0.23145769E+04</rscale>
<asrwt>0</asrwt>
<pdfrwt beam="1">  1        2 0.23503092E+00 0.23145769E+04</pdfrwt>
<pdfrwt beam="2">  1       -1 0.13487502E+00 0.23145769E+04</pdfrwt>
<totfact> 0.58320935E+00</totfact>
</mgrwt>
</event>
<event>
12    6  0.1586493E-007  0.3303114E+04  0.7818608E-02  0.8162104E-01
          2   -1    0    0  501    0  0.00000000000E+00  0.00000000000E+00  0.32456300494E+04  0.32456300494E+04  0.00000000000E+00 0. -1.
         -1   -1    0    0    0  501 -0.00000000000E+00 -0.00000000000E+00 -0.84040388902E+03  0.84040388902E+03  0.00000000000E+00 0.  1.
         24    2    1    2    0    0 -0.42704524530E+03 -0.31152682422E+03  0.28874717640E+04  0.29365501030E+04  0.80104406922E+02 0.  0.
        254    2    1    2    0    0  0.42704524530E+03  0.31152682422E+03 -0.48224560359E+03  0.11494838354E+04  0.89963084760E+03 0.  0.
         23    2    4    4    0    0  0.13053013006E+03  0.59725768122E+03 -0.32580830673E+03  0.69882973777E+03  0.91962476203E+02 0.  0.
         23    2    4    4    0    0  0.29651511525E+03 -0.28573085700E+03 -0.15643729687E+03  0.45065409764E+03  0.95148051247E+02 0.  0.
          4    1    3    3  502    0 -0.24550857288E+03 -0.21100399449E+03  0.19169382307E+04  0.19440805861E+04  0.00000000000E+00 0. -1.
         -3    1    3    3    0  502 -0.18153667242E+03 -0.10052282972E+03  0.97053353330E+03  0.99246951691E+03  0.00000000000E+00 0.  1.
         11    1    5    5    0    0  0.89900514911E+02  0.38792189230E+03 -0.26037702068E+03  0.47577483120E+03  0.00000000000E+00 0. -1.
        -11    1    5    5    0    0  0.40629615146E+02  0.20933578892E+03 -0.65431286045E+02  0.22305490657E+03  0.00000000000E+00 0.  1.
          4    1    6    6  503    0  0.48159186276E+02 -0.62021944761E+02  0.65155997943E+01  0.78793920422E+02  0.00000000000E+00 0. -1.
         -4    1    6    6    0  503  0.24835592897E+03 -0.22370891224E+03 -0.16295289666E+03  0.37186017722E+03  0.00000000000E+00 0.  1.
<mgrwt>
<rscale>  0 0.33031138E+04</rscale>
<asrwt>0</asrwt>
<pdfrwt beam="1">  1        2 0.49932769E+00 0.33031138E+04</pdfrwt>
<pdfrwt beam="2">  1       -1 0.12929291E+00 0.33031138E+04</pdfrwt>
<totfact> 0.58946853E-01</totfact>
</mgrwt>
</event>
<event>
12    6  0.1586493E-007  0.2027266E+04  0.7818608E-02  0.8593978E-01
         -1   -1    0    0    0  501 -0.00000000000E+00  0.00000000000E+00  0.28912425720E+03  0.28912425720E+03  0.00000000000E+00 0.  1.
          2   -1    0    0  501    0  0.00000000000E+00 -0.00000000000E+00 -0.35536699677E+04  0.35536699677E+04  0.00000000000E+00 0. -1.
         24    2    1    2    0    0  0.50006680386E+03 -0.63532005444E+03 -0.11548390112E+04  0.14127852741E+04  0.92793905846E+02 0.  0.
        254    2    1    2    0    0 -0.50006680386E+03  0.63532005444E+03 -0.21097066993E+04  0.24300089508E+04  0.89464113704E+03 0.  0.
         23    2    4    4    0    0 -0.37115588909E+03 -0.14566116548E+03 -0.73420154292E+03  0.84038916268E+03  0.90709260776E+02 0.  0.
         23    2    4    4    0    0 -0.12891091476E+03  0.78098121992E+03 -0.13755051564E+04  0.15896197882E+04  0.91252100176E+02 0.  0.
          4    1    3    3  502    0  0.48071772945E+03 -0.58658579972E+03 -0.10463889498E+04  0.12923243672E+04  0.00000000000E+00 0. -1.
         -3    1    3    3    0  502  0.19349074406E+02 -0.48734254722E+02 -0.10845006139E+03  0.12046090685E+03  0.00000000000E+00 0.  1.
         11    1    5    5    0    0 -0.28981987053E+03 -0.98967204673E+02 -0.62806434426E+03  0.69875237780E+03  0.00000000000E+00 0. -1.
        -11    1    5    5    0    0 -0.81336018562E+02 -0.46693960807E+02 -0.10613719866E+03  0.14163678488E+03  0.00000000000E+00 0.  1.
          2    1    6    6  503    0 -0.87198717367E+02  0.47131469595E+03 -0.74380259766E+03  0.88486352802E+03  0.00000000000E+00 0. -1.
         -2    1    6    6    0  503 -0.41712197398E+02  0.30966652397E+03 -0.63170255875E+03  0.70475626014E+03  0.00000000000E+00 0.  1.
<mgrwt>
<rscale>  0 0.20272663E+04</rscale>
<asrwt>0</asrwt>
<pdfrwt beam="1">  1        2 0.54671851E+00 0.20272663E+04</pdfrwt>
<pdfrwt beam="2">  1       -1 0.44480651E-01 0.20272663E+04</pdfrwt>
<totfact> 0.39571746E+00</totfact>
</mgrwt>
</event>
<event>
12    6  0.1586493E-007  0.1807067E+04  0.7818608E-02  0.8702550E-01
          2   -1    0    0  501    0  0.00000000000E+00  0.00000000000E+00  0.87862165280E+03  0.87862165280E+03  0.00000000000E+00 0. -1.
         -3   -1    0    0    0  501 -0.00000000000E+00 -0.00000000000E+00 -0.92915214072E+03  0.92915214072E+03  0.00000000000E+00 0.  1.
         24    2    1    2    0    0 -0.27572224789E+02 -0.55436168593E+03 -0.41493485529E+03  0.69787730393E+03  0.82369234509E+02 0.  0.
        254    2    1    2    0    0  0.27572224789E+02  0.55436168593E+03  0.36440436737E+03  0.11098964896E+04  0.88938325161E+03 0.  0.
         23    2    4    4    0    0 -0.34442483079E+03  0.55972713721E+03  0.19888993192E+03  0.69267542996E+03  0.91209177491E+02 0.  0.
         23    2    4    4    0    0  0.37199705558E+03 -0.53654512769E+01  0.16551443545E+03  0.41722105963E+03  0.90927371201E+02 0.  0.
          2    1    3    3  502    0  0.24825393031E+02 -0.23571437323E+03 -0.15341280795E+03  0.28233500585E+03  0.00000000000E+00 0. -1.
         -1    1    3    3    0  502 -0.52397617820E+02 -0.31864731270E+03 -0.26152204734E+03  0.41554229807E+03  0.00000000000E+00 0.  1.
         11    1    5    5    0    0 -0.31344937799E+03  0.44762918345E+03  0.15135266975E+03  0.56703617970E+03  0.00000000000E+00 0. -1.
        -11    1    5    5    0    0 -0.30975452793E+02  0.11209795375E+03  0.47537262170E+02  0.12563925026E+03  0.00000000000E+00 0.  1.
          2    1    6    6  503    0  0.25997489411E+03  0.19182833879E+02  0.75387984676E+02  0.27136373177E+03  0.00000000000E+00 0. -1.
         -2    1    6    6    0  503  0.11202216146E+03 -0.24548285155E+02  0.90126450776E+02  0.14585732787E+03  0.00000000000E+00 0.  1.
<mgrwt>
<rscale>  0 0.18070674E+04</rscale>
<asrwt>0</asrwt>
<pdfrwt beam="1">  1        2 0.13517256E+00 0.18070674E+04</pdfrwt>
<pdfrwt beam="2">  1       -3 0.14294648E+00 0.18070674E+04</pdfrwt>
<totfact> 0.65932610E+00</totfact>
</mgrwt>
</event>
<event>
12    6  0.1586493E-007  0.1109751E+04  0.7818608E-02  0.9195740E-01
          2   -1    0    0  501    0  0.00000000000E+00  0.00000000000E+00  0.16983161359E+04  0.16983161359E+04  0.00000000000E+00 0. -1.
         -1   -1    0    0    0  501 -0.00000000000E+00 -0.00000000000E+00 -0.18128942692E+03  0.18128942692E+03  0.00000000000E+00 0.  1.
         24    2    1    2    0    0 -0.27210999748E+02  0.17207484499E+03  0.27159293390E+03  0.33273748468E+03  0.81248514956E+02 0.  0.
        254    2    1    2    0    0  0.27210999748E+02 -0.17207484499E+03  0.12454337751E+04  0.15468680781E+04  0.90074711894E+03 0.  0.
         23    2    4    4    0    0  0.38350775577E+03 -0.54379571927E+02  0.22844986515E+03  0.45851365070E+03  0.89499108441E+02 0.  0.
         23    2    4    4    0    0 -0.35629675602E+03 -0.11769527306E+03  0.10169839099E+04  0.10883544274E+04  0.97260120484E+02 0.  0.
          2    1    3    3  502    0 -0.10152450536E+01  0.12779917423E+03  0.13094382223E+03  0.18297525580E+03  0.00000000000E+00 0. -1.
         -3    1    3    3    0  502 -0.26195754694E+02  0.44275670763E+02  0.14064911167E+03  0.14976222888E+03  0.00000000000E+00 0.  1.
         11    1    5    5    0    0  0.55506334582E+02 -0.40563490658E+02  0.48528413797E+02  0.84150798563E+02  0.00000000000E+00 0. -1.
        -11    1    5    5    0    0  0.32800142119E+03 -0.13816081270E+02  0.17992145136E+03  0.37436285214E+03  0.00000000000E+00 0.  1.
          3    1    6    6  503    0 -0.13027786216E+03 -0.37146661029E+01  0.42463290443E+03  0.44418377238E+03  0.00000000000E+00 0. -1.
         -3    1    6    6    0  503 -0.22601889386E+03 -0.11398060696E+03  0.59235100549E+03  0.64417065506E+03  0.00000000000E+00 0.  1.
<mgrwt>
<rscale>  0 0.11097509E+04</rscale>
<asrwt>0</asrwt>
<pdfrwt beam="1">  1        2 0.26127940E+00 0.11097509E+04</pdfrwt>
<pdfrwt beam="2">  1       -1 0.27890682E-01 0.11097509E+04</pdfrwt>
<totfact> 0.12879187E+02</totfact>
</mgrwt>
</event>
<event>
12    6  0.1586493E-007  0.1910256E+04  0.7818608E-02  0.8649768E-01
         -1   -1    0    0    0  501 -0.00000000000E+00  0.00000000000E+00  0.53879893309E+03  0.53879893309E+03  0.00000000000E+00 0.  1.
          2   -1    0    0  501    0  0.00000000000E+00 -0.00000000000E+00 -0.16931543464E+04  0.16931543464E+04  0.00000000000E+00 0. -1.
         24    2    1    2    0    0  0.44218860857E+03  0.32597071504E+03  0.13119185537E+03  0.57030926382E+03  0.79080217927E+02 0.  0.
        254    2    1    2    0    0 -0.44218860857E+03 -0.32597071504E+03 -0.12855472687E+04  0.16616440157E+04  0.89813216298E+03 0.  0.
         23    2    4    4    0    0  0.33475643606E+02 -0.26067092047E+03  0.75737584722E+01  0.27918288439E+03  0.93892351274E+02 0.  0.
         23    2    4    4    0    0 -0.47566425218E+03 -0.65299794573E+02 -0.12931210272E+04  0.13824611313E+04  0.92283501466E+02 0.  0.
          2    1    3    3  502    0  0.79142125405E+02  0.46986108417E+02 -0.62922257905E+01  0.92253793977E+02  0.00000000000E+00 0. -1.
         -3    1    3    3    0  502  0.36304648316E+03  0.27898460662E+03  0.13748408116E+03  0.47805546984E+03  0.00000000000E+00 0.  1.
         11    1    5    5    0    0  0.49282897717E+02 -0.16415628184E+03 -0.30769470164E+02  0.17413457201E+03  0.00000000000E+00 0.  1.
        -11    1    5    5    0    0 -0.15807254112E+02 -0.96514638623E+02  0.38343228637E+02  0.10504831238E+03  0.00000000000E+00 0. -1.
          1    1    6    6  503    0 -0.38056369571E+03 -0.88202356104E+02 -0.10570267570E+04  0.11269045865E+04  0.00000000000E+00 0. -1.
         -1    1    6    6    0  503 -0.95100556462E+02  0.22902561530E+02 -0.23609427020E+03  0.25555654479E+03  0.00000000000E+00 0.  1.
<mgrwt>
<rscale>  0 0.19102563E+04</rscale>
<asrwt>0</asrwt>
<pdfrwt beam="1">  1        2 0.26048528E+00 0.19102563E+04</pdfrwt>
<pdfrwt beam="2">  1       -1 0.82892146E-01 0.19102563E+04</pdfrwt>
<totfact> 0.15243049E+01</totfact>
</mgrwt>
</event>
<event>
12    6  0.1586493E-007  0.1133669E+04  0.7818608E-02  0.9172984E-01
          2   -1    0    0  501    0  0.00000000000E+00  0.00000000000E+00  0.86766903061E+03  0.86766903061E+03  0.00000000000E+00 0. -1.
         -1   -1    0    0    0  501 -0.00000000000E+00 -0.00000000000E+00 -0.37030373678E+03  0.37030373678E+03  0.00000000000E+00 0.  1.
         24    2    1    2    0    0  0.58817451240E+02  0.83187127406E+02  0.27684947984E+03  0.30549103270E+03  0.79369678306E+02 0.  0.
        254    2    1    2    0    0 -0.58817451240E+02 -0.83187127406E+02  0.22051581400E+03  0.93248173469E+03  0.90028627146E+03 0.  0.
         23    2    4    4    0    0 -0.43331534662E+03 -0.21177373274E+03  0.48322745287E+02  0.49263259758E+03  0.87985709051E+02 0.  0.
         23    2    4    4    0    0  0.37449789538E+03  0.12858660533E+03  0.17219306871E+03  0.43984913711E+03  0.83866690594E+02 0.  0.
          2    1    3    3  502    0  0.35484459256E+02  0.80483293875E+02  0.26493180305E+03  0.27915151390E+03  0.00000000000E+00 0. -1.
         -1    1    3    3    0  502  0.23332991984E+02  0.27038335310E+01  0.11917676787E+02  0.26339518801E+02  0.00000000000E+00 0.  1.
         11    1    5    5    0    0 -0.35033557531E+03 -0.15582426526E+03  0.71174411540E+02  0.38997694013E+03  0.00000000000E+00 0. -1.
        -11    1    5    5    0    0 -0.82979771303E+02 -0.55949467478E+02 -0.22851666254E+02  0.10265565745E+03  0.00000000000E+00 0.  1.
          4    1    6    6  503    0  0.26005853636E+03  0.10807595932E+03  0.83879471125E+02  0.29384795557E+03  0.00000000000E+00 0. -1.
         -4    1    6    6    0  503  0.11443935902E+03  0.20510646008E+02  0.88313597585E+02  0.14600118154E+03  0.00000000000E+00 0.  1.
<mgrwt>
<rscale>  0 0.11336685E+04</rscale>
<asrwt>0</asrwt>
<pdfrwt beam="1">  1        2 0.13348754E+00 0.11336685E+04</pdfrwt>
<pdfrwt beam="2">  1       -1 0.56969806E-01 0.11336685E+04</pdfrwt>
<totfact> 0.10882694E+02</totfact>
</mgrwt>
</event>
<event>
12    6  0.1586493E-007  0.2272955E+04  0.7818608E-02  0.8488662E-01
         -1   -1    0    0    0  501 -0.00000000000E+00  0.00000000000E+00  0.56799605181E+03  0.56799605181E+03  0.00000000000E+00 0.  1.
          2   -1    0    0  501    0  0.00000000000E+00 -0.00000000000E+00 -0.22739255718E+04  0.22739255718E+04  0.00000000000E+00 0. -1.
         24    2    1    2    0    0 -0.52019404414E+03 -0.52845660128E+03 -0.14799987752E+04  0.16571382347E+04  0.76436453187E+02 0.  0.
        254    2    1    2    0    0  0.52019404414E+03  0.52845660128E+03 -0.22593074480E+03  0.11847833889E+04  0.89599037616E+03 0.  0.
         23    2    4    4    0    0  0.23576571535E+03 -0.71303368481E+02 -0.41273487853E+03  0.48908049436E+03  0.90443391753E+02 0.  0.
         23    2    4    4    0    0  0.28442832878E+03  0.59975996976E+03  0.18680413373E+03  0.69570289454E+03  0.92169612979E+02 0.  0.
          2    1    3    3  502    0 -0.84220415342E+02 -0.61651274981E+02 -0.25709190383E+03  0.27747108873E+03  0.00000000000E+00 0. -1.
         -1    1    3    3    0  502 -0.43597362879E+03 -0.46680532630E+03 -0.12229068713E+04  0.13796671459E+04  0.00000000000E+00 0.  1.
         11    1    5    5    0    0  0.16461347170E+02 -0.17669904782E+02 -0.76543378283E+01  0.25333581927E+02  0.00000000000E+00 0. -1.
        -11    1    5    5    0    0  0.21930436818E+03 -0.53633463699E+02 -0.40508054070E+03  0.46374691243E+03  0.00000000000E+00 0.  1.
          1    1    6    6  503    0  0.13141276963E+03  0.31243506293E+03  0.50079920493E+02  0.34262659413E+03  0.00000000000E+00 0. -1.
         -1    1    6    6    0  503  0.15301555915E+03  0.28732490684E+03  0.13672421323E+03  0.35307630041E+03  0.00000000000E+00 0.  1.
<mgrwt>
<rscale>  0 0.22729547E+04</rscale>
<asrwt>0</asrwt>
<pdfrwt beam="1">  1        2 0.34983471E+00 0.22729547E+04</pdfrwt>
<pdfrwt beam="2">  1       -1 0.87384006E-01 0.22729547E+04</pdfrwt>
<totfact> 0.62503344E+00</totfact>
</mgrwt>
</event>
<event>
12    6  0.1586493E-007  0.2560625E+04  0.7818608E-02  0.8381700E-01
         -1   -1    0    0    0  501 -0.00000000000E+00  0.00000000000E+00  0.14041918597E+04  0.14041918597E+04  0.00000000000E+00 0.  1.
          2   -1    0    0  501    0  0.00000000000E+00 -0.00000000000E+00 -0.11673618196E+04  0.11673618196E+04  0.00000000000E+00 0. -1.
         24    2    1    2    0    0 -0.42050754820E+03  0.33640079860E+03 -0.89446955482E+03  0.10473616508E+04  0.83057496720E+02 0.  0.
        254    2    1    2    0    0  0.42050754820E+03 -0.33640079860E+03  0.11312995949E+04  0.15241920285E+04  0.86794612214E+03 0.  0.
         23    2    4    4    0    0 -0.42844166056E+02 -0.43111694031E+03  0.87247343703E+03  0.97836170367E+03  0.91018053660E+02 0.  0.
         23    2    4    4    0    0  0.46335171426E+03  0.94716141709E+02  0.25882615787E+03  0.54583032483E+03  0.85286604483E+02 0.  0.
          4    1    3    3  502    0 -0.23694200452E+03  0.23293924135E+03 -0.58918523456E+03  0.67641809873E+03  0.00000000000E+00 0. -1.
         -3    1    3    3    0  502 -0.18356554369E+03  0.10346155724E+03 -0.30528432026E+03  0.37094355211E+03  0.00000000000E+00 0.  1.
         11    1    5    5    0    0 -0.37770120407E+02 -0.41061636288E+03  0.76721894603E+03  0.87100935162E+03  0.00000000000E+00 0. -1.
        -11    1    5    5    0    0 -0.50740456490E+01 -0.20500577425E+02  0.10525449100E+03  0.10735235205E+03  0.00000000000E+00 0.  1.
          3    1    6    6  503    0  0.43639658993E+03  0.78378381663E+02  0.26054195113E+03  0.51426380653E+03  0.00000000000E+00 0. -1.
         -3    1    6    6    0  503  0.26955124335E+02  0.16337760046E+02 -0.17157932612E+01  0.31566518302E+02  0.00000000000E+00 0.  1.
<mgrwt>
<rscale>  0 0.25606249E+04</rscale>
<asrwt>0</asrwt>
<pdfrwt beam="1">  1        2 0.17959413E+00 0.25606249E+04</pdfrwt>
<pdfrwt beam="2">  1       -1 0.21602952E+00 0.25606249E+04</pdfrwt>
<totfact> 0.23454960E+00</totfact>
</mgrwt>
</event>
<event>
12    6  0.1586493E-007  0.2534407E+04  0.7818608E-02  0.8390829E-01
          2   -1    0    0  501    0  0.00000000000E+00  0.00000000000E+00  0.10221658402E+04  0.10221658402E+04  0.00000000000E+00 0. -1.
         -1   -1    0    0    0  501 -0.00000000000E+00 -0.00000000000E+00 -0.15709825563E+04  0.15709825563E+04  0.00000000000E+00 0.  1.
         24    2    1    2    0    0 -0.51063718850E+03  0.46071268495E+03  0.64569007216E+03  0.94680847549E+03  0.80771923434E+02 0.  0.
        254    2    1    2    0    0  0.51063718850E+03 -0.46071268495E+03 -0.11945067882E+04  0.16463399210E+04  0.90032335969E+03 0.  0.
         23    2    4    4    0    0 -0.45590060693E+02  0.20223316334E+03 -0.10157384102E+03  0.24931485468E+03  0.94148529438E+02 0.  0.
         23    2    4    4    0    0  0.55622724920E+03 -0.66294584829E+03 -0.10929329472E+04  0.13970250663E+04  0.91053052293E+02 0.  0.
          2    1    3    3  502    0 -0.44321276614E+03  0.43120142718E+03  0.58794313834E+03  0.85325808569E+03  0.00000000000E+00 0. -1.
         -1    1    3    3    0  502 -0.67424422367E+02  0.29511257775E+02  0.57746933816E+02  0.93550389802E+02  0.00000000000E+00 0.  1.
         11    1    5    5    0    0 -0.12451587308E+00 -0.47064058321E+01 -0.22782034054E+02  0.23263422699E+02  0.00000000000E+00 0. -1.
        -11    1    5    5    0    0 -0.45465544820E+02  0.20693956917E+03 -0.78791806963E+02  0.22605143198E+03  0.00000000000E+00 0.  1.
          1    1    6    6  503    0  0.70675096988E+02 -0.45172924579E+02 -0.12036104403E+03  0.14670495346E+03  0.00000000000E+00 0. -1.
         -1    1    6    6    0  503  0.48555215221E+03 -0.61777292371E+03 -0.97257190319E+03  0.12503201129E+04  0.00000000000E+00 0.  1.
<mgrwt>
<rscale>  0 0.25344070E+04</rscale>
<asrwt>0</asrwt>
<pdfrwt beam="1">  1        2 0.15725628E+00 0.25344070E+04</pdfrwt>
<pdfrwt beam="2">  1       -1 0.24168962E+00 0.25344070E+04</pdfrwt>
<totfact> 0.19532386E+00</totfact>
</mgrwt>
</event>
<event>
12    6  0.1586493E-007  0.1062924E+04  0.7818608E-02  0.9242101E-01
          2   -1    0    0  501    0  0.00000000000E+00  0.00000000000E+00  0.59484093418E+03  0.59484093418E+03  0.00000000000E+00 0. -1.
         -1   -1    0    0    0  501 -0.00000000000E+00 -0.00000000000E+00 -0.47483611629E+03  0.47483611629E+03  0.00000000000E+00 0.  1.
         24    2    1    2    0    0  0.64040993970E+00  0.91518597942E+02  0.10109062063E+02  0.12068462457E+03  0.78016162280E+02 0.  0.
        254    2    1    2    0    0 -0.64040993970E+00 -0.91518597942E+02  0.10989575582E+03  0.94899242590E+03  0.93815429614E+03 0.  0.
         23    2    4    4    0    0  0.96327408372E+02  0.14543780668E+03  0.46327921976E+03  0.50321050186E+03  0.90344056321E+02 0.  0.
         23    2    4    4    0    0 -0.96967818311E+02 -0.23695640462E+03 -0.35338346393E+03  0.44578192404E+03  0.91052488921E+02 0.  0.
          4    1    3    3  502    0  0.20782878777E+02  0.18724863580E+02  0.31555311585E+02  0.42169731509E+02  0.00000000000E+00 0. -1.
         -3    1    3    3    0  502 -0.20142468837E+02  0.72793734362E+02 -0.21446249522E+02  0.78514893057E+02  0.00000000000E+00 0.  1.
         11    1    5    5    0    0  0.10493225904E+03  0.15209057996E+03  0.44639614960E+03  0.48312715291E+03  0.00000000000E+00 0.  1.
        -11    1    5    5    0    0 -0.86048506650E+01 -0.66527732838E+01  0.16883070154E+02  0.20083348953E+02  0.00000000000E+00 0. -1.
          4    1    6    6  503    0 -0.73686679977E+01 -0.57320669999E+02 -0.14663124513E+03  0.15760925901E+03  0.00000000000E+00 0. -1.
         -4    1    6    6    0  503 -0.89599150314E+02 -0.17963573462E+03 -0.20675221881E+03  0.28817266503E+03  0.00000000000E+00 0.  1.
<mgrwt>
<rscale>  0 0.10629242E+04</rscale>
<asrwt>0</asrwt>
<pdfrwt beam="1">  1        2 0.91513990E-01 0.10629242E+04</pdfrwt>
<pdfrwt beam="2">  1       -1 0.73051710E-01 0.10629242E+04</pdfrwt>
<totfact> 0.10769428E+02</totfact>
</mgrwt>
</event>
<event>
12    6  0.1586493E-007  0.1506062E+04  0.7818608E-02  0.8880432E-01
          2   -1    0    0  501    0  0.00000000000E+00  0.00000000000E+00  0.75589531095E+03  0.75589531095E+03  0.00000000000E+00 0. -1.
         -1   -1    0    0    0  501 -0.00000000000E+00 -0.00000000000E+00 -0.75017734583E+03  0.75017734583E+03  0.00000000000E+00 0.  1.
         24    2    1    2    0    0  0.92544077510E+02  0.16969160601E+02 -0.48231307030E+03  0.49774471443E+03  0.79193082214E+02 0.  0.
        254    2    1    2    0    0 -0.92544077510E+02 -0.16969160601E+02  0.48803103541E+03  0.10083279423E+04  0.87732467713E+03 0.  0.
         23    2    4    4    0    0 -0.32874941793E+03 -0.33326914220E+03  0.27810976133E+03  0.55185641478E+03  0.89755012443E+02 0.  0.
         23    2    4    4    0    0  0.23620534042E+03  0.31629998160E+03  0.20992127409E+03  0.45647152756E+03  0.91981916475E+02 0.  0.
          2    1    3    3  502    0  0.82086520650E+01 -0.26575536007E+02 -0.96522939497E+02  0.10045057955E+03  0.00000000000E+00 0. -1.
         -1    1    3    3    0  502  0.84335425445E+02  0.43544696609E+02 -0.38579013080E+03  0.39729413488E+03  0.00000000000E+00 0.  1.
         11    1    5    5    0    0 -0.11026230953E+03 -0.13530702042E+03  0.15098382955E+03  0.23078536233E+03  0.00000000000E+00 0.  1.
        -11    1    5    5    0    0 -0.21848710840E+03 -0.19796212177E+03  0.12712593178E+03  0.32107105246E+03  0.00000000000E+00 0. -1.
          3    1    6    6  503    0  0.16766799712E+03  0.27576275102E+03  0.18953895121E+03  0.37427618965E+03  0.00000000000E+00 0. -1.
         -3    1    6    6    0  503  0.68537343301E+02  0.40537230576E+02  0.20382322878E+02  0.82195337918E+02  0.00000000000E+00 0.  1.
<mgrwt>
<rscale>  0 0.15060618E+04</rscale>
<asrwt>0</asrwt>
<pdfrwt beam="1">  1        2 0.11629159E+00 0.15060618E+04</pdfrwt>
<pdfrwt beam="2">  1       -1 0.11541190E+00 0.15060618E+04</pdfrwt>
<totfact> 0.27866704E+01</totfact>
</mgrwt>
</event>
<event>
12    6  0.1586493E-007  0.2384442E+04  0.7818608E-02  0.8445351E-01
         -1   -1    0    0    0  501 -0.00000000000E+00  0.00000000000E+00  0.67986654235E+03  0.67986654235E+03  0.00000000000E+00 0.  1.
          2   -1    0    0  501    0  0.00000000000E+00 -0.00000000000E+00 -0.20906918711E+04  0.20906918711E+04  0.00000000000E+00 0. -1.
         24    2    1    2    0    0 -0.34551652659E+03 -0.50747015909E+01  0.51451436831E+03  0.62481344235E+03  0.79116242346E+02 0.  0.
        254    2    1    2    0    0  0.34551652659E+03  0.50747015909E+01 -0.19253396971E+04  0.21457449711E+04  0.88197568515E+03 0.  0.
         23    2    4    4    0    0 -0.88031026828E+02  0.25812786903E+03 -0.13355153137E+04  0.13660990510E+04  0.90807519556E+02 0.  0.
         23    2    4    4    0    0  0.43354755342E+03 -0.25305316744E+03 -0.58982438338E+03  0.77964592010E+03  0.89194006934E+02 0.  0.
          4    1    3    3  502    0 -0.47746671667E+02  0.98120052976E+01  0.34401636460E+02  0.59661484179E+02  0.00000000000E+00 0. -1.
         -3    1    3    3    0  502 -0.29776985492E+03 -0.14886706889E+02  0.48011273185E+03  0.56515195817E+03  0.00000000000E+00 0.  1.
         11    1    5    5    0    0 -0.87653074155E+02  0.23876434097E+03 -0.10673911183E+04  0.10972762968E+04  0.00000000000E+00 0. -1.
        -11    1    5    5    0    0 -0.37795267325E+00  0.19363528066E+02 -0.26812419539E+03  0.26882275428E+03  0.00000000000E+00 0.  1.
          1    1    6    6  503    0  0.23311407702E+03 -0.18689482667E+03 -0.34414028559E+03  0.45574596576E+03  0.00000000000E+00 0. -1.
         -1    1    6    6    0  503  0.20043347640E+03 -0.66158340772E+02 -0.24568409778E+03  0.32389995433E+03  0.00000000000E+00 0.  1.
<mgrwt>
<rscale>  0 0.23844425E+04</rscale>
<asrwt>0</asrwt>
<pdfrwt beam="1">  1        2 0.32164490E+00 0.23844425E+04</pdfrwt>
<pdfrwt beam="2">  1       -1 0.10459485E+00 0.23844425E+04</pdfrwt>
<totfact> 0.52334187E+00</totfact>
</mgrwt>
</event>
<event>
12    6  0.1586493E-007  0.1507785E+04  0.7818608E-02  0.8879293E-01
         -1   -1    0    0    0  501 -0.00000000000E+00  0.00000000000E+00  0.17750530875E+03  0.17750530875E+03  0.00000000000E+00 0.  1.
          2   -1    0    0  501    0  0.00000000000E+00 -0.00000000000E+00 -0.32018967529E+04  0.32018967529E+04  0.00000000000E+00 0. -1.
         24    2    1    2    0    0  0.47578796362E+02 -0.47435621145E+03 -0.96169852986E+03  0.10762635284E+04  0.78750002967E+02 0.  0.
        254    2    1    2    0    0 -0.47578796362E+02  0.47435621145E+03 -0.20626929143E+04  0.23031385332E+04  0.90689993249E+03 0.  0.
         23    2    4    4    0    0  0.50453854983E+02  0.71040930947E+03 -0.11951222984E+04  0.13941020920E+04  0.89310449776E+02 0.  0.
         23    2    4    4    0    0 -0.98032651345E+02 -0.23605309802E+03 -0.86757061586E+03  0.90903644120E+03  0.91307240202E+02 0.  0.
          4    1    3    3  502    0  0.29261216609E+02 -0.16766257269E+03 -0.42553691081E+03  0.45831061469E+03  0.00000000000E+00 0. -1.
         -3    1    3    3    0  502  0.18317579753E+02 -0.30669363876E+03 -0.53616161906E+03  0.61795291369E+03  0.00000000000E+00 0.  1.
         11    1    5    5    0    0  0.21160372238E+02  0.53347321907E+03 -0.82280720477E+03  0.98084307259E+03  0.00000000000E+00 0. -1.
        -11    1    5    5    0    0  0.29293482745E+02  0.17693609039E+03 -0.37231509362E+03  0.41325901944E+03  0.00000000000E+00 0.  1.
          1    1    6    6  503    0 -0.60224653998E+02 -0.22290823653E+03 -0.75771410630E+03  0.79211473774E+03  0.00000000000E+00 0. -1.
         -1    1    6    6    0  503 -0.37807997347E+02 -0.13144861487E+02 -0.10985650956E+03  0.11692170346E+03  0.00000000000E+00 0.  1.
<mgrwt>
<rscale>  0 0.15077847E+04</rscale>
<asrwt>0</asrwt>
<pdfrwt beam="1">  1        2 0.49259951E+00 0.15077847E+04</pdfrwt>
<pdfrwt beam="2">  1       -1 0.27308508E-01 0.15077847E+04</pdfrwt>
<totfact> 0.17264469E+01</totfact>
</mgrwt>
</event>
<event>
12    6  0.1586493E-007  0.1143756E+04  0.7818608E-02  0.9163563E-01
          2   -1    0    0  501    0  0.00000000000E+00  0.00000000000E+00  0.17600383719E+03  0.17600383719E+03  0.00000000000E+00 0. -1.
         -1   -1    0    0    0  501 -0.00000000000E+00 -0.00000000000E+00 -0.18581677999E+04  0.18581677999E+04  0.00000000000E+00 0.  1.
         24    2    1    2    0    0  0.20798005290E+03 -0.50967882246E+01 -0.33597212368E+03  0.40322074784E+03  0.80174958351E+02 0.  0.
        254    2    1    2    0    0 -0.20798005290E+03  0.50967882246E+01 -0.13461918390E+04  0.16309508892E+04  0.89693180121E+03 0.  0.
         23    2    4    4    0    0  0.54492163727E+02 -0.21268751086E+03 -0.16461008111E+00  0.23944072578E+03  0.95532512165E+02 0.  0.
         23    2    4    4    0    0 -0.26247221663E+03  0.21778429909E+03 -0.13460272289E+04  0.13915101635E+04  0.90496234919E+02 0.  0.
          2    1    3    3  502    0  0.12810470713E+03  0.32754746724E+02 -0.17209862152E+03  0.21702908780E+03  0.00000000000E+00 0. -1.
         -1    1    3    3    0  502  0.79875345769E+02 -0.37851534948E+02 -0.16387350216E+03  0.18619166004E+03  0.00000000000E+00 0.  1.
         11    1    5    5    0    0  0.10855551544E+02 -0.18069999980E+03 -0.19299640893E+02  0.18205166593E+03  0.00000000000E+00 0. -1.
        -11    1    5    5    0    0  0.43636612182E+02 -0.31987511060E+02  0.19135030812E+02  0.57389059852E+02  0.00000000000E+00 0.  1.
          4    1    6    6  503    0 -0.23617743086E+03  0.22400905194E+03 -0.12258781900E+04  0.12683600320E+04  0.00000000000E+00 0. -1.
         -4    1    6    6    0  503 -0.26294785770E+02 -0.62247528523E+01 -0.12014903897E+03  0.12315013143E+03  0.00000000000E+00 0.  1.
<mgrwt>
<rscale>  0 0.11437564E+04</rscale>
<asrwt>0</asrwt>
<pdfrwt beam="1">  1        2 0.27077514E-01 0.11437564E+04</pdfrwt>
<pdfrwt beam="2">  1       -1 0.28587197E+00 0.11437564E+04</pdfrwt>
<totfact> 0.93377741E+00</totfact>
</mgrwt>
</event>
<event>
12    6  0.1586493E-007  0.1093338E+04  0.7818608E-02  0.9211710E-01
          2   -1    0    0  501    0  0.00000000000E+00  0.00000000000E+00  0.34298978755E+04  0.34298978755E+04  0.00000000000E+00 0. -1.
         -1   -1    0    0    0  501 -0.00000000000E+00 -0.00000000000E+00 -0.87129996041E+02  0.87129996041E+02  0.00000000000E+00 0.  1.
         24    2    1    2    0    0 -0.88403177884E+02  0.10020989310E+03  0.26034520016E+03  0.30269077811E+03  0.77362389906E+02 0.  0.
        254    2    1    2    0    0  0.88403177884E+02 -0.10020989310E+03  0.30824226793E+04  0.32143370935E+04  0.90154103169E+03 0.  0.
         23    2    4    4    0    0 -0.10142394397E+03 -0.23332913177E+03  0.24311329464E+03  0.36411589124E+03  0.93525440815E+02 0.  0.
         23    2    4    4    0    0  0.18982712185E+03  0.13311923867E+03  0.28393093847E+04  0.28502212022E+04  0.91258159654E+02 0.  0.
          2    1    3    3  502    0 -0.16637721337E+02  0.14818594611E+01  0.18214154074E+01  0.16802596015E+02  0.00000000000E+00 0. -1.
         -1    1    3    3    0  502 -0.71765456547E+02  0.98728033639E+02  0.25852378475E+03  0.28588818209E+03  0.00000000000E+00 0.  1.
         11    1    5    5    0    0 -0.20528234562E+02 -0.42709784096E+02  0.10502861342E+03  0.11522388515E+03  0.00000000000E+00 0.  1.
        -11    1    5    5    0    0 -0.80895709408E+02 -0.19061934768E+03  0.13808468122E+03  0.24889200609E+03  0.00000000000E+00 0. -1.
          1    1    6    6  503    0  0.17999621932E+03  0.13204863492E+03  0.22971752628E+04  0.23079968954E+04  0.00000000000E+00 0. -1.
         -1    1    6    6    0  503  0.98309025319E+01  0.10706037517E+01  0.54213412189E+03  0.54222430686E+03  0.00000000000E+00 0.  1.
<mgrwt>
<rscale>  0 0.10933380E+04</rscale>
<asrwt>0</asrwt>
<pdfrwt beam="1">  1        2 0.52767649E+00 0.10933380E+04</pdfrwt>
<pdfrwt beam="2">  1       -1 0.13404617E-01 0.10933380E+04</pdfrwt>
<totfact> 0.41876733E+01</totfact>
</mgrwt>
</event>
<event>
12    6  0.1586493E-007  0.2880062E+04  0.7818608E-02  0.8278834E-01
         -1   -1    0    0    0  501 -0.00000000000E+00  0.00000000000E+00  0.10655047946E+04  0.10655047946E+04  0.00000000000E+00 0.  1.
          2   -1    0    0  501    0  0.00000000000E+00 -0.00000000000E+00 -0.19462038716E+04  0.19462038716E+04  0.00000000000E+00 0. -1.
         24    2    1    2    0    0 -0.12450085390E+04  0.84939579228E+01 -0.10558614264E+02  0.12477721190E+04  0.81886305196E+02 0.  0.
        254    2    1    2    0    0  0.12450085390E+04 -0.84939579228E+01 -0.87014046275E+03  0.17639365473E+04  0.89677717872E+03 0.  0.
         23    2    4    4    0    0  0.57667027235E+03 -0.25629259233E+03 -0.82680142926E+03  0.10440665491E+04  0.90773673028E+02 0.  0.
         23    2    4    4    0    0  0.66833826666E+03  0.24779863440E+03 -0.43339033498E+02  0.71986999811E+03  0.90853400953E+02 0.  0.
          2    1    3    3  502    0 -0.70735845860E+03 -0.24344306197E+01  0.33914090120E+02  0.70817517672E+03  0.00000000000E+00 0. -1.
         -1    1    3    3    0  502 -0.53765008041E+03  0.10928388542E+02 -0.44472704384E+02  0.53959694224E+03  0.00000000000E+00 0.  1.
         11    1    5    5    0    0  0.28972959326E+02 -0.17548228366E+02 -0.85491993869E+02  0.91957890943E+02  0.00000000000E+00 0.  1.
        -11    1    5    5    0    0  0.54769731303E+03 -0.23874436396E+03 -0.74130943539E+03  0.95210865820E+03  0.00000000000E+00 0. -1.
          2    1    6    6  503    0  0.19357692078E+03  0.66354482604E+02  0.28345149534E+02  0.20658748539E+03  0.00000000000E+00 0.  1.
         -2    1    6    6    0  503  0.47476134588E+03  0.18144415180E+03 -0.71684183032E+02  0.51328251272E+03  0.00000000000E+00 0. -1.
<mgrwt>
<rscale>  0 0.28800622E+04</rscale>
<asrwt>0</asrwt>
<pdfrwt beam="1">  1        2 0.29941598E+00 0.28800622E+04</pdfrwt>
<pdfrwt beam="2">  1       -1 0.16392382E+00 0.28800622E+04</pdfrwt>
<totfact> 0.19218572E+00</totfact>
</mgrwt>
</event>
<event>
12    6  0.1586493E-007  0.1972174E+04  0.7818608E-02  0.8619742E-01
          2   -1    0    0  501    0  0.00000000000E+00  0.00000000000E+00  0.22696818380E+04  0.22696818380E+04  0.00000000000E+00 0. -1.
         -1   -1    0    0    0  501 -0.00000000000E+00 -0.00000000000E+00 -0.42841587253E+03  0.42841587253E+03  0.00000000000E+00 0.  1.
         24    2    1    2    0    0  0.66821322479E+03  0.18199523089E+03  0.12181824271E+04  0.14035908414E+04  0.80421678633E+02 0.  0.
        254    2    1    2    0    0 -0.66821322479E+03 -0.18199523089E+03  0.62308353832E+03  0.12945068691E+04  0.89882354257E+03 0.  0.
         23    2    4    4    0    0 -0.84807286570E+01 -0.14397258729E+03  0.60375289174E+03  0.62708835454E+03  0.89006861891E+02 0.  0.
         23    2    4    4    0    0 -0.65973249613E+03 -0.38022643597E+02  0.19330646579E+02  0.66741851460E+03  0.91548412660E+02 0.  0.
          2    1    3    3  502    0  0.48633616000E+03  0.10395952702E+03  0.82227003491E+03  0.96096745736E+03  0.00000000000E+00 0. -1.
         -1    1    3    3    0  502  0.18187706478E+03  0.78035703872E+02  0.39591239224E+03  0.44262338404E+03  0.00000000000E+00 0.  1.
         11    1    5    5    0    0 -0.92693869917E+01  0.10658093465E+02  0.68789669706E+02  0.70224889817E+02  0.00000000000E+00 0. -1.
        -11    1    5    5    0    0  0.78865833475E+00 -0.15463068076E+03  0.53496322203E+03  0.55686346472E+03  0.00000000000E+00 0.  1.
          4    1    6    6  503    0 -0.52642254291E+03 -0.53620696699E+02 -0.13208413748E+02  0.52931118918E+03  0.00000000000E+00 0.  1.
         -4    1    6    6    0  503 -0.13330995322E+03  0.15598053102E+02  0.32539060327E+02  0.13810732542E+03  0.00000000000E+00 0. -1.
<mgrwt>
<rscale>  0 0.19721742E+04</rscale>
<asrwt>0</asrwt>
<pdfrwt beam="1">  1        2 0.34918181E+00 0.19721742E+04</pdfrwt>
<pdfrwt beam="2">  1       -1 0.65910136E-01 0.19721742E+04</pdfrwt>
<totfact> 0.11667362E+01</totfact>
</mgrwt>
</event>
<event>
12    6  0.1586493E-007  0.1449950E+04  0.7818608E-02  0.8918435E-01
         -1   -1    0    0    0  501 -0.00000000000E+00  0.00000000000E+00  0.44651089631E+03  0.44651089631E+03  0.00000000000E+00 0.  1.
          2   -1    0    0  501    0  0.00000000000E+00 -0.00000000000E+00 -0.11771011763E+04  0.11771011763E+04  0.00000000000E+00 0. -1.
         24    2    1    2    0    0  0.36979724466E+03  0.60336664913E+02 -0.48725857240E+03  0.61982568688E+03  0.79827629521E+02 0.  0.
        254    2    1    2    0    0 -0.36979724466E+03 -0.60336664913E+02 -0.24333170756E+03  0.10037863857E+04  0.89888056656E+03 0.  0.
         23    2    4    4    0    0 -0.40843691301E+03  0.34903258088E+03 -0.19812564724E+03  0.57997613518E+03  0.92054825288E+02 0.  0.
         23    2    4    4    0    0  0.38639668349E+02 -0.40936924580E+03 -0.45206060320E+02  0.42381025053E+03  0.92170153465E+02 0.  0.
          4    1    3    3  502    0  0.17305073641E+03  0.65914512344E+02 -0.25961547749E+03  0.31889101032E+03  0.00000000000E+00 0. -1.
         -3    1    3    3    0  502  0.19674650825E+03 -0.55778474314E+01 -0.22764309491E+03  0.30093467656E+03  0.00000000000E+00 0.  1.
         11    1    5    5    0    0 -0.77175077430E+02  0.23976909543E+02 -0.24357946935E+02  0.84404942666E+02  0.00000000000E+00 0.  1.
        -11    1    5    5    0    0 -0.33126183558E+03  0.32505567134E+03 -0.17376770030E+03  0.49557119252E+03  0.00000000000E+00 0. -1.
          3    1    6    6  503    0  0.60628102382E+02 -0.22615085468E+03 -0.49128656290E+02  0.23923545042E+03  0.00000000000E+00 0.  1.
         -3    1    6    6    0  503 -0.21988434033E+02 -0.18321839112E+03  0.39225959699E+01  0.18457480011E+03  0.00000000000E+00 0. -1.
<mgrwt>
<rscale>  0 0.14499497E+04</rscale>
<asrwt>0</asrwt>
<pdfrwt beam="1">  1        2 0.18109249E+00 0.14499497E+04</pdfrwt>
<pdfrwt beam="2">  1       -1 0.68693985E-01 0.14499497E+04</pdfrwt>
<totfact> 0.46367451E+01</totfact>
</mgrwt>
</event>
<event>
12    6  0.1586493E-007  0.1705243E+04  0.7818608E-02  0.8758380E-01
          2   -1    0    0  501    0  0.00000000000E+00  0.00000000000E+00  0.12258155893E+04  0.12258155893E+04  0.00000000000E+00 0. -1.
         -1   -1    0    0    0  501 -0.00000000000E+00 -0.00000000000E+00 -0.59304462221E+03  0.59304462221E+03  0.00000000000E+00 0.  1.
         24    2    1    2    0    0 -0.39179047247E+03  0.46877799803E+03  0.27526548438E+03  0.67459252526E+03  0.77790760971E+02 0.  0.
        254    2    1    2    0    0  0.39179047247E+03 -0.46877799803E+03  0.35750548273E+03  0.11442676863E+04  0.89904715221E+03 0.  0.
         23    2    4    4    0    0 -0.20719039146E+03  0.10097048936E+03  0.26201235628E+02  0.24862741895E+03  0.89477319312E+02 0.  0.
         23    2    4    4    0    0  0.59898086393E+03 -0.56974848739E+03  0.33130424710E+03  0.89564026731E+03  0.94960886946E+02 0.  0.
          4    1    3    3  502    0 -0.37979369539E+03  0.46166964867E+03  0.27962969012E+03  0.65998096878E+03  0.00000000000E+00 0. -1.
         -3    1    3    3    0  502 -0.11996777083E+02  0.71083493602E+01 -0.43642057396E+01  0.14611556479E+02  0.00000000000E+00 0.  1.
         11    1    5    5    0    0 -0.36165892778E+02 -0.16407975171E+02  0.68068710657E+01  0.40293013580E+02  0.00000000000E+00 0.  1.
        -11    1    5    5    0    0 -0.17102449868E+03  0.11737846453E+03  0.19394364562E+02  0.20833440537E+03  0.00000000000E+00 0. -1.
          4    1    6    6  503    0  0.53746070039E+03 -0.48027977011E+03  0.31174511268E+03  0.78531374451E+03  0.00000000000E+00 0. -1.
         -4    1    6    6    0  503  0.61520163536E+02 -0.89468717282E+02  0.19559134416E+02  0.11032652280E+03  0.00000000000E+00 0.  1.
<mgrwt>
<rscale>  0 0.17052429E+04</rscale>
<asrwt>0</asrwt>
<pdfrwt beam="1">  1        2 0.18858701E+00 0.17052429E+04</pdfrwt>
<pdfrwt beam="2">  1       -1 0.91237634E-01 0.17052429E+04</pdfrwt>
<totfact> 0.23237510E+01</totfact>
</mgrwt>
</event>
<event>
12    6  0.1586493E-007  0.1340944E+04  0.7818608E-02  0.8997712E-01
          2   -1    0    0  501    0  0.00000000000E+00  0.00000000000E+00  0.31051628524E+04  0.31051628524E+04  0.00000000000E+00 0. -1.
         -1   -1    0    0    0  501 -0.00000000000E+00 -0.00000000000E+00 -0.14476935031E+03  0.14476935031E+03  0.00000000000E+00 0.  1.
         24    2    1    2    0    0  0.34900067357E+03 -0.62587804396E+02  0.77895161976E+03  0.85956185583E+03  0.79763742728E+02 0.  0.
        254    2    1    2    0    0 -0.34900067357E+03  0.62587804396E+02  0.21814418823E+04  0.23903703469E+04  0.91074859640E+03 0.  0.
         23    2    4    4    0    0  0.19086870373E+02  0.30822924204E+03  0.17010998633E+04  0.17312483708E+04  0.90058882903E+02 0.  0.
         23    2    4    4    0    0 -0.36808754395E+03 -0.24564143764E+03  0.48034201902E+03  0.65912197602E+03  0.88798469248E+02 0.  0.
          4    1    3    3  502    0  0.18342085920E+03 -0.65250560572E+02  0.47662395272E+03  0.51485069637E+03  0.00000000000E+00 0. -1.
         -3    1    3    3    0  502  0.16557981437E+03  0.26627561761E+01  0.30232766704E+03  0.34471115946E+03  0.00000000000E+00 0.  1.
         11    1    5    5    0    0  0.42688506015E+02  0.28191642816E+03  0.15557096396E+04  0.15816231106E+04  0.00000000000E+00 0.  1.
        -11    1    5    5    0    0 -0.23601635642E+02  0.26312813881E+02  0.14539022363E+03  0.14962526026E+03  0.00000000000E+00 0. -1.
          2    1    6    6  503    0 -0.18167738641E+03 -0.17361307597E+03  0.25752360420E+03  0.35981464617E+03  0.00000000000E+00 0. -1.
         -2    1    6    6    0  503 -0.18641015753E+03 -0.72028361677E+02  0.22281841482E+03  0.29930732985E+03  0.00000000000E+00 0.  1.
<mgrwt>
<rscale>  0 0.13409436E+04</rscale>
<asrwt>0</asrwt>
<pdfrwt beam="1">  1        2 0.47771731E+00 0.13409436E+04</pdfrwt>
<pdfrwt beam="2">  1       -1 0.22272210E-01 0.13409436E+04</pdfrwt>
<totfact> 0.28705622E+01</totfact>
</mgrwt>
</event>
<event>
12    6  0.1586493E-007  0.1325609E+04  0.7818608E-02  0.9009500E-01
         -1   -1    0    0    0  501 -0.00000000000E+00  0.00000000000E+00  0.42744546595E+03  0.42744546595E+03  0.00000000000E+00 0.  1.
          2   -1    0    0  501    0  0.00000000000E+00 -0.00000000000E+00 -0.10277560858E+04  0.10277560858E+04  0.00000000000E+00 0. -1.
         24    2    1    2    0    0 -0.17211995790E+03  0.11186536268E+03 -0.47969114842E+03  0.52803645814E+03  0.81115744335E+02 0.  0.
        254    2    1    2    0    0  0.17211995790E+03 -0.11186536268E+03 -0.12061947148E+03  0.92716509366E+03  0.89607305211E+03 0.  0.
         23    2    4    4    0    0  0.16813161753E+03 -0.26424234451E+03 -0.44842025875E+03  0.55452505563E+03  0.91241719752E+02 0.  0.
         23    2    4    4    0    0  0.39883403745E+01  0.15237698183E+03  0.32780078727E+03  0.37264003803E+03  0.90402380234E+02 0.  0.
          4    1    3    3  502    0 -0.15075107236E+03  0.97182986654E+02 -0.46464120106E+03  0.49805809343E+03  0.00000000000E+00 0. -1.
         -3    1    3    3    0  502 -0.21368885543E+02  0.14682376023E+02 -0.15049947360E+02  0.29978364708E+02  0.00000000000E+00 0.  1.
         11    1    5    5    0    0  0.10994456783E+03 -0.22941315619E+03 -0.38640168358E+03  0.46262778267E+03  0.00000000000E+00 0.  1.
        -11    1    5    5    0    0  0.58187049694E+02 -0.34829188323E+02 -0.62018575167E+02  0.91897272958E+02  0.00000000000E+00 0. -1.
          3    1    6    6  503    0 -0.11670528218E+02  0.53809338466E+02  0.40086342366E+02  0.68106981869E+02  0.00000000000E+00 0. -1.
         -3    1    6    6    0  503  0.15658868592E+02  0.98567643368E+02  0.28771444491E+03  0.30453305616E+03  0.00000000000E+00 0.  1.
<mgrwt>
<rscale>  0 0.13256088E+04</rscale>
<asrwt>0</asrwt>
<pdfrwt beam="1">  1        2 0.15811632E+00 0.13256088E+04</pdfrwt>
<pdfrwt beam="2">  1       -1 0.65760842E-01 0.13256088E+04</pdfrwt>
<totfact> 0.63262292E+01</totfact>
</mgrwt>
</event>
<event>
12    6  0.1586493E-007  0.2088686E+04  0.7818608E-02  0.8566244E-01
          2   -1    0    0  501    0  0.00000000000E+00  0.00000000000E+00  0.26486124614E+04  0.26486124614E+04  0.00000000000E+00 0. -1.
         -1   -1    0    0    0  501 -0.00000000000E+00 -0.00000000000E+00 -0.41178239711E+03  0.41178239711E+03  0.00000000000E+00 0.  1.
         24    2    1    2    0    0  0.35979956369E+03 -0.56158149009E+03  0.16321047943E+04  0.17648874352E+04  0.78943671197E+02 0.  0.
        254    2    1    2    0    0 -0.35979956369E+03  0.56158149009E+03  0.60472526998E+03  0.12955074233E+04  0.93156713966E+03 0.  0.
         23    2    4    4    0    0 -0.34954059314E+03  0.66462541865E+03  0.90681878388E+02  0.76172250125E+03  0.89957726066E+02 0.  0.
         23    2    4    4    0    0 -0.10258970549E+02 -0.10304392855E+03  0.51404339159E+03  0.53378492208E+03  0.99812007850E+02 0.  0.
          2    1    3    3  502    0  0.34753994163E+03 -0.51008004677E+03  0.14688271972E+04  0.15932416641E+04  0.00000000000E+00 0. -1.
         -1    1    3    3    0  502  0.12259622060E+02 -0.51501443326E+02  0.16327759712E+03  0.17164577105E+03  0.00000000000E+00 0.  1.
         11    1    5    5    0    0 -0.38103503490E+02  0.54929208813E+02  0.33308174264E+02  0.74689553699E+02  0.00000000000E+00 0.  1.
        -11    1    5    5    0    0 -0.31143708965E+03  0.60969620983E+03  0.57373704124E+02  0.68703294755E+03  0.00000000000E+00 0. -1.
          2    1    6    6  503    0  0.10900575461E+02 -0.78583572783E+01  0.33273542697E+01  0.13843684876E+02  0.00000000000E+00 0.  1.
         -2    1    6    6    0  503 -0.21159546011E+02 -0.95185571272E+02  0.51071603732E+03  0.51994123720E+03  0.00000000000E+00 0. -1.
<mgrwt>
<rscale>  0 0.20886857E+04</rscale>
<asrwt>0</asrwt>
<pdfrwt beam="1">  1        2 0.40747883E+00 0.20886857E+04</pdfrwt>
<pdfrwt beam="2">  1       -1 0.63351140E-01 0.20886857E+04</pdfrwt>
<totfact> 0.75630259E+00</totfact>
</mgrwt>
</event>
<event>
12    6  0.1586493E-007  0.1980768E+04  0.7818608E-02  0.8615665E-01
          2   -1    0    0  501    0  0.00000000000E+00  0.00000000000E+00  0.16476390021E+04  0.16476390021E+04  0.00000000000E+00 0. -1.
         -1   -1    0    0    0  501 -0.00000000000E+00 -0.00000000000E+00 -0.59531265276E+03  0.59531265276E+03  0.00000000000E+00 0.  1.
         24    2    1    2    0    0 -0.81764384378E+02  0.98743047054E+00 -0.46661482595E+03  0.48066072822E+03  0.81356931403E+02 0.  0.
        254    2    1    2    0    0  0.81764384378E+02 -0.98743047054E+00  0.15189411753E+04  0.17622909267E+04  0.88983179680E+03 0.  0.
         23    2    4    4    0    0  0.37635044724E+03 -0.26016631457E+03  0.10164997416E+04  0.11184295374E+04  0.91031505433E+02 0.  0.
         23    2    4    4    0    0 -0.29458606286E+03  0.25917888410E+03  0.50244143370E+03  0.64386138931E+03  0.90307540891E+02 0.  0.
          4    1    3    3  502    0 -0.16255213159E+02  0.18661100106E+02 -0.30397238946E+02  0.39197713550E+02  0.00000000000E+00 0. -1.
         -3    1    3    3    0  502 -0.65509171220E+02 -0.17673669635E+02 -0.43621758700E+03  0.44146301467E+03  0.00000000000E+00 0.  1.
         11    1    5    5    0    0  0.31453290275E+03 -0.24090828260E+03  0.92559169239E+03  0.10068206040E+04  0.00000000000E+00 0.  1.
        -11    1    5    5    0    0  0.61817544493E+02 -0.19258031968E+02  0.90908049205E+02  0.11160893339E+03  0.00000000000E+00 0. -1.
          2    1    6    6  503    0 -0.37901668055E+01 -0.68702180540E+01  0.15716804992E+02  0.17566536929E+02  0.00000000000E+00 0. -1.
         -2    1    6    6    0  503 -0.29079589606E+03  0.26604910215E+03  0.48672462871E+03  0.62629485238E+03  0.00000000000E+00 0.  1.
<mgrwt>
<rscale>  0 0.19807679E+04</rscale>
<asrwt>0</asrwt>
<pdfrwt beam="1">  1        2 0.25348292E+00 0.19807679E+04</pdfrwt>
<pdfrwt beam="2">  1       -1 0.91586562E-01 0.19807679E+04</pdfrwt>
<totfact> 0.12918138E+01</totfact>
</mgrwt>
</event>
<event>
12    6  0.1586493E-007  0.2486299E+04  0.7818608E-02  0.8407883E-01
          2   -1    0    0  501    0  0.00000000000E+00  0.00000000000E+00  0.25261513916E+04  0.25261513916E+04  0.00000000000E+00 0. -1.
         -1   -1    0    0    0  501 -0.00000000000E+00 -0.00000000000E+00 -0.61176884192E+03  0.61176884192E+03  0.00000000000E+00 0.  1.
         24    2    1    2    0    0  0.31439704125E+03 -0.49992968312E+03 -0.30371854175E+03  0.66902377347E+03  0.81072000481E+02 0.  0.
        254    2    1    2    0    0 -0.31439704125E+03  0.49992968312E+03  0.22181010914E+04  0.24688964600E+04  0.90923159374E+03 0.  0.
         23    2    4    4    0    0 -0.13142599153E+03  0.62945088409E+03  0.79639369237E+03  0.10273714142E+04  0.88135706389E+02 0.  0.
         23    2    4    4    0    0 -0.18297104972E+03 -0.12952120097E+03  0.14217073990E+04  0.14415250458E+04  0.80550498139E+02 0.  0.
          4    1    3    3  502    0  0.50968576747E+02 -0.13360759035E+03 -0.50716825206E+02  0.15172666336E+03  0.00000000000E+00 0. -1.
         -3    1    3    3    0  502  0.26342846450E+03 -0.36632209276E+03 -0.25300171654E+03  0.51729711011E+03  0.00000000000E+00 0.  1.
         11    1    5    5    0    0  0.11445187682E+02  0.60241462659E+02  0.60745774043E+02  0.86313818178E+02  0.00000000000E+00 0. -1.
        -11    1    5    5    0    0 -0.14287117921E+03  0.56920942143E+03  0.73564791832E+03  0.94105759602E+03  0.00000000000E+00 0.  1.
          2    1    6    6  503    0 -0.54315148834E+02  0.12749821688E+01  0.29062070630E+03  0.29565546824E+03  0.00000000000E+00 0. -1.
         -2    1    6    6    0  503 -0.12865590089E+03 -0.13079618314E+03  0.11310866927E+04  0.11458695776E+04  0.00000000000E+00 0.  1.
<mgrwt>
<rscale>  0 0.24862990E+04</rscale>
<asrwt>0</asrwt>
<pdfrwt beam="1">  1        2 0.38863867E+00 0.24862990E+04</pdfrwt>
<pdfrwt beam="2">  1       -1 0.94118285E-01 0.24862990E+04</pdfrwt>
<totfact> 0.37319992E+00</totfact>
</mgrwt>
</event>
<event>
12    6  0.1586493E-007  0.2173363E+04  0.7818608E-02  0.8529597E-01
         -1   -1    0    0    0  501 -0.00000000000E+00  0.00000000000E+00  0.77237831696E+03  0.77237831696E+03  0.00000000000E+00 0.  1.
          2   -1    0    0  501    0  0.00000000000E+00 -0.00000000000E+00 -0.15288844155E+04  0.15288844155E+04  0.00000000000E+00 0. -1.
         24    2    1    2    0    0 -0.85071058123E+03 -0.11446627500E+03 -0.56514650526E+03  0.10308373725E+04  0.80150452498E+02 0.  0.
        254    2    1    2    0    0  0.85071058123E+03  0.11446627500E+03 -0.19135959325E+03  0.12704253599E+04  0.91681572852E+03 0.  0.
         23    2    4    4    0    0  0.63683280909E+02  0.32919680737E+03 -0.27797059883E+03  0.44496422388E+03  0.91101089317E+02 0.  0.
         23    2    4    4    0    0  0.78702730032E+03 -0.21473053237E+03  0.86611005579E+02  0.82546113603E+03  0.91451888068E+02 0.  0.
          2    1    3    3  502    0 -0.77447835878E+03 -0.10323735224E+03 -0.48480172131E+03  0.91951475687E+03  0.00000000000E+00 0. -1.
         -1    1    3    3    0  502 -0.76232222452E+02 -0.11228922766E+02 -0.80344783952E+02  0.11132261565E+03  0.00000000000E+00 0.  1.
         11    1    5    5    0    0  0.18831364924E+02  0.14077622053E+03 -0.17572918727E+03  0.22594979936E+03  0.00000000000E+00 0.  1.
        -11    1    5    5    0    0  0.44851915984E+02  0.18842058684E+03 -0.10224141155E+03  0.21901442452E+03  0.00000000000E+00 0. -1.
          3    1    6    6  503    0  0.78619413935E+03 -0.21884785094E+03  0.88470897689E+02  0.82086704547E+03  0.00000000000E+00 0. -1.
         -3    1    6    6    0  503  0.83316097540E+00  0.41173185712E+01 -0.18598921104E+01  0.45940905618E+01  0.00000000000E+00 0.  1.
<mgrwt>
<rscale>  0 0.21733635E+04</rscale>
<asrwt>0</asrwt>
<pdfrwt beam="1">  1        2 0.23521299E+00 0.21733635E+04</pdfrwt>
<pdfrwt beam="2">  1       -1 0.11882743E+00 0.21733635E+04</pdfrwt>
<totfact> 0.80910056E+00</totfact>
</mgrwt>
</event>
<event>
12    6  0.1586493E-007  0.1339681E+04  0.7818608E-02  0.8998676E-01
         -1   -1    0    0    0  501 -0.00000000000E+00  0.00000000000E+00  0.18595287581E+03  0.18595287581E+03  0.00000000000E+00 0.  1.
          2   -1    0    0  501    0  0.00000000000E+00 -0.00000000000E+00 -0.24129049400E+04  0.24129049400E+04  0.00000000000E+00 0. -1.
         24    2    1    2    0    0  0.20991858427E+02  0.26398670827E+03 -0.10701374625E+04  0.11061046652E+04  0.90242459961E+02 0.  0.
        254    2    1    2    0    0 -0.20991858427E+02 -0.26398670827E+03 -0.11568146018E+04  0.14927531506E+04  0.90551770032E+03 0.  0.
         23    2    4    4    0    0 -0.43907779300E+03 -0.81250343211E+02 -0.73155979514E+03  0.86187486901E+03  0.90871499364E+02 0.  0.
         23    2    4    4    0    0  0.41808593457E+03 -0.18273636506E+03 -0.42525480663E+03  0.63087828162E+03  0.94748761776E+02 0.  0.
          4    1    3    3  502    0  0.31743266093E+02  0.26673343651E+03 -0.10229395932E+04  0.10576198620E+04  0.00000000000E+00 0. -1.
         -3    1    3    3    0  502 -0.10751407666E+02 -0.27467282403E+01 -0.47197869280E+02  0.48484803262E+02  0.00000000000E+00 0.  1.
         11    1    5    5    0    0 -0.33605287783E+03 -0.10063423103E+03 -0.55756808660E+03  0.65874194974E+03  0.00000000000E+00 0.  1.
        -11    1    5    5    0    0 -0.10302491517E+03  0.19383887816E+02 -0.17399170854E+03  0.20313291927E+03  0.00000000000E+00 0. -1.
          2    1    6    6  503    0  0.53496527190E+02 -0.52884481350E+02 -0.10124404448E+03  0.12613089761E+03  0.00000000000E+00 0. -1.
         -2    1    6    6    0  503  0.36458940738E+03 -0.12985188371E+03 -0.32401076215E+03  0.50474738401E+03  0.00000000000E+00 0.  1.
<mgrwt>
<rscale>  0 0.13396815E+04</rscale>
<asrwt>0</asrwt>
<pdfrwt beam="1">  1        2 0.37121613E+00 0.13396815E+04</pdfrwt>
<pdfrwt beam="2">  1       -1 0.28608136E-01 0.13396815E+04</pdfrwt>
<totfact> 0.48422768E+01</totfact>
</mgrwt>
</event>
<event>
12    6  0.1586493E-007  0.1532496E+04  0.7818608E-02  0.8863127E-01
         -1   -1    0    0    0  501 -0.00000000000E+00  0.00000000000E+00  0.59540544714E+03  0.59540544714E+03  0.00000000000E+00 0.  1.
          2   -1    0    0  501    0  0.00000000000E+00 -0.00000000000E+00 -0.98611066599E+03  0.98611066599E+03  0.00000000000E+00 0. -1.
         24    2    1    2    0    0  0.26826543599E+03 -0.17961213256E+03 -0.51653238087E+03  0.61428322788E+03  0.79443824533E+02 0.  0.
        254    2    1    2    0    0 -0.26826543599E+03  0.17961213256E+03  0.12582716202E+03  0.96723288525E+03  0.90303937749E+03 0.  0.
         23    2    4    4    0    0 -0.34934012207E+03  0.33966731298E+03 -0.23773687425E+03  0.54971552740E+03  0.90862177409E+02 0.  0.
         23    2    4    4    0    0  0.81074686081E+02 -0.16005518042E+03  0.36356403628E+03  0.41751735785E+03  0.99755551900E+02 0.  0.
          2    1    3    3  502    0  0.21509626186E+03 -0.11836589691E+03 -0.43360649748E+03  0.49828855302E+03  0.00000000000E+00 0. -1.
         -1    1    3    3    0  502  0.53169174129E+02 -0.61246235650E+02 -0.82925883394E+02  0.11599467486E+03  0.00000000000E+00 0.  1.
         11    1    5    5    0    0 -0.44823341542E+02  0.92598210053E+02 -0.38306629390E+02  0.10977685688E+03  0.00000000000E+00 0. -1.
        -11    1    5    5    0    0 -0.30451678053E+03  0.24706910293E+03 -0.19943024486E+03  0.43993867051E+03  0.00000000000E+00 0.  1.
          1    1    6    6  503    0  0.21832311783E+02 -0.80031494515E+02  0.73472670673E+02  0.11081481529E+03  0.00000000000E+00 0. -1.
         -1    1    6    6    0  503  0.59242374298E+02 -0.80023685904E+02  0.29009136560E+03  0.30670254256E+03  0.00000000000E+00 0.  1.
<mgrwt>
<rscale>  0 0.15324956E+04</rscale>
<asrwt>0</asrwt>
<pdfrwt beam="1">  1        2 0.15170933E+00 0.15324956E+04</pdfrwt>
<pdfrwt beam="2">  1       -1 0.91600838E-01 0.15324956E+04</pdfrwt>
<totfact> 0.32857423E+01</totfact>
</mgrwt>
</event>
<event>
12    6  0.1586493E-007  0.2525719E+04  0.7818608E-02  0.8393880E-01
         -1   -1    0    0    0  501 -0.00000000000E+00  0.00000000000E+00  0.45428953737E+03  0.45428953737E+03  0.00000000000E+00 0.  1.
          2   -1    0    0  501    0  0.00000000000E+00 -0.00000000000E+00 -0.35105686426E+04  0.35105686426E+04  0.00000000000E+00 0. -1.
         24    2    1    2    0    0 -0.21282638835E+03  0.39035468167E+03 -0.29160435699E+04  0.29508083845E+04  0.79297991816E+02 0.  0.
        254    2    1    2    0    0  0.21282638835E+03 -0.39035468167E+03 -0.14023553537E+03  0.10140497955E+04  0.90053269416E+03 0.  0.
         23    2    4    4    0    0  0.31873614544E+03  0.95750078670E+01 -0.39947943675E+03  0.51774773417E+03  0.82428664094E+02 0.  0.
         23    2    4    4    0    0 -0.10590975708E+03 -0.39992968954E+03  0.25924390138E+03  0.49630206132E+03  0.89149887532E+02 0.  0.
          2    1    3    3  502    0 -0.78692327976E+02  0.22259665310E+03 -0.16106034749E+04  0.16278161155E+04  0.00000000000E+00 0. -1.
         -1    1    3    3    0  502 -0.13413406038E+03  0.16775802857E+03 -0.13054400950E+04  0.13229922690E+04  0.00000000000E+00 0.  1.
         11    1    5    5    0    0  0.18592421788E+03  0.66568974238E+01 -0.16706131570E+03  0.25004322082E+03  0.00000000000E+00 0. -1.
        -11    1    5    5    0    0  0.13281192756E+03  0.29181104432E+01 -0.23241812105E+03  0.26770451334E+03  0.00000000000E+00 0.  1.
          2    1    6    6  503    0  0.64391640167E+01 -0.98363537154E+02  0.86015844516E+02  0.13082650260E+03  0.00000000000E+00 0. -1.
         -2    1    6    6    0  503 -0.11234892110E+03 -0.30156615238E+03  0.17322805687E+03  0.36547555872E+03  0.00000000000E+00 0.  1.
<mgrwt>
<rscale>  0 0.25257194E+04</rscale>
<asrwt>0</asrwt>
<pdfrwt beam="1">  1        2 0.54008751E+00 0.25257194E+04</pdfrwt>
<pdfrwt beam="2">  1       -1 0.69890694E-01 0.25257194E+04</pdfrwt>
<totfact> 0.16762273E+00</totfact>
</mgrwt>
</event>
<event>
12    6  0.1586493E-007  0.1714493E+04  0.7818608E-02  0.8753141E-01
          2   -1    0    0  501    0  0.00000000000E+00  0.00000000000E+00  0.12982124042E+04  0.12982124042E+04  0.00000000000E+00 0. -1.
         -1   -1    0    0    0  501 -0.00000000000E+00 -0.00000000000E+00 -0.56606445529E+03  0.56606445529E+03  0.00000000000E+00 0.  1.
         24    2    1    2    0    0  0.42197535922E+03  0.34660600064E+03 -0.41930203003E+02  0.55359475500E+03  0.80685112442E+02 0.  0.
        254    2    1    2    0    0 -0.42197535922E+03 -0.34660600064E+03  0.77407815195E+03  0.13106821045E+04  0.90580995266E+03 0.  0.
         23    2    4    4    0    0  0.17385012526E+03 -0.17728563301E+03 -0.57852284576E+02  0.26925954111E+03  0.86601108095E+02 0.  0.
         23    2    4    4    0    0 -0.59582548447E+03 -0.16932036764E+03  0.83193043653E+03  0.10414225634E+04  0.93676622147E+02 0.  0.
          4    1    3    3  502    0  0.75537153602E+00  0.17354867647E+02 -0.12592398078E+01  0.17416879804E+02  0.00000000000E+00 0. -1.
         -3    1    3    3    0  502  0.42121998768E+03  0.32925113300E+03 -0.40670963195E+02  0.53617787519E+03  0.00000000000E+00 0.  1.
         11    1    5    5    0    0  0.15270309505E+03 -0.99283144699E+02 -0.41248339920E+02  0.18675332287E+03  0.00000000000E+00 0.  1.
        -11    1    5    5    0    0  0.21147030212E+02 -0.78002488307E+02 -0.16603944655E+02  0.82506218233E+02  0.00000000000E+00 0. -1.
          1    1    6    6  503    0 -0.50577447180E+02 -0.66649968243E+00  0.11052921818E+03  0.12155340578E+03  0.00000000000E+00 0. -1.
         -1    1    6    6    0  503 -0.54524803729E+03 -0.16865386795E+03  0.72140121835E+03  0.91986915765E+03  0.00000000000E+00 0.  1.
<mgrwt>
<rscale>  0 0.17144934E+04</rscale>
<asrwt>0</asrwt>
<pdfrwt beam="1">  1        2 0.19972498E+00 0.17144934E+04</pdfrwt>
<pdfrwt beam="2">  1       -1 0.87086840E-01 0.17144934E+04</pdfrwt>
<totfact> 0.23318373E+01</totfact>
</mgrwt>
</event>
<event>
12    6  0.1586493E-007  0.1277979E+04  0.7818608E-02  0.9047212E-01
          2   -1    0    0  501    0  0.00000000000E+00  0.00000000000E+00  0.18847289855E+04  0.18847289855E+04  0.00000000000E+00 0. -1.
         -1   -1    0    0    0  501 -0.00000000000E+00 -0.00000000000E+00 -0.21664009519E+03  0.21664009519E+03  0.00000000000E+00 0.  1.
         24    2    1    2    0    0  0.13288734005E+03 -0.24059620490E+02 -0.50331011079E+02  0.16479297478E+03  0.79909970453E+02 0.  0.
        254    2    1    2    0    0 -0.13288734005E+03  0.24059620490E+02  0.17184199014E+04  0.19365761060E+04  0.88267895978E+03 0.  0.
         23    2    4    4    0    0 -0.34019875792E+03 -0.32328921265E+03  0.89274052162E+03  0.10126161571E+04  0.90303558859E+02 0.  0.
         23    2    4    4    0    0  0.20731141788E+03  0.34734883314E+03  0.82567937982E+03  0.92395994887E+03  0.91248632861E+02 0.  0.
          2    1    3    3  502    0  0.32258479939E+02 -0.29733418494E+02  0.13002223177E+02  0.45757442137E+02  0.00000000000E+00 0. -1.
         -1    1    3    3    0  502  0.10062886011E+03  0.56737980044E+01 -0.63333234256E+02  0.11903553264E+03  0.00000000000E+00 0.  1.
         11    1    5    5    0    0 -0.17699547172E+03 -0.13937396726E+03  0.34269174016E+03  0.41010989811E+03  0.00000000000E+00 0. -1.
        -11    1    5    5    0    0 -0.16320328621E+03 -0.18391524540E+03  0.55004878145E+03  0.60250625897E+03  0.00000000000E+00 0.  1.
          3    1    6    6  503    0  0.49583787063E+02  0.16670874949E+03  0.37807209137E+03  0.41615966331E+03  0.00000000000E+00 0. -1.
         -3    1    6    6    0  503  0.15772763081E+03  0.18064008365E+03  0.44760728845E+03  0.50780028556E+03  0.00000000000E+00 0.  1.
<mgrwt>
<rscale>  0 0.12779794E+04</rscale>
<asrwt>0</asrwt>
<pdfrwt beam="1">  1        2 0.28995829E+00 0.12779794E+04</pdfrwt>
<pdfrwt beam="2">  1       -1 0.33329247E-01 0.12779794E+04</pdfrwt>
<totfact> 0.73368562E+01</totfact>
</mgrwt>
</event>
<event>
12    6  0.1586493E-007  0.1620255E+04  0.7818608E-02  0.8808201E-01
          2   -1    0    0  501    0  0.00000000000E+00  0.00000000000E+00  0.24602784869E+04  0.24602784869E+04  0.00000000000E+00 0. -1.
         -1   -1    0    0    0  501 -0.00000000000E+00 -0.00000000000E+00 -0.26676096174E+03  0.26676096174E+03  0.00000000000E+00 0.  1.
         24    2    1    2    0    0 -0.33031083174E+00 -0.15945518864E+03 -0.13673456100E+03  0.22394439842E+03  0.77644620694E+02 0.  0.
        254    2    1    2    0    0  0.33031083174E+00  0.15945518864E+03  0.23302520862E+04  0.25030950502E+04  0.89999109945E+03 0.  0.
         23    2    4    4    0    0  0.37216499405E+03 -0.49141974545E+01  0.52398062046E+03  0.64936554391E+03  0.92676787105E+02 0.  0.
         23    2    4    4    0    0 -0.37183468322E+03  0.16436938610E+03  0.18062714657E+04  0.18537295063E+04  0.91750466072E+02 0.  0.
          2    1    3    3  502    0  0.28934743066E+02 -0.25517636153E+02 -0.17971912298E+02  0.42560060418E+02  0.00000000000E+00 0. -1.
         -1    1    3    3    0  502 -0.29265053898E+02 -0.13393755249E+03 -0.11876264871E+03  0.18138433801E+03  0.00000000000E+00 0.  1.
         11    1    5    5    0    0  0.15973296294E+03  0.23431605090E+02  0.16206740079E+03  0.22875642497E+03  0.00000000000E+00 0. -1.
        -11    1    5    5    0    0  0.21243203111E+03 -0.28345802544E+02  0.36191321967E+03  0.42060911894E+03  0.00000000000E+00 0.  1.
          1    1    6    6  503    0 -0.33286586813E+03  0.13737295090E+03  0.16941564393E+04  0.17320037687E+04  0.00000000000E+00 0. -1.
         -1    1    6    6    0  503 -0.38968815087E+02  0.26996435199E+02  0.11211502638E+03  0.12172573763E+03  0.00000000000E+00 0.  1.
<mgrwt>
<rscale>  0 0.16202546E+04</rscale>
<asrwt>0</asrwt>
<pdfrwt beam="1">  1        2 0.37850437E+00 0.16202546E+04</pdfrwt>
<pdfrwt beam="2">  1       -1 0.41040150E-01 0.16202546E+04</pdfrwt>
<totfact> 0.23294753E+01</totfact>
</mgrwt>
</event>
<event>
12    6  0.1586493E-007  0.1126107E+04  0.7818608E-02  0.9180113E-01
         -1   -1    0    0    0  501 -0.00000000000E+00  0.00000000000E+00  0.19651846118E+03  0.19651846118E+03  0.00000000000E+00 0.  1.
          2   -1    0    0  501    0  0.00000000000E+00 -0.00000000000E+00 -0.16132288032E+04  0.16132288032E+04  0.00000000000E+00 0. -1.
         24    2    1    2    0    0  0.99856658865E+02 -0.22258787291E+02 -0.86625340516E+01  0.13359643899E+03  0.85476096565E+02 0.  0.
        254    2    1    2    0    0 -0.99856658865E+02  0.22258787291E+02 -0.14080478080E+04  0.16761508254E+04  0.90355749900E+03 0.  0.
         23    2    4    4    0    0  0.16006480306E+03 -0.14825003930E+03 -0.13194152018E+04  0.13404924299E+04  0.92003612432E+02 0.  0.
         23    2    4    4    0    0 -0.25992146192E+03  0.17050882659E+03 -0.88632606179E+02  0.33565839545E+03  0.90434469321E+02 0.  0.
          2    1    3    3  502    0  0.27511002303E+02  0.30362556233E+02 -0.15662553145E+02  0.43864058633E+02  0.00000000000E+00 0. -1.
         -1    1    3    3    0  502  0.72345656562E+02 -0.52621343524E+02  0.70000190935E+01  0.89732380360E+02  0.00000000000E+00 0.  1.
         11    1    5    5    0    0  0.20156775246E+02 -0.76828591517E+02 -0.41364835006E+03  0.42120527724E+03  0.00000000000E+00 0.  1.
        -11    1    5    5    0    0  0.13990802781E+03 -0.71421447783E+02 -0.90576685173E+03  0.91928715271E+03  0.00000000000E+00 0. -1.
          4    1    6    6  503    0 -0.44595022537E+02  0.74231157138E+02 -0.10744432014E+02  0.87260664359E+02  0.00000000000E+00 0.  1.
         -4    1    6    6    0  503 -0.21532643939E+03  0.96277669453E+02 -0.77888174165E+02  0.24839773109E+03  0.00000000000E+00 0. -1.
<mgrwt>
<rscale>  0 0.11261070E+04</rscale>
<asrwt>0</asrwt>
<pdfrwt beam="1">  1        2 0.24818905E+00 0.11261070E+04</pdfrwt>
<pdfrwt beam="2">  1       -1 0.30233609E-01 0.11261070E+04</pdfrwt>
<totfact> 0.12458826E+02</totfact>
</mgrwt>
</event>
<event>
12    6  0.1586493E-007  0.1651922E+04  0.7818608E-02  0.8789270E-01
         -3   -1    0    0    0  501 -0.00000000000E+00  0.00000000000E+00  0.15794365463E+04  0.15794365463E+04  0.00000000000E+00 0.  1.
          4   -1    0    0  501    0  0.00000000000E+00 -0.00000000000E+00 -0.43193332060E+03  0.43193332060E+03  0.00000000000E+00 0. -1.
         24    2    1    2    0    0 -0.81541019180E+02  0.24686079568E+02  0.11035869156E+04  0.11097902734E+04  0.80448929342E+02 0.  0.
        254    2    1    2    0    0  0.81541019180E+02 -0.24686079568E+02  0.43916310074E+02  0.90157959351E+03  0.89647017842E+03 0.  0.
         23    2    4    4    0    0 -0.34740657120E+03  0.59494721583E+02  0.21569322598E+03  0.42308184102E+03  0.90794982544E+02 0.  0.
         23    2    4    4    0    0  0.42894759038E+03 -0.84180801151E+02 -0.17177691591E+03  0.47849775249E+03  0.91489604448E+02 0.  0.
          2    1    3    3  502    0 -0.73307500172E+02  0.48096596875E+02  0.70490809288E+03  0.71033984235E+03  0.00000000000E+00 0. -1.
         -1    1    3    3    0  502 -0.82335190084E+01 -0.23410517307E+02  0.39867882272E+03  0.39945043102E+03  0.00000000000E+00 0.  1.
         11    1    5    5    0    0 -0.18723869600E+03  0.75909070161E+02  0.10501417485E+03  0.22770264191E+03  0.00000000000E+00 0. -1.
        -11    1    5    5    0    0 -0.16016787520E+03 -0.16414348578E+02  0.11067905113E+03  0.19537919911E+03  0.00000000000E+00 0.  1.
          3    1    6    6  503    0  0.40121865331E+03 -0.97001449876E+02 -0.17381399303E+03  0.44788055687E+03  0.00000000000E+00 0. -1.
         -3    1    6    6    0  503  0.27728937067E+02  0.12820648725E+02  0.20370771241E+01  0.30617195623E+02  0.00000000000E+00 0.  1.
<mgrwt>
<rscale>  0 0.16519216E+04</rscale>
<asrwt>0</asrwt>
<pdfrwt beam="1">  1        4 0.66451281E-01 0.16519216E+04</pdfrwt>
<pdfrwt beam="2">  1       -3 0.24299023E+00 0.16519216E+04</pdfrwt>
<totfact> 0.36944583E-01</totfact>
</mgrwt>
</event>
<event>
12    6  0.1586493E-007  0.2172635E+04  0.7818608E-02  0.8529905E-01
          2   -1    0    0  501    0  0.00000000000E+00  0.00000000000E+00  0.11944356338E+04  0.11944356338E+04  0.00000000000E+00 0. -1.
         -1   -1    0    0    0  501 -0.00000000000E+00 -0.00000000000E+00 -0.98798636929E+03  0.98798636929E+03  0.00000000000E+00 0.  1.
         24    2    1    2    0    0  0.40011801572E+03  0.45322299464E+02 -0.72248396965E+03  0.83106882401E+03  0.80893550460E+02 0.  0.
        254    2    1    2    0    0 -0.40011801572E+03 -0.45322299464E+02  0.92893323419E+03  0.13513531791E+04  0.89503626954E+03 0.  0.
         23    2    4    4    0    0 -0.15042892692E+03  0.66517653513E+02 -0.14644651701E+03  0.23804217451E+03  0.90355045331E+02 0.  0.
         23    2    4    4    0    0 -0.24968908879E+03 -0.11183995298E+03  0.10753797512E+04  0.11133110046E+04  0.90371276141E+02 0.  0.
          4    1    3    3  502    0  0.12205131819E+03 -0.22268864766E+02 -0.23752147755E+03  0.26797178753E+03  0.00000000000E+00 0. -1.
         -3    1    3    3    0  502  0.27806669752E+03  0.67591164230E+02 -0.48496249210E+03  0.56309703648E+03  0.00000000000E+00 0.  1.
         11    1    5    5    0    0 -0.11929608536E+03  0.88824023936E+02 -0.12405764254E+03  0.19367901767E+03  0.00000000000E+00 0. -1.
        -11    1    5    5    0    0 -0.31132841562E+02 -0.22306370423E+02 -0.22388874462E+02  0.44363156841E+02  0.00000000000E+00 0.  1.
          3    1    6    6  503    0 -0.16668124764E+03 -0.11876883200E+03  0.74682417994E+03  0.77436104597E+03  0.00000000000E+00 0. -1.
         -3    1    6    6    0  503 -0.83007841155E+02  0.69288790257E+01  0.32855557125E+03  0.33894995863E+03  0.00000000000E+00 0.  1.
<mgrwt>
<rscale>  0 0.21726354E+04</rscale>
<asrwt>0</asrwt>
<pdfrwt beam="1">  1        2 0.18375933E+00 0.21726354E+04</pdfrwt>
<pdfrwt beam="2">  1       -1 0.15199790E+00 0.21726354E+04</pdfrwt>
<totfact> 0.67104909E+00</totfact>
</mgrwt>
</event>
<event>
12    6  0.1586493E-007  0.1911878E+04  0.7818608E-02  0.8648967E-01
         -1   -1    0    0    0  501 -0.00000000000E+00  0.00000000000E+00  0.75826898706E+03  0.75826898706E+03  0.00000000000E+00 0.  1.
          2   -1    0    0  501    0  0.00000000000E+00 -0.00000000000E+00 -0.12051382560E+04  0.12051382560E+04  0.00000000000E+00 0. -1.
         24    2    1    2    0    0 -0.37575846484E+02 -0.65789811107E+03  0.21310907105E+03  0.69753948438E+03  0.83090235970E+02 0.  0.
        254    2    1    2    0    0  0.37575846484E+02  0.65789811107E+03 -0.65997834000E+03  0.12658677587E+04  0.85592517456E+03 0.  0.
         23    2    4    4    0    0 -0.19224482046E+02  0.59648476315E+03 -0.91673066124E+01  0.60383435133E+03  0.91478035338E+02 0.  0.
         23    2    4    4    0    0  0.56800328530E+02  0.61413347917E+02 -0.65081103339E+03  0.66203340736E+03  0.87950865050E+02 0.  0.
          4    1    3    3  502    0 -0.13882500126E+02 -0.12891859257E+03  0.77047985359E+02  0.15082811200E+03  0.00000000000E+00 0. -1.
         -3    1    3    3    0  502 -0.23693346357E+02 -0.52897951850E+03  0.13606108570E+03  0.54671137238E+03  0.00000000000E+00 0.  1.
         11    1    5    5    0    0  0.92186502618E+01  0.23644827315E+03  0.37823961264E+02  0.23963184562E+03  0.00000000000E+00 0. -1.
        -11    1    5    5    0    0 -0.28443132308E+02  0.36003649001E+03 -0.46991267876E+02  0.36420250571E+03  0.00000000000E+00 0.  1.
          4    1    6    6  503    0  0.40459790565E+02  0.59815771534E+02 -0.63547998746E+03  0.63956996149E+03  0.00000000000E+00 0. -1.
         -4    1    6    6    0  503  0.16340537964E+02  0.15975763821E+01 -0.15331045922E+02  0.22463445870E+02  0.00000000000E+00 0.  1.
<mgrwt>
<rscale>  0 0.19118776E+04</rscale>
<asrwt>0</asrwt>
<pdfrwt beam="1">  1        2 0.18540589E+00 0.19118776E+04</pdfrwt>
<pdfrwt beam="2">  1       -1 0.11665677E+00 0.19118776E+04</pdfrwt>
<totfact> 0.13307222E+01</totfact>
</mgrwt>
</event>
<event>
12    6  0.1586493E-007  0.1874212E+04  0.7818608E-02  0.8667800E-01
         -1   -1    0    0    0  501 -0.00000000000E+00  0.00000000000E+00  0.44308466109E+03  0.44308466109E+03  0.00000000000E+00 0.  1.
          2   -1    0    0  501    0  0.00000000000E+00 -0.00000000000E+00 -0.19819412126E+04  0.19819412126E+04  0.00000000000E+00 0. -1.
         24    2    1    2    0    0  0.47006610407E+03 -0.55954423073E+03 -0.62848452100E+03  0.96718324298E+03  0.79992149795E+02 0.  0.
        254    2    1    2    0    0 -0.47006610407E+03  0.55954423073E+03 -0.91037203053E+03  0.14578426307E+04  0.87319872517E+03 0.  0.
         23    2    4    4    0    0 -0.68136162884E+03  0.38131408488E+03 -0.42919064487E+03  0.89576348656E+03  0.92377018966E+02 0.  0.
         23    2    4    4    0    0  0.21129552476E+03  0.17823014585E+03 -0.48118138566E+03  0.56207914416E+03  0.89362490563E+02 0.  0.
          4    1    3    3  502    0  0.58393736944E+02 -0.48238578182E+02 -0.40370166482E+02  0.85828545841E+02  0.00000000000E+00 0. -1.
         -3    1    3    3    0  502  0.41167236713E+03 -0.51130565254E+03 -0.58811435452E+03  0.88135469714E+03  0.00000000000E+00 0.  1.
         11    1    5    5    0    0 -0.42600490184E+03  0.25546755249E+03 -0.22436975587E+03  0.54505562479E+03  0.00000000000E+00 0.  1.
        -11    1    5    5    0    0 -0.25535672700E+03  0.12584653239E+03 -0.20482088900E+03  0.35070786178E+03  0.00000000000E+00 0. -1.
          3    1    6    6  503    0  0.19558145486E+03  0.18730503810E+03 -0.43434605281E+03  0.51185132253E+03  0.00000000000E+00 0. -1.
         -3    1    6    6    0  503  0.15714069900E+02 -0.90748922577E+01 -0.46835332850E+02  0.50227821628E+02  0.00000000000E+00 0.  1.
<mgrwt>
<rscale>  0 0.18742121E+04</rscale>
<asrwt>0</asrwt>
<pdfrwt beam="1">  1        2 0.30491403E+00 0.18742121E+04</pdfrwt>
<pdfrwt beam="2">  1       -1 0.68166872E-01 0.18742121E+04</pdfrwt>
<totfact> 0.15919521E+01</totfact>
</mgrwt>
</event>
<event>
12    6  0.1586493E-007  0.1051132E+04  0.7818608E-02  0.9254176E-01
         -1   -1    0    0    0  501 -0.00000000000E+00  0.00000000000E+00  0.67625970526E+03  0.67625970526E+03  0.00000000000E+00 0.  1.
          2   -1    0    0  501    0  0.00000000000E+00 -0.00000000000E+00 -0.40845227006E+03  0.40845227006E+03  0.00000000000E+00 0. -1.
         24    2    1    2    0    0 -0.69315840701E+02 -0.41627852494E+02 -0.54025814009E+02  0.12836959251E+03  0.83799760293E+02 0.  0.
        254    2    1    2    0    0  0.69315840701E+02  0.41627852494E+02  0.32183324921E+03  0.95634238281E+03  0.89692616697E+03 0.  0.
         23    2    4    4    0    0 -0.36932767072E+03  0.17410799827E+03  0.69646503788E+02  0.42499021344E+03  0.95128978789E+02 0.  0.
         23    2    4    4    0    0  0.43864351142E+03 -0.13248014577E+03  0.25218674542E+03  0.53135216938E+03  0.93690203316E+02 0.  0.
          4    1    3    3  502    0 -0.54378173411E+02 -0.24879401755E+02 -0.76171633459E+02  0.96840529320E+02  0.00000000000E+00 0. -1.
         -3    1    3    3    0  502 -0.14937667289E+02 -0.16748450740E+02  0.22145819450E+02  0.31529063185E+02  0.00000000000E+00 0.  1.
         11    1    5    5    0    0 -0.11137049513E+02 -0.11313999863E+02  0.16638580044E+01  0.15962734359E+02  0.00000000000E+00 0. -1.
        -11    1    5    5    0    0 -0.35819062121E+03  0.18542199813E+03  0.67982645783E+02  0.40902747908E+03  0.00000000000E+00 0.  1.
          3    1    6    6  503    0  0.27016877402E+03 -0.11323121923E+03  0.19703786120E+03  0.35303879986E+03  0.00000000000E+00 0. -1.
         -3    1    6    6    0  503  0.16847473740E+03 -0.19248926541E+02  0.55148884228E+02  0.17831336951E+03  0.00000000000E+00 0.  1.
<mgrwt>
<rscale>  0 0.10511324E+04</rscale>
<asrwt>0</asrwt>
<pdfrwt beam="1">  1        2 0.62838811E-01 0.10511324E+04</pdfrwt>
<pdfrwt beam="2">  1       -1 0.10403995E+00 0.10511324E+04</pdfrwt>
<totfact> 0.77016802E+01</totfact>
</mgrwt>
</event>
<event>
12    6  0.1586493E-007  0.1905407E+04  0.7818608E-02  0.8652170E-01
          2   -1    0    0  501    0  0.00000000000E+00  0.00000000000E+00  0.34443665560E+04  0.34443665560E+04  0.00000000000E+00 0. -1.
         -1   -1    0    0    0  501 -0.00000000000E+00 -0.00000000000E+00 -0.26351550940E+03  0.26351550940E+03  0.00000000000E+00 0.  1.
         24    2    1    2    0    0 -0.38801932337E+03 -0.10255452134E+03  0.34020342590E+02  0.41012574222E+03  0.77261345875E+02 0.  0.
        254    2    1    2    0    0  0.38801932337E+03  0.10255452134E+03  0.31468307040E+04  0.32977563231E+04  0.90087560864E+03 0.  0.
         23    2    4    4    0    0 -0.24707994297E+03 -0.95898177666E+01  0.43306925822E+03  0.50700136452E+03  0.91438166997E+02 0.  0.
         23    2    4    4    0    0  0.63509926634E+03  0.11214433910E+03  0.27137614457E+04  0.27907549586E+04  0.88795403991E+02 0.  0.
          4    1    3    3  502    0 -0.23053998732E+03 -0.80729525435E+02 -0.12164286243E+02  0.24456882853E+03  0.00000000000E+00 0. -1.
         -3    1    3    3    0  502 -0.15747933605E+03 -0.21824995902E+02  0.46184628833E+02  0.16555691369E+03  0.00000000000E+00 0.  1.
         11    1    5    5    0    0 -0.56461092534E+02 -0.36768094207E+02  0.77889927441E+02  0.10298829311E+03  0.00000000000E+00 0. -1.
        -11    1    5    5    0    0 -0.19061885044E+03  0.27178276440E+02  0.35517933078E+03  0.40401307140E+03  0.00000000000E+00 0.  1.
          3    1    6    6  503    0  0.66575238878E+02 -0.69699867887E+01  0.37581647955E+03  0.38173141009E+03  0.00000000000E+00 0. -1.
         -3    1    6    6    0  503  0.56852402746E+03  0.11911432589E+03  0.23379449662E+04  0.24090235485E+04  0.00000000000E+00 0.  1.
<mgrwt>
<rscale>  0 0.19054071E+04</rscale>
<asrwt>0</asrwt>
<pdfrwt beam="1">  1        2 0.52990251E+00 0.19054071E+04</pdfrwt>
<pdfrwt beam="2">  1       -1 0.40540850E-01 0.19054071E+04</pdfrwt>
<totfact> 0.56637116E+00</totfact>
</mgrwt>
</event>
<event>
12    6  0.1586493E-007  0.1820783E+04  0.7818608E-02  0.8695325E-01
          4   -1    0    0  501    0  0.00000000000E+00  0.00000000000E+00  0.80837612815E+03  0.80837612815E+03  0.00000000000E+00 0. -1.
         -3   -1    0    0    0  501 -0.00000000000E+00 -0.00000000000E+00 -0.10252812073E+04  0.10252812073E+04  0.00000000000E+00 0.  1.
         24    2    1    2    0    0  0.34522593469E+03 -0.44707459917E+03  0.30149016949E+03  0.64563576341E+03  0.83021524227E+02 0.  0.
        254    2    1    2    0    0 -0.34522593469E+03  0.44707459917E+03 -0.51839524862E+03  0.11880215720E+04  0.90752684731E+03 0.  0.
         23    2    4    4    0    0 -0.19371297702E+03  0.71519325787E+03 -0.34771338012E+03  0.82353477096E+03  0.90987970085E+02 0.  0.
         23    2    4    4    0    0 -0.15151295767E+03 -0.26811865870E+03 -0.17068186850E+03  0.36448680106E+03  0.94204757993E+02 0.  0.
          2    1    3    3  502    0  0.34198768445E+03 -0.43885843693E+03  0.30677401665E+03  0.63534447450E+03  0.00000000000E+00 0. -1.
         -1    1    3    3    0  502  0.32382502383E+01 -0.82161622409E+01 -0.52838471633E+01  0.10291288910E+02  0.00000000000E+00 0.  1.
         11    1    5    5    0    0  0.67489281629E+00  0.90221671881E+02 -0.61469499170E+02  0.10917373716E+03  0.00000000000E+00 0. -1.
        -11    1    5    5    0    0 -0.19438786983E+03  0.62497158599E+03 -0.28624388095E+03  0.71436103380E+03  0.00000000000E+00 0.  1.
          4    1    6    6  503    0 -0.43367968451E+02 -0.17347840929E+02 -0.10479591255E+02  0.47870137929E+02  0.00000000000E+00 0. -1.
         -4    1    6    6    0  503 -0.10814498922E+03 -0.25077081777E+03 -0.16020227724E+03  0.31661666313E+03  0.00000000000E+00 0.  1.
<mgrwt>
<rscale>  0 0.18207832E+04</rscale>
<asrwt>0</asrwt>
<pdfrwt beam="1">  1        4 0.12436556E+00 0.18207832E+04</pdfrwt>
<pdfrwt beam="2">  1       -3 0.15773557E+00 0.18207832E+04</pdfrwt>
<totfact> 0.29499570E-01</totfact>
</mgrwt>
</event>
<event>
12    6  0.1586493E-007  0.2680715E+04  0.7818608E-02  0.8341289E-01
         -1   -1    0    0    0  501 -0.00000000000E+00  0.00000000000E+00  0.66156606492E+03  0.66156606492E+03  0.00000000000E+00 0.  1.
          2   -1    0    0  501    0  0.00000000000E+00 -0.00000000000E+00 -0.27156145063E+04  0.27156145063E+04  0.00000000000E+00 0. -1.
         24    2    1    2    0    0  0.40311752958E+03  0.52610754061E+03 -0.21668451261E+04  0.22672769556E+04  0.77679506827E+02 0.  0.
        254    2    1    2    0    0 -0.40311752958E+03 -0.52610754061E+03  0.11279668479E+03  0.11099036156E+04  0.88310251776E+03 0.  0.
         23    2    4    4    0    0 -0.31432340715E+03  0.12690920402E+03 -0.16640287656E+03  0.38843301794E+03  0.91022754026E+02 0.  0.
         23    2    4    4    0    0 -0.88794122436E+02 -0.65301674463E+03  0.27919956134E+03  0.72147059765E+03  0.90841418305E+02 0.  0.
          2    1    3    3  502    0  0.25021881886E+03  0.33506086186E+03 -0.14894034068E+04  0.15469963628E+04  0.00000000000E+00 0. -1.
         -1    1    3    3    0  502  0.15289871072E+03  0.19104667875E+03 -0.67744171934E+03  0.72028059275E+03  0.00000000000E+00 0.  1.
         11    1    5    5    0    0 -0.10276455730E+02  0.15911577807E+02  0.82315667150E+01  0.20652906364E+02  0.00000000000E+00 0. -1.
        -11    1    5    5    0    0 -0.30404695142E+03  0.11099762622E+03 -0.17463444327E+03  0.36778011157E+03  0.00000000000E+00 0.  1.
          1    1    6    6  503    0 -0.30480272718E+02 -0.52283426840E+02  0.38260305738E+02  0.71599264956E+02  0.00000000000E+00 0. -1.
         -1    1    6    6    0  503 -0.58313849718E+02 -0.60073331779E+03  0.24093925561E+03  0.64987133270E+03  0.00000000000E+00 0.  1.
<mgrwt>
<rscale>  0 0.26807151E+04</rscale>
<asrwt>0</asrwt>
<pdfrwt beam="1">  1        2 0.41778686E+00 0.26807151E+04</pdfrwt>
<pdfrwt beam="2">  1       -1 0.10177939E+00 0.26807151E+04</pdfrwt>
<totfact> 0.23755706E+00</totfact>
</mgrwt>
</event>
<event>
12    6  0.1586493E-007  0.2899768E+04  0.7818608E-02  0.8272947E-01
         -1   -1    0    0    0  501 -0.00000000000E+00  0.00000000000E+00  0.11683229240E+04  0.11683229240E+04  0.00000000000E+00 0.  1.
          2   -1    0    0  501    0  0.00000000000E+00 -0.00000000000E+00 -0.17992996234E+04  0.17992996234E+04  0.00000000000E+00 0. -1.
         24    2    1    2    0    0  0.90629365063E+03  0.12590077872E+03  0.66926633855E+03  0.11366556368E+04  0.82761207147E+02 0.  0.
        254    2    1    2    0    0 -0.90629365063E+03 -0.12590077872E+03 -0.13002430379E+04  0.18309669107E+04  0.90806865547E+03 0.  0.
         23    2    4    4    0    0  0.41676805000E+01  0.74935517357E+02  0.95584649841E+02  0.14994099491E+03  0.87824685287E+02 0.  0.
         23    2    4    4    0    0 -0.91046133113E+03 -0.20083629608E+03 -0.13958276878E+04  0.16810259158E+04  0.90764212374E+02 0.  0.
          4    1    3    3  502    0  0.48339946957E+03  0.48996932589E+02  0.30897721782E+03  0.57579741899E+03  0.00000000000E+00 0. -1.
         -3    1    3    3    0  502  0.42289418106E+03  0.76903846131E+02  0.36028912073E+03  0.56085821777E+03  0.00000000000E+00 0.  1.
         11    1    5    5    0    0  0.12220479498E+02  0.78118371212E+02  0.10858405397E+03  0.13432169153E+03  0.00000000000E+00 0.  1.
        -11    1    5    5    0    0 -0.80527989976E+01 -0.31828538550E+01 -0.12999404124E+02  0.15619303376E+02  0.00000000000E+00 0. -1.
          4    1    6    6  503    0 -0.49281248490E+03 -0.69739050068E+02 -0.69847768106E+03  0.85767053774E+03  0.00000000000E+00 0. -1.
         -4    1    6    6    0  503 -0.41764884624E+03 -0.13109724601E+03 -0.69735000669E+03  0.82335537802E+03  0.00000000000E+00 0.  1.
<mgrwt>
<rscale>  0 0.28997676E+04</rscale>
<asrwt>0</asrwt>
<pdfrwt beam="1">  1        2 0.27681532E+00 0.28997676E+04</pdfrwt>
<pdfrwt beam="2">  1       -1 0.17974199E+00 0.28997676E+04</pdfrwt>
<totfact> 0.17729959E+00</totfact>
</mgrwt>
</event>
<event>
12    6  0.1586493E-007  0.1685596E+04  0.7818608E-02  0.8769622E-01
          2   -1    0    0  501    0  0.00000000000E+00  0.00000000000E+00  0.10810392905E+04  0.10810392905E+04  0.00000000000E+00 0. -1.
         -1   -1    0    0    0  501 -0.00000000000E+00 -0.00000000000E+00 -0.65706057696E+03  0.65706057696E+03  0.00000000000E+00 0.  1.
         24    2    1    2    0    0  0.30564664728E+03  0.14867921482E+03 -0.35213007995E+03  0.49671921201E+03  0.84905832870E+02 0.  0.
        254    2    1    2    0    0 -0.30564664728E+03 -0.14867921482E+03  0.77610879345E+03  0.12413806554E+04  0.90727927918E+03 0.  0.
         23    2    4    4    0    0 -0.36661041151E+02 -0.38013751625E+03  0.78148742971E+03  0.87466311204E+03  0.92002138994E+02 0.  0.
         23    2    4    4    0    0 -0.26898560613E+03  0.23145830143E+03 -0.53786362619E+01  0.36671754336E+03  0.92339727480E+02 0.  0.
          4    1    3    3  502    0  0.14372356079E+03  0.10542684723E+03 -0.14173186100E+03  0.22772615674E+03  0.00000000000E+00 0. -1.
         -3    1    3    3    0  502  0.16192308650E+03  0.43252367591E+02 -0.21039821896E+03  0.26899305527E+03  0.00000000000E+00 0.  1.
         11    1    5    5    0    0 -0.91682680339E+01 -0.27560329066E+02  0.13177767456E+03  0.13494066989E+03  0.00000000000E+00 0.  1.
        -11    1    5    5    0    0 -0.27492773117E+02 -0.35257718718E+03  0.64970975515E+03  0.73972244215E+03  0.00000000000E+00 0. -1.
          3    1    6    6  503    0 -0.14253266790E+03  0.18001893740E+03 -0.13076975845E+02  0.22998562246E+03  0.00000000000E+00 0. -1.
         -3    1    6    6    0  503 -0.12645293824E+03  0.51439364028E+02  0.76983395827E+01  0.13673192090E+03  0.00000000000E+00 0.  1.
<mgrwt>
<rscale>  0 0.16855958E+04</rscale>
<asrwt>0</asrwt>
<pdfrwt beam="1">  1        2 0.16631374E+00 0.16855958E+04</pdfrwt>
<pdfrwt beam="2">  1       -1 0.10108624E+00 0.16855958E+04</pdfrwt>
<totfact> 0.22617488E+01</totfact>
</mgrwt>
</event>
<event>
12    6  0.1586493E-007  0.1232947E+04  0.7818608E-02  0.9084497E-01
         -1   -1    0    0    0  501 -0.00000000000E+00  0.00000000000E+00  0.38625141151E+03  0.38625141151E+03  0.00000000000E+00 0.  1.
          2   -1    0    0  501    0  0.00000000000E+00 -0.00000000000E+00 -0.98391709482E+03  0.98391709482E+03  0.00000000000E+00 0. -1.
         24    2    1    2    0    0  0.22377457795E+03  0.15802581202E+03 -0.18139708032E+03  0.34087622006E+03  0.90799106006E+02 0.  0.
        254    2    1    2    0    0 -0.22377457795E+03 -0.15802581202E+03 -0.41626860300E+03  0.10292922863E+04  0.90061969874E+03 0.  0.
         23    2    4    4    0    0 -0.36394644144E+03  0.17665987734E+03 -0.49615435907E+03  0.64692433614E+03  0.93146251482E+02 0.  0.
         23    2    4    4    0    0  0.14017186349E+03 -0.33468568936E+03  0.79885756076E+02  0.38236795014E+03  0.90337441253E+02 0.  0.
          4    1    3    3  502    0  0.11525398867E+03  0.78761599612E+02 -0.14580658741E+03  0.20185745567E+03  0.00000000000E+00 0. -1.
         -3    1    3    3    0  502  0.10852058928E+03  0.79264212408E+02 -0.35590492910E+02  0.13901876439E+03  0.00000000000E+00 0.  1.
         11    1    5    5    0    0 -0.10835370667E+02 -0.64766648820E+01 -0.38737028388E+02  0.40741990794E+02  0.00000000000E+00 0. -1.
        -11    1    5    5    0    0 -0.35311107077E+03  0.18313654223E+03 -0.45741733068E+03  0.60618234534E+03  0.00000000000E+00 0.  1.
          1    1    6    6  503    0 -0.12345646596E+02 -0.13484299873E+02  0.22692607912E+01  0.18422564356E+02  0.00000000000E+00 0. -1.
         -1    1    6    6    0  503  0.15251751008E+03 -0.32120138949E+03  0.77616495285E+02  0.36394538578E+03  0.00000000000E+00 0.  1.
<mgrwt>
<rscale>  0 0.12329467E+04</rscale>
<asrwt>0</asrwt>
<pdfrwt beam="1">  1        2 0.15137186E+00 0.12329467E+04</pdfrwt>
<pdfrwt beam="2">  1       -1 0.59423294E-01 0.12329467E+04</pdfrwt>
<totfact> 0.83193762E+01</totfact>
</mgrwt>
</event>
<event>
12    6  0.1586493E-007  0.2265413E+04  0.7818608E-02  0.8491684E-01
         -1   -1    0    0    0  501 -0.00000000000E+00  0.00000000000E+00  0.81594069071E+03  0.81594069071E+03  0.00000000000E+00 0.  1.
          2   -1    0    0  501    0  0.00000000000E+00 -0.00000000000E+00 -0.15724475449E+04  0.15724475449E+04  0.00000000000E+00 0. -1.
         24    2    1    2    0    0 -0.10187245352E+03 -0.40100943013E+03 -0.12243863468E+04  0.12949157468E+04  0.80612065397E+02 0.  0.
        254    2    1    2    0    0  0.10187245352E+03  0.40100943013E+03  0.46787949259E+03  0.10934724889E+04  0.89754348336E+03 0.  0.
         23    2    4    4    0    0 -0.60819031828E+02  0.35410362289E+03  0.69971424869E+03  0.79192921982E+03  0.91997440217E+02 0.  0.
         23    2    4    4    0    0  0.16269148534E+03  0.46905807237E+02 -0.23183475610E+03  0.30154326906E+03  0.92262206914E+02 0.  0.
          4    1    3    3  502    0 -0.88196572920E+02 -0.32581622597E+03 -0.10804351546E+04  0.11319341730E+04  0.00000000000E+00 0. -1.
         -3    1    3    3    0  502 -0.13675880596E+02 -0.75193204159E+02 -0.14395119221E+03  0.16298157380E+03  0.00000000000E+00 0.  1.
         11    1    5    5    0    0  0.23259439830E+01  0.23949427241E+03  0.43214719393E+03  0.49407905618E+03  0.00000000000E+00 0.  1.
        -11    1    5    5    0    0 -0.63144975811E+02  0.11460935048E+03  0.26756705476E+03  0.29785016365E+03  0.00000000000E+00 0. -1.
          2    1    6    6  503    0  0.10149032107E+03  0.11958832793E+02 -0.19918763300E+03  0.22387275872E+03  0.00000000000E+00 0. -1.
         -2    1    6    6    0  503  0.61201164273E+02  0.34946974444E+02 -0.32647123096E+02  0.77670510347E+02  0.00000000000E+00 0.  1.
<mgrwt>
<rscale>  0 0.22654129E+04</rscale>
<asrwt>0</asrwt>
<pdfrwt beam="1">  1        2 0.24191501E+00 0.22654129E+04</pdfrwt>
<pdfrwt beam="2">  1       -1 0.12552934E+00 0.22654129E+04</pdfrwt>
<totfact> 0.66266681E+00</totfact>
</mgrwt>
</event>
<event>
12    6  0.1586493E-007  0.1952186E+04  0.7818608E-02  0.8629307E-01
         -1   -1    0    0    0  501 -0.00000000000E+00  0.00000000000E+00  0.66784111306E+03  0.66784111306E+03  0.00000000000E+00 0.  1.
          2   -1    0    0  501    0  0.00000000000E+00 -0.00000000000E+00 -0.14266235872E+04  0.14266235872E+04  0.00000000000E+00 0. -1.
         24    2    1    2    0    0 -0.55957004016E+03  0.46663322759E+03 -0.57536248130E+03  0.93181968340E+03  0.79879525230E+02 0.  0.
        254    2    1    2    0    0  0.55957004016E+03 -0.46663322759E+03 -0.18341999282E+03  0.11626450168E+04  0.88726283731E+03 0.  0.
         23    2    4    4    0    0  0.34252055048E+03  0.19769724790E+01 -0.45118311927E+03  0.57369259950E+03  0.90734534116E+02 0.  0.
         23    2    4    4    0    0  0.21704948969E+03 -0.46861020007E+03  0.26776312645E+03  0.58895241735E+03  0.91988354880E+02 0.  0.
          2    1    3    3  502    0 -0.19755833981E+03  0.18783070074E+03 -0.25933960039E+03  0.37625350245E+03  0.00000000000E+00 0. -1.
         -1    1    3    3    0  502 -0.36201170035E+03  0.27880252685E+03 -0.31602288091E+03  0.55556618096E+03  0.00000000000E+00 0.  1.
         11    1    5    5    0    0  0.25703664904E+03 -0.38119818734E+02 -0.32578850474E+03  0.41672426057E+03  0.00000000000E+00 0. -1.
        -11    1    5    5    0    0  0.85483901441E+02  0.40096791213E+02 -0.12539461453E+03  0.15696833893E+03  0.00000000000E+00 0.  1.
          1    1    6    6  503    0  0.86786553464E+02 -0.28942693640E+03  0.17124293780E+03  0.34730966172E+03  0.00000000000E+00 0. -1.
         -1    1    6    6    0  503  0.13026293622E+03 -0.17918326367E+03  0.96520188650E+02  0.24164275563E+03  0.00000000000E+00 0.  1.
<mgrwt>
<rscale>  0 0.19521863E+04</rscale>
<asrwt>0</asrwt>
<pdfrwt beam="1">  1        2 0.21948055E+00 0.19521863E+04</pdfrwt>
<pdfrwt beam="2">  1       -1 0.10274479E+00 0.19521863E+04</pdfrwt>
<totfact> 0.13297647E+01</totfact>
</mgrwt>
</event>
<event>
12    6  0.1586493E-007  0.1226694E+04  0.7818608E-02  0.9089807E-01
          2   -1    0    0  501    0  0.00000000000E+00  0.00000000000E+00  0.17819556756E+04  0.17819556756E+04  0.00000000000E+00 0. -1.
         -3   -1    0    0    0  501 -0.00000000000E+00 -0.00000000000E+00 -0.21111335251E+03  0.21111335251E+03  0.00000000000E+00 0.  1.
         24    2    1    2    0    0 -0.80586493866E+02 -0.17019073090E+03  0.47274711441E+02  0.21034286930E+03  0.80933036810E+02 0.  0.
        254    2    1    2    0    0  0.80586493866E+02  0.17019073090E+03  0.15235676117E+04  0.17827261588E+04  0.90630856894E+03 0.  0.
         23    2    4    4    0    0 -0.15293223772E+02 -0.16593918741E+03  0.13839344035E+04  0.13969788451E+04  0.92226698340E+02 0.  0.
         23    2    4    4    0    0  0.95879717638E+02  0.33612991831E+03  0.13963320817E+03  0.38574731370E+03  0.84423426674E+02 0.  0.
          4    1    3    3  502    0 -0.10826562322E+02 -0.93694718157E+02  0.50054844271E+02  0.10677734824E+03  0.00000000000E+00 0. -1.
         -3    1    3    3    0  502 -0.69759931544E+02 -0.76496012744E+02 -0.27801328301E+01  0.10356552106E+03  0.00000000000E+00 0.  1.
         11    1    5    5    0    0  0.48427739262E+01 -0.12269186146E+02  0.45600344863E+03  0.45619418076E+03  0.00000000000E+00 0.  1.
        -11    1    5    5    0    0 -0.20135997698E+02 -0.15367000126E+03  0.92793095489E+03  0.94078466438E+03  0.00000000000E+00 0. -1.
          2    1    6    6  503    0  0.72347521985E+02  0.32577518506E+03  0.13261856984E+03  0.35909792565E+03  0.00000000000E+00 0. -1.
         -2    1    6    6    0  503  0.23532195653E+02  0.10354733246E+02  0.70146383299E+01  0.26649388056E+02  0.00000000000E+00 0.  1.
<mgrwt>
<rscale>  0 0.12266942E+04</rscale>
<asrwt>0</asrwt>
<pdfrwt beam="1">  1        2 0.27414702E+00 0.12266942E+04</pdfrwt>
<pdfrwt beam="2">  1       -3 0.32478978E-01 0.12266942E+04</pdfrwt>
<totfact> 0.52316259E+01</totfact>
</mgrwt>
</event>
<event>
12    6  0.1586493E-007  0.1532531E+04  0.7818608E-02  0.8863104E-01
          2   -1    0    0  501    0  0.00000000000E+00  0.00000000000E+00  0.75744001604E+03  0.75744001604E+03  0.00000000000E+00 0. -1.
         -1   -1    0    0    0  501 -0.00000000000E+00 -0.00000000000E+00 -0.77519419291E+03  0.77519419291E+03  0.00000000000E+00 0.  1.
         24    2    1    2    0    0  0.41597257408E+03 -0.19783616533E+03 -0.18698109187E+03  0.50603492777E+03  0.94536176736E+02 0.  0.
        254    2    1    2    0    0 -0.41597257408E+03  0.19783616533E+03  0.16922691501E+03  0.10265992812E+04  0.90171836216E+03 0.  0.
         23    2    4    4    0    0  0.86688301892E+02  0.18565438413E+03  0.40578314550E+03  0.46343156207E+03  0.90146766588E+02 0.  0.
         23    2    4    4    0    0 -0.50266087597E+03  0.12181781205E+02 -0.23655623049E+03  0.56316771910E+03  0.91556963860E+02 0.  0.
          4    1    3    3  502    0  0.23136470532E+03 -0.74296570542E+02 -0.13468834215E+03  0.27783188581E+03  0.00000000000E+00 0. -1.
         -3    1    3    3    0  502  0.18460786875E+03 -0.12353959479E+03 -0.52292749725E+02  0.22820304196E+03  0.00000000000E+00 0.  1.
         11    1    5    5    0    0  0.22226379693E+02  0.11302681102E+02  0.11361826181E+02  0.27401708862E+02  0.00000000000E+00 0. -1.
        -11    1    5    5    0    0  0.64461922198E+02  0.17435170303E+03  0.39442131932E+03  0.43602985321E+03  0.00000000000E+00 0.  1.
          3    1    6    6  503    0 -0.17623847628E+03  0.69910156579E+01 -0.35976623470E+02  0.18000886716E+03  0.00000000000E+00 0. -1.
         -3    1    6    6    0  503 -0.32642239969E+03  0.51907655472E+01 -0.20057960702E+03  0.38315885194E+03  0.00000000000E+00 0.  1.
<mgrwt>
<rscale>  0 0.15325314E+04</rscale>
<asrwt>0</asrwt>
<pdfrwt beam="1">  1        2 0.11652923E+00 0.15325314E+04</pdfrwt>
<pdfrwt beam="2">  1       -1 0.11926065E+00 0.15325314E+04</pdfrwt>
<totfact> 0.25616832E+01</totfact>
</mgrwt>
</event>
<event>
12    6  0.1586493E-007  0.1749345E+04  0.7818608E-02  0.8733711E-01
          2   -1    0    0  501    0  0.00000000000E+00  0.00000000000E+00  0.10797307680E+04  0.10797307680E+04  0.00000000000E+00 0. -1.
         -1   -1    0    0    0  501 -0.00000000000E+00 -0.00000000000E+00 -0.70855832865E+03  0.70855832865E+03  0.00000000000E+00 0.  1.
         24    2    1    2    0    0 -0.26898629676E+03 -0.10784463489E+03 -0.44628032082E+03  0.53796504621E+03  0.79095973829E+02 0.  0.
        254    2    1    2    0    0  0.26898629676E+03  0.10784463489E+03  0.81745276020E+03  0.12503240505E+04  0.90060930648E+03 0.  0.
         23    2    4    4    0    0  0.52548153691E+03  0.29574843256E+03  0.46410270591E+03  0.76627744938E+03  0.90508711158E+02 0.  0.
         23    2    4    4    0    0 -0.25649524015E+03 -0.18790379767E+03  0.35335005429E+03  0.48404660110E+03  0.91363043830E+02 0.  0.
          4    1    3    3  502    0 -0.13246951170E+03 -0.95243750031E+02 -0.25090033154E+03  0.29928334370E+03  0.00000000000E+00 0. -1.
         -3    1    3    3    0  502 -0.13651678507E+03 -0.12600884859E+02 -0.19537998928E+03  0.23868170251E+03  0.00000000000E+00 0.  1.
         11    1    5    5    0    0  0.16776417927E+03  0.11840000176E+03  0.11179768080E+03  0.23379927650E+03  0.00000000000E+00 0. -1.
        -11    1    5    5    0    0  0.35771735764E+03  0.17734843080E+03  0.35230502512E+03  0.53247817287E+03  0.00000000000E+00 0.  1.
          2    1    6    6  503    0 -0.48374460961E+01 -0.26981686628E+01  0.44020759136E+02  0.44367873893E+02  0.00000000000E+00 0. -1.
         -2    1    6    6    0  503 -0.25165779405E+03 -0.18520562900E+03  0.30932929515E+03  0.43967872721E+03  0.00000000000E+00 0.  1.
<mgrwt>
<rscale>  0 0.17493453E+04</rscale>
<asrwt>0</asrwt>
<pdfrwt beam="1">  1        2 0.16611243E+00 0.17493453E+04</pdfrwt>
<pdfrwt beam="2">  1       -1 0.10900897E+00 0.17493453E+04</pdfrwt>
<totfact> 0.18907528E+01</totfact>
</mgrwt>
</event>
<event>
12    6  0.1586493E-007  0.2594923E+04  0.7818608E-02  0.8369928E-01
          2   -1    0    0  501    0  0.00000000000E+00  0.00000000000E+00  0.13833458399E+04  0.13833458399E+04  0.00000000000E+00 0. -1.
         -1   -1    0    0    0  501 -0.00000000000E+00 -0.00000000000E+00 -0.12169090134E+04  0.12169090134E+04  0.00000000000E+00 0.  1.
         24    2    1    2    0    0  0.15960054659E+03 -0.63825543671E+03 -0.86099297898E+03  0.10865709929E+04  0.80531210181E+02 0.  0.
        254    2    1    2    0    0 -0.15960054659E+03  0.63825543671E+03  0.10274298056E+04  0.15136838604E+04  0.89598241439E+03 0.  0.
         23    2    4    4    0    0 -0.46343406345E+03  0.50990105146E+03  0.40787434522E+03  0.80580941984E+03  0.90537981933E+02 0.  0.
         23    2    4    4    0    0  0.30383351686E+03  0.12835438525E+03  0.61955546033E+03  0.70787444055E+03  0.91910831639E+02 0.  0.
          4    1    3    3  502    0 -0.57933261260E+01 -0.17512367790E+02 -0.40579610792E+02  0.44575222548E+02  0.00000000000E+00 0. -1.
         -3    1    3    3    0  502  0.16539387272E+03 -0.62074306892E+03 -0.82041336819E+03  0.10419957704E+04  0.00000000000E+00 0.  1.
         11    1    5    5    0    0 -0.44738712763E+03  0.46316539565E+03  0.39211215214E+03  0.75394254791E+03  0.00000000000E+00 0.  1.
        -11    1    5    5    0    0 -0.16046935820E+02  0.46735655813E+02  0.15762193087E+02  0.51866871935E+02  0.00000000000E+00 0. -1.
          3    1    6    6  503    0  0.12379161535E+03  0.89404620040E+02  0.34459821411E+03  0.37691574561E+03  0.00000000000E+00 0.  1.
         -3    1    6    6    0  503  0.18004190151E+03  0.38949765214E+02  0.27495724622E+03  0.33095869494E+03  0.00000000000E+00 0. -1.
<mgrwt>
<rscale>  0 0.25949228E+04</rscale>
<asrwt>0</asrwt>
<pdfrwt beam="1">  1        2 0.21282244E+00 0.25949228E+04</pdfrwt>
<pdfrwt beam="2">  1       -1 0.18721677E+00 0.25949228E+04</pdfrwt>
<totfact> 0.27568635E+00</totfact>
</mgrwt>
</event>
<event>
12    6  0.1586493E-007  0.2077117E+04  0.7818608E-02  0.8571391E-01
         -1   -1    0    0    0  501 -0.00000000000E+00  0.00000000000E+00  0.74641152412E+03  0.74641152412E+03  0.00000000000E+00 0.  1.
          2   -1    0    0  501    0  0.00000000000E+00 -0.00000000000E+00 -0.14450528105E+04  0.14450528105E+04  0.00000000000E+00 0. -1.
         24    2    1    2    0    0  0.12013094845E+03  0.66228457256E+03 -0.81366607450E+03  0.10589262871E+04  0.78867616552E+02 0.  0.
        254    2    1    2    0    0 -0.12013094845E+03 -0.66228457256E+03  0.11502478808E+03  0.11325380475E+04  0.90352610777E+03 0.  0.
         23    2    4    4    0    0 -0.50537855272E+03 -0.40873166548E+03  0.59306378711E+02  0.65899427430E+03  0.91033790946E+02 0.  0.
         23    2    4    4    0    0  0.38524760427E+03 -0.25355290708E+03  0.55718409370E+02  0.47354377323E+03  0.91838830249E+02 0.  0.
          4    1    3    3  502    0  0.21382379500E+02  0.30269843354E+03 -0.39839085918E+03  0.50079818740E+03  0.00000000000E+00 0. -1.
         -3    1    3    3    0  502  0.98748568952E+02  0.35958613903E+03 -0.41527521531E+03  0.55812809973E+03  0.00000000000E+00 0.  1.
         11    1    5    5    0    0 -0.31803211308E+03 -0.21135616309E+03  0.72446726922E+01  0.38192713691E+03  0.00000000000E+00 0. -1.
        -11    1    5    5    0    0 -0.18734643964E+03 -0.19737550239E+03  0.52061706019E+02  0.27706713740E+03  0.00000000000E+00 0.  1.
          1    1    6    6  503    0  0.30282491277E+03 -0.20437220679E+03  0.81171861679E+02  0.37424563836E+03  0.00000000000E+00 0. -1.
         -1    1    6    6    0  503  0.82422691501E+02 -0.49180700288E+02 -0.25453452309E+02  0.99298134875E+02  0.00000000000E+00 0.  1.
<mgrwt>
<rscale>  0 0.20771173E+04</rscale>
<asrwt>0</asrwt>
<pdfrwt beam="1">  1        2 0.22231581E+00 0.20771173E+04</pdfrwt>
<pdfrwt beam="2">  1       -1 0.11483254E+00 0.20771173E+04</pdfrwt>
<totfact> 0.98832566E+00</totfact>
</mgrwt>
</event>
<event>
12    6  0.1586493E-007  0.4029614E+04  0.7818608E-02  0.7998599E-01
         -1   -1    0    0    0  501 -0.00000000000E+00  0.00000000000E+00  0.17492356459E+04  0.17492356459E+04  0.00000000000E+00 0.  1.
          2   -1    0    0  501    0  0.00000000000E+00 -0.00000000000E+00 -0.23206977632E+04  0.23206977632E+04  0.00000000000E+00 0. -1.
         24    2    1    2    0    0  0.77248466354E+03  0.67253857755E+02 -0.20389915987E+04  0.21829459597E+04  0.80688825652E+02 0.  0.
        254    2    1    2    0    0 -0.77248466354E+03 -0.67253857755E+02  0.14675294815E+04  0.18869874494E+04  0.89767656661E+03 0.  0.
         23    2    4    4    0    0  0.51732337960E+02  0.19210918128E+03  0.68265984421E+03  0.71616956784E+03  0.85394465185E+02 0.  0.
         23    2    4    4    0    0 -0.82421700150E+03 -0.25936303903E+03  0.78486963727E+03  0.11708178815E+04  0.90505870512E+02 0.  0.
          2    1    3    3  502    0  0.49916564467E+03  0.54205534701E+02 -0.14205514234E+04  0.15066754552E+04  0.00000000000E+00 0. -1.
         -3    1    3    3    0  502  0.27331901886E+03  0.13048323053E+02 -0.61844017536E+03  0.67627050454E+03  0.00000000000E+00 0.  1.
         11    1    5    5    0    0  0.71761806861E+02  0.17706223569E+03  0.58856002533E+03  0.61879212636E+03  0.00000000000E+00 0. -1.
        -11    1    5    5    0    0 -0.20029468901E+02  0.15046945590E+02  0.94099818878E+02  0.97377441478E+02  0.00000000000E+00 0.  1.
          3    1    6    6  503    0 -0.61292204392E+03 -0.15070374042E+03  0.56722395034E+03  0.84860359364E+03  0.00000000000E+00 0. -1.
         -3    1    6    6    0  503 -0.21129495758E+03 -0.10865929861E+03  0.21764568693E+03  0.32221428788E+03  0.00000000000E+00 0.  1.
<mgrwt>
<rscale>  0 0.40296140E+04</rscale>
<asrwt>0</asrwt>
<pdfrwt beam="1">  1        2 0.35703042E+00 0.40296140E+04</pdfrwt>
<pdfrwt beam="2">  1       -1 0.26911318E+00 0.40296140E+04</pdfrwt>
<totfact> 0.20674192E-01</totfact>
</mgrwt>
</event>
<event>
12    6  0.1586493E-007  0.1800579E+04  0.7818608E-02  0.8705991E-01
          2   -1    0    0  501    0  0.00000000000E+00  0.00000000000E+00  0.59474173581E+03  0.59474173581E+03  0.00000000000E+00 0. -1.
         -1   -1    0    0    0  501 -0.00000000000E+00 -0.00000000000E+00 -0.13628127717E+04  0.13628127717E+04  0.00000000000E+00 0.  1.
         24    2    1    2    0    0  0.13910901535E+03  0.50924887384E+03 -0.75209768983E+03  0.92250017285E+03  0.81669456955E+02 0.  0.
        254    2    1    2    0    0 -0.13910901535E+03 -0.50924887384E+03 -0.15973346103E+02  0.10350543347E+04  0.89016661043E+03 0.  0.
         23    2    4    4    0    0 -0.50172804828E+03 -0.20588848665E+03  0.22480640019E+02  0.55200433995E+03  0.10041070053E+03 0.  0.
         23    2    4    4    0    0  0.36261903293E+03 -0.30336038719E+03 -0.38453986122E+02  0.48304999475E+03  0.91315391999E+02 0.  0.
          4    1    3    3  502    0  0.13222454769E+03  0.46501320143E+03 -0.72065750143E+03  0.86779481612E+03  0.00000000000E+00 0. -1.
         -3    1    3    3    0  502  0.68844676669E+01  0.44235672402E+02 -0.31440188400E+02  0.54705356726E+02  0.00000000000E+00 0.  1.
         11    1    5    5    0    0 -0.16969227550E+03 -0.83947901233E+02 -0.38147790099E+02  0.19312682977E+03  0.00000000000E+00 0.  1.
        -11    1    5    5    0    0 -0.33203577278E+03 -0.12194058541E+03  0.60628430118E+02  0.35887751018E+03  0.00000000000E+00 0. -1.
          3    1    6    6  503    0  0.25306788580E+03 -0.19337779998E+03 -0.66344011534E+02  0.32533038010E+03  0.00000000000E+00 0. -1.
         -3    1    6    6    0  503  0.10955114713E+03 -0.10998258721E+03  0.27890025413E+02  0.15771961464E+03  0.00000000000E+00 0.  1.
<mgrwt>
<rscale>  0 0.18005795E+04</rscale>
<asrwt>0</asrwt>
<pdfrwt beam="1">  1        2 0.91498730E-01 0.18005795E+04</pdfrwt>
<pdfrwt beam="2">  1       -1 0.20966350E+00 0.18005795E+04</pdfrwt>
<totfact> 0.69847551E+00</totfact>
</mgrwt>
</event>
<event>
12    6  0.1586493E-007  0.1615124E+04  0.7818608E-02  0.8811310E-01
          2   -1    0    0  501    0  0.00000000000E+00  0.00000000000E+00  0.74613114593E+03  0.74613114593E+03  0.00000000000E+00 0. -1.
         -1   -1    0    0    0  501 -0.00000000000E+00 -0.00000000000E+00 -0.87405114561E+03  0.87405114561E+03  0.00000000000E+00 0.  1.
         24    2    1    2    0    0  0.16331293071E+02 -0.55535495672E+03 -0.17980702935E+02  0.56165630402E+03  0.80303543430E+02 0.  0.
        254    2    1    2    0    0 -0.16331293071E+02  0.55535495672E+03 -0.10993929675E+03  0.10585259875E+04  0.89426214177E+03 0.  0.
         23    2    4    4    0    0  0.38669932799E+02 -0.12822343165E+03  0.23500688427E+03  0.28528474533E+03  0.90678212035E+02 0.  0.
         23    2    4    4    0    0 -0.55001225870E+02  0.68357838836E+03 -0.34494618102E+03  0.77324124218E+03  0.92787946051E+02 0.  0.
          2    1    3    3  502    0  0.18205199796E+01 -0.21978868337E+02  0.15620933206E+02  0.27025885750E+02  0.00000000000E+00 0. -1.
         -1    1    3    3    0  502  0.14510773091E+02 -0.53337608838E+03 -0.33601636141E+02  0.53463041827E+03  0.00000000000E+00 0.  1.
         11    1    5    5    0    0  0.18817478049E+02  0.68036597427E+01  0.60645783304E+02  0.63861555716E+02  0.00000000000E+00 0. -1.
        -11    1    5    5    0    0  0.19852454750E+02 -0.13502709139E+03  0.17436110097E+03  0.22142318962E+03  0.00000000000E+00 0.  1.
          3    1    6    6  503    0 -0.49574116271E+00  0.59054209409E+01 -0.17806343162E+02  0.18766608980E+02  0.00000000000E+00 0. -1.
         -3    1    6    6    0  503 -0.54505484707E+02  0.67767296742E+03 -0.32713983786E+03  0.75447463321E+03  0.00000000000E+00 0.  1.
<mgrwt>
<rscale>  0 0.16151245E+04</rscale>
<asrwt>0</asrwt>
<pdfrwt beam="1">  1        2 0.11478941E+00 0.16151245E+04</pdfrwt>
<pdfrwt beam="2">  1       -1 0.13446941E+00 0.16151245E+04</pdfrwt>
<totfact> 0.19216614E+01</totfact>
</mgrwt>
</event>
<event>
12    6  0.1586493E-007  0.2755793E+04  0.7818608E-02  0.8317126E-01
         -1   -1    0    0    0  501 -0.00000000000E+00  0.00000000000E+00  0.13118674633E+04  0.13118674633E+04  0.00000000000E+00 0.  1.
          2   -1    0    0  501    0  0.00000000000E+00 -0.00000000000E+00 -0.14472489762E+04  0.14472489762E+04  0.00000000000E+00 0. -1.
         24    2    1    2    0    0 -0.82837647139E+03  0.24643266264E+03 -0.93493189236E+03  0.12756967339E+04  0.79798985466E+02 0.  0.
        254    2    1    2    0    0  0.82837647139E+03 -0.24643266264E+03  0.79955037949E+03  0.14834197055E+04  0.90239491231E+03 0.  0.
         23    2    4    4    0    0  0.56245339615E+03 -0.37033425600E+03  0.59523845501E+02  0.68221201912E+03  0.91481510978E+02 0.  0.
         23    2    4    4    0    0  0.26592307524E+03  0.12390159335E+03  0.74002653399E+03  0.80120768638E+03  0.90707215377E+02 0.  0.
          2    1    3    3  502    0 -0.59210641478E+03  0.19447558508E+03 -0.71808272999E+03  0.95081731512E+03  0.00000000000E+00 0. -1.
         -1    1    3    3    0  502 -0.23627005661E+03  0.51957077566E+02 -0.21684916237E+03  0.32487941883E+03  0.00000000000E+00 0.  1.
         11    1    5    5    0    0  0.52626443041E+03 -0.34953094631E+03  0.78004405263E+02  0.63656171766E+03  0.00000000000E+00 0.  1.
        -11    1    5    5    0    0  0.36188965739E+02 -0.20803309684E+02 -0.18480559762E+02  0.45650301469E+02  0.00000000000E+00 0. -1.
          3    1    6    6  503    0  0.34297802520E+02 -0.13573094171E+02  0.71342924529E+02  0.80314264134E+02  0.00000000000E+00 0. -1.
         -3    1    6    6    0  503  0.23162527272E+03  0.13747468752E+03  0.66868360946E+03  0.72089342225E+03  0.00000000000E+00 0.  1.
<mgrwt>
<rscale>  0 0.27557931E+04</rscale>
<asrwt>0</asrwt>
<pdfrwt beam="1">  1        2 0.22265369E+00 0.27557931E+04</pdfrwt>
<pdfrwt beam="2">  1       -1 0.20182576E+00 0.27557931E+04</pdfrwt>
<totfact> 0.19776263E+00</totfact>
</mgrwt>
</event>
<event>
12    6  0.1586493E-007  0.1879599E+04  0.7818608E-02  0.8665078E-01
         -1   -1    0    0    0  501 -0.00000000000E+00  0.00000000000E+00  0.82383179446E+03  0.82383179446E+03  0.00000000000E+00 0.  1.
          2   -1    0    0  501    0  0.00000000000E+00 -0.00000000000E+00 -0.10720917377E+04  0.10720917377E+04  0.00000000000E+00 0. -1.
         24    2    1    2    0    0  0.19479413496E+03 -0.50977975971E+03 -0.56969062725E+03  0.79310332742E+03  0.81518824641E+02 0.  0.
        254    2    1    2    0    0 -0.19479413496E+03  0.50977975971E+03  0.32143068402E+03  0.11028202047E+04  0.90281479879E+03 0.  0.
         23    2    4    4    0    0  0.80156571068E+02  0.66891328221E+03  0.36233215439E+03  0.77041248049E+03  0.91546408972E+02 0.  0.
         23    2    4    4    0    0 -0.27495070603E+03 -0.15913352250E+03 -0.40901470368E+02  0.33240772424E+03  0.88885297577E+02 0.  0.
          2    1    3    3  502    0  0.61684356261E+02 -0.23508991113E+03 -0.20867029082E+03  0.32033656737E+03  0.00000000000E+00 0. -1.
         -1    1    3    3    0  502  0.13310977870E+03 -0.27468984858E+03 -0.36102033643E+03  0.47276676005E+03  0.00000000000E+00 0.  1.
         11    1    5    5    0    0  0.41113824323E+02  0.43095647691E+03  0.18349945533E+03  0.47019770485E+03  0.00000000000E+00 0. -1.
        -11    1    5    5    0    0  0.39042746745E+02  0.23795680531E+03  0.17883269906E+03  0.30021477565E+03  0.00000000000E+00 0.  1.
          2    1    6    6  503    0 -0.14436449590E+03 -0.11346603335E+03  0.12673162777E+02  0.18405503920E+03  0.00000000000E+00 0. -1.
         -2    1    6    6    0  503 -0.13058621013E+03 -0.45667489155E+02 -0.53574633145E+02  0.14835268504E+03  0.00000000000E+00 0.  1.
<mgrwt>
<rscale>  0 0.18795992E+04</rscale>
<asrwt>0</asrwt>
<pdfrwt beam="1">  1        2 0.16493719E+00 0.18795992E+04</pdfrwt>
<pdfrwt beam="2">  1       -1 0.12674335E+00 0.18795992E+04</pdfrwt>
<totfact> 0.13116253E+01</totfact>
</mgrwt>
</event>
<event>
12    6  0.1586493E-007  0.2299919E+04  0.7818608E-02  0.8477953E-01
          2   -1    0    0  501    0  0.00000000000E+00  0.00000000000E+00  0.30462709636E+04  0.30462709636E+04  0.00000000000E+00 0. -1.
         -1   -1    0    0    0  501 -0.00000000000E+00 -0.00000000000E+00 -0.43410674767E+03  0.43410674767E+03  0.00000000000E+00 0.  1.
         24    2    1    2    0    0  0.89543049997E+03 -0.22867523259E+03  0.68453219839E+03  0.11528378499E+04  0.79766127934E+02 0.  0.
        254    2    1    2    0    0 -0.89543049997E+03  0.22867523259E+03  0.19276320176E+04  0.23275398614E+04  0.92064568054E+03 0.  0.
         23    2    4    4    0    0 -0.24836140007E+03  0.32526253393E+03  0.14581510369E+04  0.15171660076E+04  0.90050803142E+02 0.  0.
         23    2    4    4    0    0 -0.64706909990E+03 -0.96587301338E+02  0.46948098063E+03  0.81037385380E+03  0.90916802241E+02 0.  0.
          2    1    3    3  502    0  0.27133577197E+03 -0.56964229940E+02  0.16322718356E+03  0.32173146893E+03  0.00000000000E+00 0. -1.
         -1    1    3    3    0  502  0.62409472799E+03 -0.17171100265E+03  0.52130501483E+03  0.83110638093E+03  0.00000000000E+00 0.  1.
         11    1    5    5    0    0 -0.84589849221E+02  0.48997491235E+02  0.35565504853E+03  0.36884510338E+03  0.00000000000E+00 0. -1.
        -11    1    5    5    0    0 -0.16377155085E+03  0.27626504270E+03  0.11024959884E+04  0.11483209042E+04  0.00000000000E+00 0.  1.
          2    1    6    6  503    0 -0.24595059152E+03 -0.28727530276E+02  0.12543416291E+03  0.27758006717E+03  0.00000000000E+00 0. -1.
         -2    1    6    6    0  503 -0.40111850838E+03 -0.67859771062E+02  0.34404681772E+03  0.53279378663E+03  0.00000000000E+00 0.  1.
<mgrwt>
<rscale>  0 0.22999189E+04</rscale>
<asrwt>0</asrwt>
<pdfrwt beam="1">  1        2 0.46865706E+00 0.22999189E+04</pdfrwt>
<pdfrwt beam="2">  1       -1 0.66785655E-01 0.22999189E+04</pdfrwt>
<totfact> 0.38179474E+00</totfact>
</mgrwt>
</event>
<event>
12    6  0.1586493E-007  0.2016599E+04  0.7818608E-02  0.8598899E-01
          2   -1    0    0  501    0  0.00000000000E+00  0.00000000000E+00  0.20902932693E+04  0.20902932693E+04  0.00000000000E+00 0. -1.
         -1   -1    0    0    0  501 -0.00000000000E+00 -0.00000000000E+00 -0.48637577656E+03  0.48637577656E+03  0.00000000000E+00 0.  1.
         24    2    1    2    0    0 -0.95437074165E+02  0.55320345623E+03 -0.90205031431E+02  0.57413506588E+03  0.79698350500E+02 0.  0.
        254    2    1    2    0    0  0.95437074165E+02 -0.55320345623E+03  0.16941225242E+04  0.20025339800E+04  0.90826698439E+03 0.  0.
         23    2    4    4    0    0  0.51446405593E+02 -0.72927415544E+03  0.16285245468E+04  0.17875119050E+04  0.92839026295E+02 0.  0.
         23    2    4    4    0    0  0.43990668573E+02  0.17607069921E+03  0.65597977401E+02  0.21502207493E+03  0.94843703147E+02 0.  0.
          4    1    3    3  502    0 -0.15190227322E+02  0.11381521843E+03  0.13449289790E+02  0.11560938693E+03  0.00000000000E+00 0. -1.
         -3    1    3    3    0  502 -0.80246846844E+02  0.43938823780E+03 -0.10365432122E+03  0.45852567895E+03  0.00000000000E+00 0.  1.
         11    1    5    5    0    0  0.69303860233E+02 -0.68549852191E+03  0.15416002210E+04  0.16885622553E+04  0.00000000000E+00 0.  1.
        -11    1    5    5    0    0 -0.17857454641E+02 -0.43775633523E+02  0.86924325772E+02  0.98949649759E+02  0.00000000000E+00 0. -1.
          2    1    6    6  503    0  0.58761707436E+02  0.71452244246E+02  0.37335160871E+01  0.92586719409E+02  0.00000000000E+00 0. -1.
         -2    1    6    6    0  503 -0.14771038863E+02  0.10461845496E+03  0.61864461314E+02  0.12243535552E+03  0.00000000000E+00 0.  1.
<mgrwt>
<rscale>  0 0.20165991E+04</rscale>
<asrwt>0</asrwt>
<pdfrwt beam="1">  1        2 0.32158358E+00 0.20165991E+04</pdfrwt>
<pdfrwt beam="2">  1       -1 0.74827043E-01 0.20165991E+04</pdfrwt>
<totfact> 0.11290469E+01</totfact>
</mgrwt>
</event>
<event>
12    6  0.1586493E-007  0.2027798E+04  0.7818608E-02  0.8593733E-01
          2   -1    0    0  501    0  0.00000000000E+00  0.00000000000E+00  0.17933440171E+04  0.17933440171E+04  0.00000000000E+00 0. -1.
         -1   -1    0    0    0  501 -0.00000000000E+00 -0.00000000000E+00 -0.57322576522E+03  0.57322576522E+03  0.00000000000E+00 0.  1.
         24    2    1    2    0    0 -0.25875371473E+03 -0.10667095259E+03 -0.39650938560E+03  0.49265889596E+03  0.84622206775E+02 0.  0.
        254    2    1    2    0    0  0.25875371473E+03  0.10667095259E+03  0.16166276375E+04  0.18739108864E+04  0.90538661064E+03 0.  0.
         23    2    4    4    0    0  0.87956438239E+02  0.46127744179E+03  0.52659781844E+03  0.71143886088E+03  0.91251175668E+02 0.  0.
         23    2    4    4    0    0  0.17079727649E+03 -0.35460648920E+03  0.10900298190E+04  0.11624720255E+04  0.90877564699E+02 0.  0.
          4    1    3    3  502    0 -0.16016072634E+03 -0.33528687637E+02 -0.17624821091E+03  0.24049753222E+03  0.00000000000E+00 0. -1.
         -3    1    3    3    0  502 -0.98592988394E+02 -0.73142264955E+02 -0.22026117470E+03  0.25216136374E+03  0.00000000000E+00 0.  1.
         11    1    5    5    0    0 -0.14852232935E+02  0.44224699971E+02  0.73864591403E+02  0.87363555180E+02  0.00000000000E+00 0. -1.
        -11    1    5    5    0    0  0.10280867117E+03  0.41705274182E+03  0.45273322703E+03  0.62407530570E+03  0.00000000000E+00 0.  1.
          2    1    6    6  503    0  0.15190196343E+02 -0.20307844899E+01  0.79174862263E+02  0.80644435425E+02  0.00000000000E+00 0. -1.
         -2    1    6    6    0  503  0.15560708015E+03 -0.35257570471E+03  0.10108549568E+04  0.10818275901E+04  0.00000000000E+00 0.  1.
<mgrwt>
<rscale>  0 0.20277978E+04</rscale>
<asrwt>0</asrwt>
<pdfrwt beam="1">  1        2 0.27589908E+00 0.20277978E+04</pdfrwt>
<pdfrwt beam="2">  1       -1 0.88188580E-01 0.20277978E+04</pdfrwt>
<totfact> 0.11604585E+01</totfact>
</mgrwt>
</event>
<event>
12    6  0.1586493E-007  0.1268059E+04  0.7818608E-02  0.9055285E-01
         -1   -1    0    0    0  501 -0.00000000000E+00  0.00000000000E+00  0.17608875615E+03  0.17608875615E+03  0.00000000000E+00 0.  1.
          2   -1    0    0  501    0  0.00000000000E+00 -0.00000000000E+00 -0.22829029316E+04  0.22829029316E+04  0.00000000000E+00 0. -1.
         24    2    1    2    0    0  0.21113063945E+03 -0.10581066672E+03 -0.15022079972E+03  0.29014789147E+03  0.76468726614E+02 0.  0.
        254    2    1    2    0    0 -0.21113063945E+03  0.10581066672E+03 -0.19565933757E+04  0.21688437963E+04  0.90545774647E+03 0.  0.
         23    2    4    4    0    0  0.20339862988E+03  0.24463707058E+02 -0.15809616943E+04  0.15965508251E+04  0.86978060249E+02 0.  0.
         23    2    4    4    0    0 -0.41452926933E+03  0.81346959663E+02 -0.37563168145E+03  0.57229297112E+03  0.89265008312E+02 0.  0.
          2    1    3    3  502    0  0.65319457767E+02 -0.18252445520E+01 -0.63683524645E+02  0.91244475953E+02  0.00000000000E+00 0. -1.
         -1    1    3    3    0  502  0.14581118168E+03 -0.10398542217E+03 -0.86537275075E+02  0.19890341552E+03  0.00000000000E+00 0.  1.
         11    1    5    5    0    0  0.42162137799E+02  0.41214246585E+02 -0.50859261375E+03  0.51199873705E+03  0.00000000000E+00 0. -1.
        -11    1    5    5    0    0  0.16123649208E+03 -0.16750539527E+02 -0.10723690805E+04  0.10845520881E+04  0.00000000000E+00 0.  1.
          4    1    6    6  503    0 -0.24876354638E+03  0.90815514359E+02 -0.21266262429E+03  0.33964120985E+03  0.00000000000E+00 0.  1.
         -4    1    6    6    0  503 -0.16576572295E+03 -0.94685546960E+01 -0.16296905716E+03  0.23265176127E+03  0.00000000000E+00 0. -1.
<mgrwt>
<rscale>  0 0.12680592E+04</rscale>
<asrwt>0</asrwt>
<pdfrwt beam="1">  1        2 0.35121585E+00 0.12680592E+04</pdfrwt>
<pdfrwt beam="2">  1       -1 0.27090577E-01 0.12680592E+04</pdfrwt>
<totfact> 0.63442351E+01</totfact>
</mgrwt>
</event>
<event>
12    6  0.1586493E-007  0.1650709E+04  0.7818608E-02  0.8789987E-01
          2   -1    0    0  501    0  0.00000000000E+00  0.00000000000E+00  0.22864444887E+04  0.22864444887E+04  0.00000000000E+00 0. -1.
         -3   -1    0    0    0  501 -0.00000000000E+00 -0.00000000000E+00 -0.29793406161E+03  0.29793406161E+03  0.00000000000E+00 0.  1.
         24    2    1    2    0    0  0.27862956291E+03 -0.49400835678E+03  0.85886629846E+03  0.10320691273E+04  0.76398134875E+02 0.  0.
        254    2    1    2    0    0 -0.27862956291E+03  0.49400835678E+03  0.11296441286E+04  0.15523094230E+04  0.90104938683E+03 0.  0.
         23    2    4    4    0    0 -0.51799916426E+03  0.59006281760E+03  0.83247145216E+03  0.11482048733E+04  0.94172445611E+02 0.  0.
         23    2    4    4    0    0  0.23936960135E+03 -0.96054460819E+02  0.29717267648E+03  0.40410454971E+03  0.92003380159E+02 0.  0.
          2    1    3    3  502    0  0.95572272103E+02 -0.14339287617E+03  0.20417759055E+03  0.26717796431E+03  0.00000000000E+00 0. -1.
         -1    1    3    3    0  502  0.18305729081E+03 -0.35061548061E+03  0.65468870791E+03  0.76489116299E+03  0.00000000000E+00 0.  1.
         11    1    5    5    0    0 -0.21065415571E+03  0.21542460843E+03  0.38258064189E+03  0.48698139881E+03  0.00000000000E+00 0.  1.
        -11    1    5    5    0    0 -0.30734500855E+03  0.37463820916E+03  0.44989081026E+03  0.66122347448E+03  0.00000000000E+00 0. -1.
          2    1    6    6  503    0  0.14146103069E+03 -0.35624700235E+02  0.10361046162E+03  0.17892867358E+03  0.00000000000E+00 0.  1.
         -2    1    6    6    0  503  0.97908570654E+02 -0.60429760585E+02  0.19356221486E+03  0.22517587613E+03  0.00000000000E+00 0. -1.
<mgrwt>
<rscale>  0 0.16507086E+04</rscale>
<asrwt>0</asrwt>
<pdfrwt beam="1">  1        2 0.35176068E+00 0.16507086E+04</pdfrwt>
<pdfrwt beam="2">  1       -3 0.45836011E-01 0.16507086E+04</pdfrwt>
<totfact> 0.13456523E+01</totfact>
</mgrwt>
</event>
<event>
12    6  0.1586493E-007  0.1727794E+04  0.7818608E-02  0.8745669E-01
         -1   -1    0    0    0  501 -0.00000000000E+00  0.00000000000E+00  0.32026936280E+03  0.32026936280E+03  0.00000000000E+00 0.  1.
          2   -1    0    0  501    0  0.00000000000E+00 -0.00000000000E+00 -0.23302812991E+04  0.23302812991E+04  0.00000000000E+00 0. -1.
         24    2    1    2    0    0  0.25841025908E+03 -0.54551635171E+03 -0.47945610678E+03  0.77450706986E+03  0.74960595944E+02 0.  0.
        254    2    1    2    0    0 -0.25841025908E+03  0.54551635171E+03 -0.15305558295E+04  0.18760435921E+04  0.90142912091E+03 0.  0.
         23    2    4    4    0    0 -0.37491084703E+03  0.73628043258E+03 -0.13060552985E+04  0.15477793932E+04  0.84697039594E+02 0.  0.
         23    2    4    4    0    0  0.11650058794E+03 -0.19076408087E+03 -0.22450053104E+03  0.32826419892E+03  0.85985895996E+02 0.  0.
          2    1    3    3  502    0  0.98094063748E+02 -0.13356618600E+03 -0.14488340159E+03  0.22012171961E+03  0.00000000000E+00 0. -1.
         -1    1    3    3    0  502  0.16031619534E+03 -0.41195016571E+03 -0.33457270519E+03  0.55438535025E+03  0.00000000000E+00 0.  1.
         11    1    5    5    0    0 -0.18106255090E+03  0.43036000581E+03 -0.68906652602E+03  0.83234972171E+03  0.00000000000E+00 0.  1.
        -11    1    5    5    0    0 -0.19384829612E+03  0.30592042677E+03 -0.61698877247E+03  0.71542967145E+03  0.00000000000E+00 0. -1.
          4    1    6    6  503    0  0.39000218356E+02 -0.10483917985E+02 -0.20827007491E+02  0.45438901936E+02  0.00000000000E+00 0. -1.
         -4    1    6    6    0  503  0.77500369588E+02 -0.18028016289E+03 -0.20367352355E+03  0.28282529698E+03  0.00000000000E+00 0.  1.
<mgrwt>
<rscale>  0 0.17277936E+04</rscale>
<asrwt>0</asrwt>
<pdfrwt beam="1">  1        2 0.35850482E+00 0.17277936E+04</pdfrwt>
<pdfrwt beam="2">  1       -1 0.49272210E-01 0.17277936E+04</pdfrwt>
<totfact> 0.19462226E+01</totfact>
</mgrwt>
</event>
<event>
12    6  0.1586493E-007  0.2653949E+04  0.7818608E-02  0.8350103E-01
         -1   -1    0    0    0  501 -0.00000000000E+00  0.00000000000E+00  0.15802251586E+04  0.15802251586E+04  0.00000000000E+00 0.  1.
          2   -1    0    0  501    0  0.00000000000E+00 -0.00000000000E+00 -0.11143104646E+04  0.11143104646E+04  0.00000000000E+00 0. -1.
         24    2    1    2    0    0  0.94031825635E+03  0.48888566447E+03 -0.29864218657E+03  0.11038890012E+04  0.78588518165E+02 0.  0.
        254    2    1    2    0    0 -0.94031825635E+03 -0.48888566447E+03  0.76455688055E+03  0.15906466221E+04  0.90686373651E+03 0.  0.
         23    2    4    4    0    0  0.12491235798E+03 -0.18960965386E+03  0.32383389142E+01  0.24451285517E+03  0.90670455445E+02 0.  0.
         23    2    4    4    0    0 -0.10652306143E+04 -0.29927601060E+03  0.76131854164E+03  0.13461337669E+04  0.90486487202E+02 0.  0.
          2    1    3    3  502    0  0.88161686750E+03  0.46770185764E+03 -0.26319063539E+03  0.10321156133E+04  0.00000000000E+00 0. -1.
         -1    1    3    3    0  502  0.58701388858E+02  0.21183806831E+02 -0.35451551178E+02  0.71773387872E+02  0.00000000000E+00 0.  1.
         11    1    5    5    0    0 -0.33380832820E+01 -0.49463392847E+02 -0.19318534685E+02  0.53206915098E+02  0.00000000000E+00 0. -1.
        -11    1    5    5    0    0  0.12825044126E+03 -0.14014626102E+03  0.22556873599E+02  0.19130594007E+03  0.00000000000E+00 0.  1.
          4    1    6    6  503    0 -0.81098103691E+03 -0.25199949276E+03  0.54586457861E+03  0.10095355986E+04  0.00000000000E+00 0.  1.
         -4    1    6    6    0  503 -0.25424957742E+03 -0.47276517844E+02  0.21545396303E+03  0.33659816836E+03  0.00000000000E+00 0. -1.
<mgrwt>
<rscale>  0 0.26539491E+04</rscale>
<asrwt>0</asrwt>
<pdfrwt beam="1">  1        2 0.17143238E+00 0.26539491E+04</pdfrwt>
<pdfrwt beam="2">  1       -1 0.24311156E+00 0.26539491E+04</pdfrwt>
<totfact> 0.16572111E+00</totfact>
</mgrwt>
</event>
<event>
12    6  0.1586493E-007  0.1446812E+04  0.7818608E-02  0.8920613E-01
          2   -1    0    0  501    0  0.00000000000E+00  0.00000000000E+00  0.13293599030E+04  0.13293599030E+04  0.00000000000E+00 0. -1.
         -1   -1    0    0    0  501 -0.00000000000E+00 -0.00000000000E+00 -0.39366055168E+03  0.39366055168E+03  0.00000000000E+00 0.  1.
         24    2    1    2    0    0  0.33393012309E+03  0.23342929733E+03  0.47513815076E+03  0.63100963075E+03  0.80114467091E+02 0.  0.
        254    2    1    2    0    0 -0.33393012309E+03 -0.23342929733E+03  0.46056120056E+03  0.10920108239E+04  0.90242587295E+03 0.  0.
         23    2    4    4    0    0 -0.48147497956E+03 -0.42641169085E+03  0.51309005173E+03  0.82729070932E+03  0.86622344163E+02 0.  0.
         23    2    4    4    0    0  0.14754485646E+03  0.19298239352E+03 -0.52528851167E+02  0.26472011462E+03  0.91135997287E+02 0.  0.
          4    1    3    3  502    0  0.29564212183E+03  0.17654142174E+03  0.36958331097E+03  0.50513657711E+03  0.00000000000E+00 0. -1.
         -3    1    3    3    0  502  0.38288001261E+02  0.56887875590E+02  0.10555483979E+03  0.12587305364E+03  0.00000000000E+00 0.  1.
         11    1    5    5    0    0 -0.45426217327E+03 -0.41291602188E+03  0.46379757168E+03  0.76939063595E+03  0.00000000000E+00 0.  1.
        -11    1    5    5    0    0 -0.27212806290E+02 -0.13495668971E+02  0.49292480047E+02  0.57900073371E+02  0.00000000000E+00 0. -1.
          1    1    6    6  503    0  0.41311127244E+01  0.31513984118E+02  0.19230226179E+02  0.37148336251E+02  0.00000000000E+00 0. -1.
         -1    1    6    6    0  503  0.14341374374E+03  0.16146840940E+03 -0.71759077346E+02  0.22757177837E+03  0.00000000000E+00 0.  1.
<mgrwt>
<rscale>  0 0.14468124E+04</rscale>
<asrwt>0</asrwt>
<pdfrwt beam="1">  1        2 0.20451691E+00 0.14468124E+04</pdfrwt>
<pdfrwt beam="2">  1       -1 0.60563163E-01 0.14468124E+04</pdfrwt>
<totfact> 0.48583829E+01</totfact>
</mgrwt>
</event>
<event>
12    6  0.1586493E-007  0.1516664E+04  0.7818608E-02  0.8873447E-01
         -1   -1    0    0    0  501 -0.00000000000E+00  0.00000000000E+00  0.52822535056E+03  0.52822535056E+03  0.00000000000E+00 0.  1.
          2   -1    0    0  501    0  0.00000000000E+00 -0.00000000000E+00 -0.10886778593E+04  0.10886778593E+04  0.00000000000E+00 0. -1.
         24    2    1    2    0    0 -0.23399341323E+03 -0.39828801273E+03 -0.36866638375E+02  0.47055019098E+03  0.81682768626E+02 0.  0.
        254    2    1    2    0    0  0.23399341323E+03  0.39828801273E+03 -0.52358587034E+03  0.11463530189E+04  0.90917370271E+03 0.  0.
         23    2    4    4    0    0  0.13572061951E+03 -0.24483739862E+03 -0.36751946482E+03  0.47070125362E+03  0.90131430745E+02 0.  0.
         23    2    4    4    0    0  0.98272793719E+02  0.64312541135E+03 -0.15606640552E+03  0.67565176524E+03  0.94237721943E+02 0.  0.
          2    1    3    3  502    0 -0.12493826895E+03 -0.28430940464E+03 -0.37465373229E+02  0.31280195460E+03  0.00000000000E+00 0. -1.
         -1    1    3    3    0  502 -0.10905514429E+03 -0.11397860809E+03  0.59873485404E+00  0.15774823638E+03  0.00000000000E+00 0.  1.
         11    1    5    5    0    0  0.45090921118E+02 -0.17186341620E+03 -0.21769101207E+03  0.28099751197E+03  0.00000000000E+00 0.  1.
        -11    1    5    5    0    0  0.90629698395E+02 -0.72973982419E+02 -0.14982845275E+03  0.18970374165E+03  0.00000000000E+00 0. -1.
          3    1    6    6  503    0 -0.62654290868E+01  0.95125372421E+02  0.35093028975E+01  0.95396054880E+02  0.00000000000E+00 0. -1.
         -3    1    6    6    0  503  0.10453822281E+03  0.54800003893E+03 -0.15957570842E+03  0.58025571036E+03  0.00000000000E+00 0.  1.
<mgrwt>
<rscale>  0 0.15166638E+04</rscale>
<asrwt>0</asrwt>
<pdfrwt beam="1">  1        2 0.16748890E+00 0.15166638E+04</pdfrwt>
<pdfrwt beam="2">  1       -1 0.81265438E-01 0.15166638E+04</pdfrwt>
<totfact> 0.36766630E+01</totfact>
</mgrwt>
</event>
<event>
12    6  0.1586493E-007  0.1222965E+04  0.7818608E-02  0.9092989E-01
         -1   -1    0    0    0  501 -0.00000000000E+00  0.00000000000E+00  0.11926810964E+03  0.11926810964E+03  0.00000000000E+00 0.  1.
          2   -1    0    0  501    0  0.00000000000E+00 -0.00000000000E+00 -0.31350452105E+04  0.31350452105E+04  0.00000000000E+00 0. -1.
         24    2    1    2    0    0 -0.13788354765E+03  0.13061515456E+02 -0.71772523580E+02  0.17521248595E+03  0.79784987255E+02 0.  0.
        254    2    1    2    0    0  0.13788354765E+03 -0.13061515456E+02 -0.29440045773E+04  0.30791008342E+04  0.89135656174E+03 0.  0.
         23    2    4    4    0    0  0.24603766918E+03  0.26828910325E+03 -0.55923022020E+03  0.67341306942E+03  0.90736681167E+02 0.  0.
         23    2    4    4    0    0 -0.10815412152E+03 -0.28135061871E+03 -0.23847743571E+04  0.24056877648E+04  0.96588833188E+02 0.  0.
          4    1    3    3  502    0 -0.68943768629E+01  0.24432955276E+02 -0.25079098952E+02  0.35685612509E+02  0.00000000000E+00 0. -1.
         -3    1    3    3    0  502 -0.13098917079E+03 -0.11371439820E+02 -0.46693424628E+02  0.13952687344E+03  0.00000000000E+00 0.  1.
         11    1    5    5    0    0  0.86669953385E+02  0.15055514561E+03 -0.21708896287E+03  0.27803983615E+03  0.00000000000E+00 0. -1.
        -11    1    5    5    0    0  0.15936771579E+03  0.11773395765E+03 -0.34214125733E+03  0.39537323327E+03  0.00000000000E+00 0.  1.
          3    1    6    6  503    0 -0.95253223005E+02 -0.28406432218E+03 -0.23370278294E+04  0.23561546620E+04  0.00000000000E+00 0. -1.
         -3    1    6    6    0  503 -0.12900898517E+02  0.27137034711E+01 -0.47746527688E+02  0.49533102824E+02  0.00000000000E+00 0.  1.
<mgrwt>
<rscale>  0 0.12229651E+04</rscale>
<asrwt>0</asrwt>
<pdfrwt beam="1">  1        2 0.48231460E+00 0.12229651E+04</pdfrwt>
<pdfrwt beam="2">  1       -1 0.18348942E-01 0.12229651E+04</pdfrwt>
<totfact> 0.38494182E+01</totfact>
</mgrwt>
</event>
<event>
12    6  0.1586493E-007  0.2316133E+04  0.7818608E-02  0.8471587E-01
         -1   -1    0    0    0  501 -0.00000000000E+00  0.00000000000E+00  0.40447362778E+03  0.40447362778E+03  0.00000000000E+00 0.  1.
          2   -1    0    0  501    0  0.00000000000E+00 -0.00000000000E+00 -0.33157111775E+04  0.33157111775E+04  0.00000000000E+00 0. -1.
         24    2    1    2    0    0  0.84444413954E+03  0.47384532175E+03 -0.14642518616E+04  0.17572244612E+04  0.78670191431E+02 0.  0.
        254    2    1    2    0    0 -0.84444413954E+03 -0.47384532175E+03 -0.14469856882E+04  0.19629603441E+04  0.90654864027E+03 0.  0.
         23    2    4    4    0    0 -0.72541587382E+03  0.70306694389E+01 -0.48672146202E+03  0.87860124914E+03  0.93620260064E+02 0.  0.
         23    2    4    4    0    0 -0.11902826572E+03 -0.48087599119E+03 -0.96026422614E+03  0.10843590950E+04  0.91202061177E+02 0.  0.
          4    1    3    3  502    0  0.83961731044E+03  0.46510210069E+03 -0.14575332350E+04  0.17451877616E+04  0.00000000000E+00 0. -1.
         -3    1    3    3    0  502  0.48268290952E+01  0.87432210572E+01 -0.67186265868E+01  0.12036699580E+02  0.00000000000E+00 0.  1.
         11    1    5    5    0    0 -0.21192456898E+03  0.71871373013E+01 -0.19473780415E+03  0.28790013936E+03  0.00000000000E+00 0. -1.
        -11    1    5    5    0    0 -0.51349130484E+03 -0.15646786237E+00 -0.29198365788E+03  0.59070110978E+03  0.00000000000E+00 0.  1.
          1    1    6    6  503    0 -0.38254814764E+02 -0.28417220993E+03 -0.47993738368E+03  0.55906812466E+03  0.00000000000E+00 0. -1.
         -1    1    6    6    0  503 -0.80773450955E+02 -0.19670378126E+03 -0.48032684245E+03  0.52529097034E+03  0.00000000000E+00 0.  1.
<mgrwt>
<rscale>  0 0.23161327E+04</rscale>
<asrwt>0</asrwt>
<pdfrwt beam="1">  1        2 0.51010941E+00 0.23161327E+04</pdfrwt>
<pdfrwt beam="2">  1       -1 0.62226712E-01 0.23161327E+04</pdfrwt>
<totfact> 0.29386145E+00</totfact>
</mgrwt>
</event>
<event>
12    6  0.1586493E-007  0.2555662E+04  0.7818608E-02  0.8383420E-01
         -1   -1    0    0    0  501 -0.00000000000E+00  0.00000000000E+00  0.51118333027E+03  0.51118333027E+03  0.00000000000E+00 0.  1.
          2   -1    0    0  501    0  0.00000000000E+00 -0.00000000000E+00 -0.31942590881E+04  0.31942590881E+04  0.00000000000E+00 0. -1.
         24    2    1    2    0    0 -0.21968186582E+03 -0.29777134149E+03  0.35083509190E+03  0.51606179473E+03  0.79414232253E+02 0.  0.
        254    2    1    2    0    0  0.21968186582E+03  0.29777134149E+03 -0.30339108497E+04  0.31893806236E+04  0.91137578662E+03 0.  0.
         23    2    4    4    0    0  0.52723859372E+02 -0.13680383633E+03 -0.23539807505E+04  0.23602817795E+04  0.90606897662E+02 0.  0.
         23    2    4    4    0    0  0.16695800645E+03  0.43457517782E+03 -0.67993009921E+03  0.82909884414E+03  0.91484383636E+02 0.  0.
          2    1    3    3  502    0 -0.14860378424E+03 -0.19509310397E+03  0.28105099416E+03  0.37300678978E+03  0.00000000000E+00 0. -1.
         -1    1    3    3    0  502 -0.71078081578E+02 -0.10267823753E+03  0.69784097741E+02  0.14305500495E+03  0.00000000000E+00 0.  1.
         11    1    5    5    0    0  0.54022282453E+02 -0.77176724001E+02 -0.86651912208E+03  0.87162494380E+03  0.00000000000E+00 0.  1.
        -11    1    5    5    0    0 -0.12984230808E+01 -0.59627112324E+02 -0.14874616284E+04  0.14886568357E+04  0.00000000000E+00 0. -1.
          4    1    6    6  503    0  0.11894381640E+03  0.20140116187E+03 -0.29467577622E+03  0.37622316855E+03  0.00000000000E+00 0. -1.
         -4    1    6    6    0  503  0.48014190049E+02  0.23317401595E+03 -0.38525432298E+03  0.45287567559E+03  0.00000000000E+00 0.  1.
<mgrwt>
<rscale>  0 0.25556619E+04</rscale>
<asrwt>0</asrwt>
<pdfrwt beam="1">  1        2 0.49142446E+00 0.25556619E+04</pdfrwt>
<pdfrwt beam="2">  1       -1 0.78643591E-01 0.25556619E+04</pdfrwt>
<totfact> 0.21367093E+00</totfact>
</mgrwt>
</event>
<event>
12    6  0.1586493E-007  0.2329944E+04  0.7818608E-02  0.8466207E-01
         -1   -1    0    0    0  501 -0.00000000000E+00  0.00000000000E+00  0.94165911970E+03  0.94165911970E+03  0.00000000000E+00 0.  1.
          2   -1    0    0  501    0  0.00000000000E+00 -0.00000000000E+00 -0.14412429030E+04  0.14412429030E+04  0.00000000000E+00 0. -1.
         24    2    1    2    0    0 -0.94916471479E+03  0.22677302700E+03 -0.39353648902E+02  0.98005455916E+03  0.81354579860E+02 0.  0.
        254    2    1    2    0    0  0.94916471479E+03 -0.22677302700E+03 -0.46023013437E+03  0.14028474635E+04  0.89656542859E+03 0.  0.
         23    2    4    4    0    0 -0.67810560620E+02  0.16714307409E+03  0.27702168584E+02  0.20427104056E+03  0.91783269277E+02 0.  0.
         23    2    4    4    0    0  0.10169752754E+04 -0.39391610109E+03 -0.48793230295E+03  0.11985764230E+04  0.95388174826E+02 0.  0.
          2    1    3    3  502    0 -0.43647113502E+03  0.80508623920E+02  0.15400611433E+02  0.44410119237E+03  0.00000000000E+00 0. -1.
         -1    1    3    3    0  502 -0.51269357977E+03  0.14626440308E+03 -0.54754260335E+02  0.53595336679E+03  0.00000000000E+00 0.  1.
         11    1    5    5    0    0 -0.24714656161E+02  0.14138640953E+03  0.46174023571E+02  0.15077457173E+03  0.00000000000E+00 0. -1.
        -11    1    5    5    0    0 -0.43095904459E+02  0.25756664567E+02 -0.18471854987E+02  0.53496468831E+02  0.00000000000E+00 0.  1.
          1    1    6    6  503    0  0.72699152209E+03 -0.30733605506E+03 -0.31345837282E+03  0.84925159724E+03  0.00000000000E+00 0. -1.
         -1    1    6    6    0  503  0.28998375333E+03 -0.86580046039E+02 -0.17447393013E+03  0.34932482571E+03  0.00000000000E+00 0.  1.
<mgrwt>
<rscale>  0 0.23299438E+04</rscale>
<asrwt>0</asrwt>
<pdfrwt beam="1">  1        2 0.22172968E+00 0.23299438E+04</pdfrwt>
<pdfrwt beam="2">  1       -1 0.14487063E+00 0.23299438E+04</pdfrwt>
<totfact> 0.54090527E+00</totfact>
</mgrwt>
</event>
<event>
12    6  0.1586493E-007  0.1886524E+04  0.7818608E-02  0.8661594E-01
          2   -1    0    0  501    0  0.00000000000E+00  0.00000000000E+00  0.18364394727E+04  0.18364394727E+04  0.00000000000E+00 0. -1.
         -1   -1    0    0    0  501 -0.00000000000E+00 -0.00000000000E+00 -0.48449347003E+03  0.48449347003E+03  0.00000000000E+00 0.  1.
         24    2    1    2    0    0  0.51681872568E+02  0.48326510246E+02 -0.36211781318E+03  0.37733864354E+03  0.79048553052E+02 0.  0.
        254    2    1    2    0    0 -0.51681872568E+02 -0.48326510246E+02  0.17140638159E+04  0.19435942992E+04  0.91353027732E+03 0.  0.
         23    2    4    4    0    0 -0.35621969444E+03  0.19360385517E+03  0.13138621049E+04  0.13782358762E+04  0.94475267527E+02 0.  0.
         23    2    4    4    0    0  0.30453782187E+03 -0.24193036541E+03  0.40020171098E+03  0.56535842309E+03  0.90527070129E+02 0.  0.
          4    1    3    3  502    0 -0.19193793907E+02  0.15946383892E+02 -0.53463823644E+02  0.59000587475E+02  0.00000000000E+00 0. -1.
         -3    1    3    3    0  502  0.70875666475E+02  0.32380126354E+02 -0.30865398953E+03  0.31833805606E+03  0.00000000000E+00 0.  1.
         11    1    5    5    0    0 -0.28932205691E+03  0.19448051464E+03  0.11316712580E+04  0.11841493822E+04  0.00000000000E+00 0. -1.
        -11    1    5    5    0    0 -0.66897637525E+02 -0.87665947097E+00  0.18219084690E+03  0.19408649395E+03  0.00000000000E+00 0.  1.
          2    1    6    6  503    0  0.16920975605E+03 -0.12933896788E+03  0.28168979784E+03  0.35314253831E+03  0.00000000000E+00 0.  1.
         -2    1    6    6    0  503  0.13532806582E+03 -0.11259139753E+03  0.11851191314E+03  0.21221588478E+03  0.00000000000E+00 0. -1.
<mgrwt>
<rscale>  0 0.18865237E+04</rscale>
<asrwt>0</asrwt>
<pdfrwt beam="1">  1        2 0.28252915E+00 0.18865237E+04</pdfrwt>
<pdfrwt beam="2">  1       -1 0.74537457E-01 0.18865237E+04</pdfrwt>
<totfact> 0.15927178E+01</totfact>
</mgrwt>
</event>
<event>
12    6  0.1586493E-007  0.1547753E+04  0.7818608E-02  0.8853305E-01
         -1   -1    0    0    0  501 -0.00000000000E+00  0.00000000000E+00  0.57498465327E+03  0.57498465327E+03  0.00000000000E+00 0.  1.
          2   -1    0    0  501    0  0.00000000000E+00 -0.00000000000E+00 -0.10415660426E+04  0.10415660426E+04  0.00000000000E+00 0. -1.
         24    2    1    2    0    0 -0.91137186463E+02  0.47709590216E+03  0.17084180300E+02  0.49260366372E+03  0.80249695835E+02 0.  0.
        254    2    1    2    0    0  0.91137186463E+02 -0.47709590216E+03 -0.48366556960E+03  0.11239470321E+04  0.89072894935E+03 0.  0.
         23    2    4    4    0    0  0.47634572695E+03 -0.35191429711E+03 -0.29348691281E+03  0.66708814497E+03  0.90128247917E+02 0.  0.
         23    2    4    4    0    0 -0.38520854048E+03 -0.12518160505E+03 -0.19017865678E+03  0.45685888716E+03  0.92174114468E+02 0.  0.
          4    1    3    3  502    0  0.75595581811E+01  0.12384076684E+03 -0.12105034691E+02  0.12466039594E+03  0.00000000000E+00 0. -1.
         -3    1    3    3    0  502 -0.98696744644E+02  0.35325513532E+03  0.29189214991E+02  0.36794326778E+03  0.00000000000E+00 0.  1.
         11    1    5    5    0    0  0.14806706390E+03 -0.16327244313E+03 -0.11105919908E+03  0.24681144989E+03  0.00000000000E+00 0.  1.
        -11    1    5    5    0    0  0.32827866305E+03 -0.18864185398E+03 -0.18242771373E+03  0.42027669508E+03  0.00000000000E+00 0. -1.
          1    1    6    6  503    0 -0.24741382208E+03 -0.11213114086E+03 -0.15979118354E+03  0.31515109780E+03  0.00000000000E+00 0. -1.
         -1    1    6    6    0  503 -0.13779471840E+03 -0.13050464188E+02 -0.30387473240E+02  0.14170778936E+03  0.00000000000E+00 0.  1.
<mgrwt>
<rscale>  0 0.15477526E+04</rscale>
<asrwt>0</asrwt>
<pdfrwt beam="1">  1        2 0.16024093E+00 0.15477526E+04</pdfrwt>
<pdfrwt beam="2">  1       -1 0.88459178E-01 0.15477526E+04</pdfrwt>
<totfact> 0.32664315E+01</totfact>
</mgrwt>
</event>
<event>
12    6  0.1586493E-007  0.2642804E+04  0.7818608E-02  0.8353805E-01
         -1   -1    0    0    0  501 -0.00000000000E+00  0.00000000000E+00  0.72243850352E+03  0.72243850352E+03  0.00000000000E+00 0.  1.
          2   -1    0    0  501    0  0.00000000000E+00 -0.00000000000E+00 -0.24169582626E+04  0.24169582626E+04  0.00000000000E+00 0. -1.
         24    2    1    2    0    0  0.69811454597E+03  0.56443215887E+03  0.12065081435E+03  0.90931611834E+03  0.79696943507E+02 0.  0.
        254    2    1    2    0    0 -0.69811454597E+03 -0.56443215887E+03 -0.18151705735E+04  0.22300806478E+04  0.93405990372E+03 0.  0.
         23    2    4    4    0    0 -0.37921999705E+03  0.21516705023E+03 -0.55546944112E+03  0.71205471863E+03  0.91492932193E+02 0.  0.
         23    2    4    4    0    0 -0.31889454892E+03 -0.77959920910E+03 -0.12597011324E+04  0.15180259292E+04  0.89928408708E+02 0.  0.
          4    1    3    3  502    0  0.10754017918E+03  0.12614228400E+03  0.26665167076E+02  0.16789221866E+03  0.00000000000E+00 0. -1.
         -3    1    3    3    0  502  0.59057436679E+03  0.43828987487E+03  0.93985647274E+02  0.74142389968E+03  0.00000000000E+00 0.  1.
         11    1    5    5    0    0 -0.13905348394E+01  0.42055187216E+00  0.36323558054E+01  0.39120914757E+01  0.00000000000E+00 0. -1.
        -11    1    5    5    0    0 -0.37782946221E+03  0.21474649836E+03 -0.55910179692E+03  0.70814262716E+03  0.00000000000E+00 0.  1.
          1    1    6    6  503    0 -0.49877796926E+02 -0.11632944994E+03 -0.25200138638E+03  0.28200183383E+03  0.00000000000E+00 0. -1.
         -1    1    6    6    0  503 -0.26901675200E+03 -0.66326975916E+03 -0.10076997460E+04  0.12360240954E+04  0.00000000000E+00 0.  1.
<mgrwt>
<rscale>  0 0.26428044E+04</rscale>
<asrwt>0</asrwt>
<pdfrwt beam="1">  1        2 0.37183972E+00 0.26428044E+04</pdfrwt>
<pdfrwt beam="2">  1       -1 0.11114439E+00 0.26428044E+04</pdfrwt>
<totfact> 0.29009812E+00</totfact>
</mgrwt>
</event>
<event>
12    6  0.1586493E-007  0.3644854E+04  0.7818608E-02  0.8080294E-01
          2   -1    0    0  501    0  0.00000000000E+00  0.00000000000E+00  0.29321885956E+04  0.29321885956E+04  0.00000000000E+00 0. -1.
         -1   -1    0    0    0  501 -0.00000000000E+00 -0.00000000000E+00 -0.11326831442E+04  0.11326831442E+04  0.00000000000E+00 0.  1.
         24    2    1    2    0    0 -0.10482383872E+04  0.12838748875E+04  0.37714389471E+03  0.17016416705E+04  0.78793491182E+02 0.  0.
        254    2    1    2    0    0  0.10482383872E+04 -0.12838748875E+04  0.14223615567E+04  0.23632300694E+04  0.90255499534E+03 0.  0.
         23    2    4    4    0    0  0.82721612285E+03 -0.11844104556E+04  0.72227202971E+03  0.16177541493E+04  0.91306963872E+02 0.  0.
         23    2    4    4    0    0  0.22102226431E+03 -0.99464432000E+02  0.70008952699E+03  0.74547592004E+03  0.82855217142E+02 0.  0.
          4    1    3    3  502    0 -0.62126343779E+03  0.73149055135E+03  0.18323466147E+03  0.97704740264E+03  0.00000000000E+00 0. -1.
         -3    1    3    3    0  502 -0.42697494938E+03  0.55238433620E+03  0.19390923324E+03  0.72459426786E+03  0.00000000000E+00 0.  1.
         11    1    5    5    0    0  0.43607500637E+03 -0.62102733588E+03  0.32839767093E+03  0.82685028473E+03  0.00000000000E+00 0. -1.
        -11    1    5    5    0    0  0.39114111649E+03 -0.56338311967E+03  0.39387435877E+03  0.79090386460E+03  0.00000000000E+00 0.  1.
          1    1    6    6  503    0  0.12804930941E+03 -0.15550589727E+02  0.40056621657E+03  0.42082269466E+03  0.00000000000E+00 0. -1.
         -1    1    6    6    0  503  0.92972954907E+02 -0.83913842273E+02  0.29952331041E+03  0.32465322538E+03  0.00000000000E+00 0.  1.
<mgrwt>
<rscale>  0 0.36448542E+04</rscale>
<asrwt>0</asrwt>
<pdfrwt beam="1">  1        2 0.45110594E+00 0.36448542E+04</pdfrwt>
<pdfrwt beam="2">  1       -1 0.17425895E+00 0.36448542E+04</pdfrwt>
<totfact> 0.40510942E-01</totfact>
</mgrwt>
</event>
<event>
12    6  0.1586493E-007  0.1734323E+04  0.7818608E-02  0.8742027E-01
          2   -1    0    0  501    0  0.00000000000E+00  0.00000000000E+00  0.16512849403E+04  0.16512849403E+04  0.00000000000E+00 0. -1.
         -1   -1    0    0    0  501 -0.00000000000E+00 -0.00000000000E+00 -0.45538432063E+03  0.45538432063E+03  0.00000000000E+00 0.  1.
         24    2    1    2    0    0 -0.21518951706E+03  0.22758186029E+03 -0.22747258622E+03  0.39514067120E+03  0.79324278561E+02 0.  0.
        254    2    1    2    0    0  0.21518951706E+03 -0.22758186029E+03  0.14233732059E+04  0.17115285898E+04  0.89735098979E+03 0.  0.
         23    2    4    4    0    0 -0.11655921055E+03 -0.41099040909E+03  0.32029447642E+03  0.54165254014E+03  0.91103000436E+02 0.  0.
         23    2    4    4    0    0  0.33174872761E+03  0.18340854881E+03  0.11030787295E+04  0.11698760496E+04  0.90174131308E+02 0.  0.
          4    1    3    3  502    0 -0.17299179377E+02  0.19682280703E+02 -0.53329497947E+02  0.59419602254E+02  0.00000000000E+00 0. -1.
         -3    1    3    3    0  502 -0.19789033768E+03  0.20789957959E+03 -0.17414308827E+03  0.33572106894E+03  0.00000000000E+00 0.  1.
         11    1    5    5    0    0 -0.11809446393E+03 -0.38770539710E+03  0.27225844906E+03  0.48824833890E+03  0.00000000000E+00 0.  1.
        -11    1    5    5    0    0  0.15352533809E+01 -0.23285011994E+02  0.48036027353E+02  0.53404201243E+02  0.00000000000E+00 0. -1.
          2    1    6    6  503    0  0.14440422458E+03  0.13130706169E+03  0.55827978634E+03  0.59141393657E+03  0.00000000000E+00 0.  1.
         -2    1    6    6    0  503  0.18734450303E+03  0.52101487116E+02  0.54479894316E+03  0.57846211306E+03  0.00000000000E+00 0. -1.
<mgrwt>
<rscale>  0 0.17343232E+04</rscale>
<asrwt>0</asrwt>
<pdfrwt beam="1">  1        2 0.25404383E+00 0.17343232E+04</pdfrwt>
<pdfrwt beam="2">  1       -1 0.70059127E-01 0.17343232E+04</pdfrwt>
<totfact> 0.23244935E+01</totfact>
</mgrwt>
</event>
<event>
12    6  0.1586493E-007  0.1360899E+04  0.7818608E-02  0.8982618E-01
         -1   -1    0    0    0  501 -0.00000000000E+00  0.00000000000E+00  0.38037719769E+03  0.38037719769E+03  0.00000000000E+00 0.  1.
          2   -1    0    0  501    0  0.00000000000E+00 -0.00000000000E+00 -0.12172433061E+04  0.12172433061E+04  0.00000000000E+00 0. -1.
         24    2    1    2    0    0  0.14646455493E+03 -0.32630384157E+03 -0.10784095385E+03  0.38383019266E+03  0.88146937503E+02 0.  0.
        254    2    1    2    0    0 -0.14646455493E+03  0.32630384157E+03 -0.72902515461E+03  0.12137903112E+04  0.90215474315E+03 0.  0.
         23    2    4    4    0    0  0.43650029548E+01 -0.10961558428E+03 -0.72913018785E+03  0.74325031082E+03  0.93571171492E+02 0.  0.
         23    2    4    4    0    0 -0.15082955789E+03  0.43591942585E+03  0.10503324415E+00  0.47054000036E+03  0.92911675998E+02 0.  0.
          4    1    3    3  502    0  0.70996560939E+02 -0.14489761750E+03 -0.94288187645E+02  0.18688524166E+03  0.00000000000E+00 0. -1.
         -3    1    3    3    0  502  0.75467993993E+02 -0.18140622407E+03 -0.13552766202E+02  0.19694495099E+03  0.00000000000E+00 0.  1.
         11    1    5    5    0    0  0.13145072426E+02 -0.12516583748E+03 -0.65671432488E+03  0.66866507633E+03  0.00000000000E+00 0.  1.
        -11    1    5    5    0    0 -0.87800694708E+01  0.15550253199E+02 -0.72415862970E+02  0.74585234491E+02  0.00000000000E+00 0. -1.
          1    1    6    6  503    0 -0.48364896018E+01  0.13957010920E+02 -0.18468952988E+02  0.23649355381E+02  0.00000000000E+00 0. -1.
         -1    1    6    6    0  503 -0.14599306828E+03  0.42196241493E+03  0.18573986232E+02  0.44689064498E+03  0.00000000000E+00 0.  1.
<mgrwt>
<rscale>  0 0.13608991E+04</rscale>
<asrwt>0</asrwt>
<pdfrwt beam="1">  1        2 0.18726820E+00 0.13608991E+04</pdfrwt>
<pdfrwt beam="2">  1       -1 0.58519569E-01 0.13608991E+04</pdfrwt>
<totfact> 0.60905564E+01</totfact>
</mgrwt>
</event>
<event>
12    6  0.1586493E-007  0.4063805E+04  0.7818608E-02  0.7991797E-01
         -1   -1    0    0    0  501 -0.00000000000E+00  0.00000000000E+00  0.11840312975E+04  0.11840312975E+04  0.00000000000E+00 0.  1.
          2   -1    0    0  501    0  0.00000000000E+00 -0.00000000000E+00 -0.34869245091E+04  0.34869245091E+04  0.00000000000E+00 0. -1.
         24    2    1    2    0    0 -0.64603454818E+02 -0.16456135758E+03  0.11141194975E+04  0.11308891199E+04  0.79961866497E+02 0.  0.
        254    2    1    2    0    0  0.64603454818E+02  0.16456135758E+03 -0.34170127091E+04  0.35400666867E+04  0.90820826082E+03 0.  0.
         23    2    4    4    0    0  0.19976239634E+03  0.48470510002E+03 -0.15497297496E+04  0.16385217875E+04  0.90814660242E+02 0.  0.
         23    2    4    4    0    0 -0.13515894153E+03 -0.32014374244E+03 -0.18672829596E+04  0.19015448992E+04  0.91473477855E+02 0.  0.
          2    1    3    3  502    0  0.11714616301E+02  0.91769038306E+00  0.61594117311E+02  0.62704941417E+02  0.00000000000E+00 0. -1.
         -1    1    3    3    0  502 -0.76318071120E+02 -0.16547904797E+03  0.10525253802E+04  0.10681841785E+04  0.00000000000E+00 0.  1.
         11    1    5    5    0    0  0.15111220045E+03  0.25607602855E+03 -0.81802203418E+03  0.87038490217E+03  0.00000000000E+00 0. -1.
        -11    1    5    5    0    0  0.48650195896E+02  0.22862907147E+03 -0.73170771537E+03  0.76813688534E+03  0.00000000000E+00 0.  1.
          2    1    6    6  503    0 -0.11903824800E+03 -0.27848740365E+03 -0.17505931421E+04  0.17765983473E+04  0.00000000000E+00 0. -1.
         -2    1    6    6    0  503 -0.16120693530E+02 -0.41656338791E+02 -0.11668981748E+03  0.12494655187E+03  0.00000000000E+00 0.  1.
<mgrwt>
<rscale>  0 0.40638050E+04</rscale>
<asrwt>0</asrwt>
<pdfrwt beam="1">  1        2 0.53644992E+00 0.40638050E+04</pdfrwt>
<pdfrwt beam="2">  1       -1 0.18215866E+00 0.40638050E+04</pdfrwt>
<totfact> 0.14825233E-01</totfact>
</mgrwt>
</event>
<event>
12    6  0.1586493E-007  0.1182066E+04  0.7818608E-02  0.9128701E-01
         -1   -1    0    0    0  501 -0.00000000000E+00  0.00000000000E+00  0.10148208818E+03  0.10148208818E+03  0.00000000000E+00 0.  1.
          2   -1    0    0  501    0  0.00000000000E+00 -0.00000000000E+00 -0.34421814699E+04  0.34421814699E+04  0.00000000000E+00 0. -1.
         24    2    1    2    0    0 -0.14831800568E+03 -0.76570617631E+02 -0.10298541051E+04  0.10463734011E+04  0.80227966350E+02 0.  0.
        254    2    1    2    0    0  0.14831800568E+03  0.76570617631E+02 -0.23108452766E+04  0.24972901569E+04  0.93198226649E+03 0.  0.
         23    2    4    4    0    0  0.25116336604E+03 -0.21356456539E+03 -0.28036219967E+03  0.44157566102E+03  0.87711124574E+02 0.  0.
         23    2    4    4    0    0 -0.10284536036E+03  0.29013518302E+03 -0.20304830770E+04  0.20557144959E+04  0.91350808674E+02 0.  0.
          4    1    3    3  502    0 -0.12564324969E+03 -0.69649433143E+02 -0.98699076598E+03  0.99739061649E+03  0.00000000000E+00 0. -1.
         -3    1    3    3    0  502 -0.22674755986E+02 -0.69211844879E+01 -0.42863339072E+02  0.48982784631E+02  0.00000000000E+00 0.  1.
         11    1    5    5    0    0  0.20671812192E+03 -0.13276685860E+03 -0.17545506866E+03  0.30190048326E+03  0.00000000000E+00 0. -1.
        -11    1    5    5    0    0  0.44445244120E+02 -0.80797706789E+02 -0.10490713100E+03  0.13967517776E+03  0.00000000000E+00 0.  1.
          3    1    6    6  503    0 -0.90174515293E+02  0.22205643426E+03 -0.17712778991E+04  0.17874187811E+04  0.00000000000E+00 0. -1.
         -3    1    6    6    0  503 -0.12670845071E+02  0.68078748758E+02 -0.25920517792E+03  0.26829571486E+03  0.00000000000E+00 0.  1.
<mgrwt>
<rscale>  0 0.11820656E+04</rscale>
<asrwt>0</asrwt>
<pdfrwt beam="1">  1        2 0.52956643E+00 0.11820656E+04</pdfrwt>
<pdfrwt beam="2">  1       -1 0.15612627E-01 0.11820656E+04</pdfrwt>
<totfact> 0.31719706E+01</totfact>
</mgrwt>
</event>
<event>
12    6  0.1586493E-007  0.2490453E+04  0.7818608E-02  0.8406394E-01
          2   -1    0    0  501    0  0.00000000000E+00  0.00000000000E+00  0.15403440362E+04  0.15403440362E+04  0.00000000000E+00 0. -1.
         -1   -1    0    0    0  501 -0.00000000000E+00 -0.00000000000E+00 -0.10066514481E+04  0.10066514481E+04  0.00000000000E+00 0.  1.
         24    2    1    2    0    0  0.53086231076E+03 -0.74244203068E+02 -0.72226440895E+03  0.90294014469E+03  0.79423131335E+02 0.  0.
        254    2    1    2    0    0 -0.53086231076E+03  0.74244203068E+02  0.12559569970E+04  0.16440553396E+04  0.91551241747E+03 0.  0.
         23    2    4    4    0    0 -0.50513625859E+03  0.38933112063E+03  0.11114344445E+04  0.12846424915E+04  0.90985961559E+02 0.  0.
         23    2    4    4    0    0 -0.25726052176E+02 -0.31508691757E+03  0.14452255246E+03  0.35941284806E+03  0.91374130924E+02 0.  0.
          4    1    3    3  502    0  0.26773976017E+03 -0.61701372087E+02 -0.42130832649E+03  0.50298344353E+03  0.00000000000E+00 0. -1.
         -3    1    3    3    0  502  0.26312255059E+03 -0.12542830981E+02 -0.30095608245E+03  0.39995670117E+03  0.00000000000E+00 0.  1.
         11    1    5    5    0    0 -0.56845678077E+02  0.39926040674E+02  0.18666548646E+03  0.19917209562E+03  0.00000000000E+00 0.  1.
        -11    1    5    5    0    0 -0.44829058051E+03  0.34940507996E+03  0.92476895809E+03  0.10854703959E+04  0.00000000000E+00 0. -1.
          1    1    6    6  503    0 -0.27844483847E+02 -0.28010761377E+03  0.15688191377E+03  0.32225382145E+03  0.00000000000E+00 0. -1.
         -1    1    6    6    0  503  0.21184316712E+01 -0.34979303793E+02 -0.12359361309E+02  0.37159026609E+02  0.00000000000E+00 0.  1.
<mgrwt>
<rscale>  0 0.24904534E+04</rscale>
<asrwt>0</asrwt>
<pdfrwt beam="1">  1        2 0.23697601E+00 0.24904534E+04</pdfrwt>
<pdfrwt beam="2">  1       -1 0.15486945E+00 0.24904534E+04</pdfrwt>
<totfact> 0.39170149E+00</totfact>
</mgrwt>
</event>
<event>
12    6  0.1586493E-007  0.1180063E+04  0.7818608E-02  0.9130488E-01
          2   -1    0    0  501    0  0.00000000000E+00  0.00000000000E+00  0.10211108060E+04  0.10211108060E+04  0.00000000000E+00 0. -1.
         -1   -1    0    0    0  501 -0.00000000000E+00 -0.00000000000E+00 -0.34093992330E+03  0.34093992330E+03  0.00000000000E+00 0.  1.
         24    2    1    2    0    0  0.12622515222E+03  0.11948833065E+03 -0.44179263720E+02  0.19580549056E+03  0.78598553264E+02 0.  0.
        254    2    1    2    0    0 -0.12622515222E+03 -0.11948833065E+03  0.72435014639E+03  0.11662452387E+04  0.89734863460E+03 0.  0.
         23    2    4    4    0    0 -0.43984972572E+03 -0.28145630841E+03  0.53692881053E+03  0.75533246419E+03  0.97719747889E+02 0.  0.
         23    2    4    4    0    0  0.31362457350E+03  0.16196797776E+03  0.18742133586E+03  0.41091277451E+03  0.95543457098E+02 0.  0.
          4    1    3    3  502    0  0.73847703815E+02  0.22445152878E+02 -0.36172821960E+02  0.85239317777E+02  0.00000000000E+00 0. -1.
         -3    1    3    3    0  502  0.52377448402E+02  0.97043177776E+02 -0.80064417603E+01  0.11056617278E+03  0.00000000000E+00 0.  1.
         11    1    5    5    0    0 -0.25461003352E+02  0.64425626623E+01  0.20472982873E+02  0.33300335329E+02  0.00000000000E+00 0. -1.
        -11    1    5    5    0    0 -0.41438872237E+03 -0.28789887108E+03  0.51645582766E+03  0.72203212887E+03  0.00000000000E+00 0.  1.
          1    1    6    6  503    0  0.55061793629E+02 -0.88437714534E+01  0.30291414501E+02  0.63463242934E+02  0.00000000000E+00 0. -1.
         -1    1    6    6    0  503  0.25856277987E+03  0.17081174921E+03  0.15712992136E+03  0.34744953158E+03  0.00000000000E+00 0.  1.
<mgrwt>
<rscale>  0 0.11800635E+04</rscale>
<asrwt>0</asrwt>
<pdfrwt beam="1">  1        2 0.15709397E+00 0.11800635E+04</pdfrwt>
<pdfrwt beam="2">  1       -1 0.52452296E-01 0.11800635E+04</pdfrwt>
<totfact> 0.10073723E+02</totfact>
</mgrwt>
</event>
<event>
12    6  0.1586493E-007  0.1444421E+04  0.7818608E-02  0.8922278E-01
         -1   -1    0    0    0  501 -0.00000000000E+00  0.00000000000E+00  0.59335090655E+03  0.59335090655E+03  0.00000000000E+00 0.  1.
          2   -1    0    0  501    0  0.00000000000E+00 -0.00000000000E+00 -0.87905451789E+03  0.87905451789E+03  0.00000000000E+00 0. -1.
         24    2    1    2    0    0 -0.35696131693E+02  0.84353732312E+02  0.35241990991E+03  0.37295566855E+03  0.80662084209E+02 0.  0.
        254    2    1    2    0    0  0.35696131693E+02 -0.84353732312E+02 -0.63812352125E+03  0.10994497559E+04  0.89061684881E+03 0.  0.
         23    2    4    4    0    0 -0.65851856282E+02 -0.43189095201E+03 -0.56528632681E+03  0.72029799671E+03  0.91729555666E+02 0.  0.
         23    2    4    4    0    0  0.10154798797E+03  0.34753721970E+03 -0.72837194444E+02  0.37915175918E+03  0.85771129521E+02 0.  0.
          2    1    3    3  502    0  0.14437737366E+01  0.76752222707E+01 -0.23046072668E+01  0.81427718967E+01  0.00000000000E+00 0. -1.
         -1    1    3    3    0  502 -0.37139905429E+02  0.76678510041E+02  0.35472451718E+03  0.36481289665E+03  0.00000000000E+00 0.  1.
         11    1    5    5    0    0 -0.46018713231E+02 -0.40626556663E+03 -0.48896291857E+03  0.63738070910E+03  0.00000000000E+00 0. -1.
        -11    1    5    5    0    0 -0.19833143051E+02 -0.25625385380E+02 -0.76323408244E+02  0.82917287613E+02  0.00000000000E+00 0.  1.
          1    1    6    6  503    0  0.10194001165E+03  0.35176097653E+03 -0.67614626433E+02  0.37242353349E+03  0.00000000000E+00 0. -1.
         -1    1    6    6    0  503 -0.39202367569E+00 -0.42237568360E+01 -0.52225680109E+01  0.67282256948E+01  0.00000000000E+00 0.  1.
<mgrwt>
<rscale>  0 0.14444207E+04</rscale>
<asrwt>0</asrwt>
<pdfrwt beam="1">  1        2 0.13523916E+00 0.14444207E+04</pdfrwt>
<pdfrwt beam="2">  1       -1 0.91284755E-01 0.14444207E+04</pdfrwt>
<totfact> 0.39292571E+01</totfact>
</mgrwt>
</event>
<event>
12    6  0.1586493E-007  0.1467070E+04  0.7818608E-02  0.8906651E-01
          2   -1    0    0  501    0  0.00000000000E+00  0.00000000000E+00  0.22214085383E+04  0.22214085383E+04  0.00000000000E+00 0. -1.
         -1   -1    0    0    0  501 -0.00000000000E+00 -0.00000000000E+00 -0.24222196839E+03  0.24222196839E+03  0.00000000000E+00 0.  1.
         24    2    1    2    0    0  0.44453841575E+03 -0.79925895234E+02  0.59689934477E+03  0.75213460720E+03  0.73587279792E+02 0.  0.
        254    2    1    2    0    0 -0.44453841575E+03  0.79925895234E+02  0.13822872251E+04  0.17114958995E+04  0.90249525726E+03 0.  0.
         23    2    4    4    0    0 -0.12173477875E+03  0.43077700652E+03  0.98017291562E+03  0.10812756596E+04  0.89609830631E+02 0.  0.
         23    2    4    4    0    0 -0.32280363699E+03 -0.35085111128E+03  0.40211430952E+03  0.63022023993E+03  0.90459618327E+02 0.  0.
          2    1    3    3  502    0  0.28494191444E+03 -0.68449247065E+02  0.43504676839E+03  0.52454064162E+03  0.00000000000E+00 0. -1.
         -1    1    3    3    0  502  0.15959650131E+03 -0.11476648169E+02  0.16185257638E+03  0.22759396557E+03  0.00000000000E+00 0.  1.
         11    1    5    5    0    0 -0.36876055841E+02  0.53593130036E+02  0.92707477949E+02  0.11325521423E+03  0.00000000000E+00 0. -1.
        -11    1    5    5    0    0 -0.84858722912E+02  0.37718387648E+03  0.88746543767E+03  0.96802044534E+03  0.00000000000E+00 0.  1.
          1    1    6    6  503    0 -0.69862090466E+02 -0.91759987119E+02  0.14907325424E+03  0.18847663529E+03  0.00000000000E+00 0. -1.
         -1    1    6    6    0  503 -0.25294154653E+03 -0.25909112416E+03  0.25304105528E+03  0.44174360464E+03  0.00000000000E+00 0.  1.
<mgrwt>
<rscale>  0 0.14670705E+04</rscale>
<asrwt>0</asrwt>
<pdfrwt beam="1">  1        2 0.34175515E+00 0.14670705E+04</pdfrwt>
<pdfrwt beam="2">  1       -1 0.37264920E-01 0.14670705E+04</pdfrwt>
<totfact> 0.38447207E+01</totfact>
</mgrwt>
</event>
<event>
12    6  0.1586493E-007  0.1402985E+04  0.7818608E-02  0.8951661E-01
          2   -1    0    0  501    0  0.00000000000E+00  0.00000000000E+00  0.21166170144E+04  0.21166170144E+04  0.00000000000E+00 0. -1.
         -1   -1    0    0    0  501 -0.00000000000E+00 -0.00000000000E+00 -0.23248958843E+03  0.23248958843E+03  0.00000000000E+00 0.  1.
         24    2    1    2    0    0  0.22604864581E+01 -0.38677704626E+03  0.72350118178E+03  0.82428013321E+03  0.79888576505E+02 0.  0.
        254    2    1    2    0    0 -0.22604864581E+01  0.38677704626E+03  0.11606262442E+04  0.15248264696E+04  0.91018728315E+03 0.  0.
         23    2    4    4    0    0 -0.17211634174E+03  0.48328082990E+03  0.23014407722E+03  0.56965994744E+03  0.91442680401E+02 0.  0.
         23    2    4    4    0    0  0.16985585528E+03 -0.96503783640E+02  0.93048216698E+03  0.95516652217E+03  0.91553428065E+02 0.  0.
          4    1    3    3  502    0 -0.28516712760E+02 -0.25108014930E+03  0.51437848438E+03  0.57309656208E+03  0.00000000000E+00 0. -1.
         -3    1    3    3    0  502  0.30777199218E+02 -0.13569689696E+03  0.20912269740E+03  0.25118357113E+03  0.00000000000E+00 0.  1.
         11    1    5    5    0    0 -0.11041312595E+03  0.33043746124E+03  0.10882337260E+03  0.36499657614E+03  0.00000000000E+00 0.  1.
        -11    1    5    5    0    0 -0.61703215787E+02  0.15284336866E+03  0.12132070462E+03  0.20466337130E+03  0.00000000000E+00 0. -1.
          3    1    6    6  503    0  0.17517222407E+03 -0.92610005733E+02  0.78794912340E+03  0.81248122583E+03  0.00000000000E+00 0. -1.
         -3    1    6    6    0  503 -0.53163687921E+01 -0.38937779068E+01  0.14253304357E+03  0.14268529635E+03  0.00000000000E+00 0.  1.
<mgrwt>
<rscale>  0 0.14029846E+04</rscale>
<asrwt>0</asrwt>
<pdfrwt beam="1">  1        2 0.32563337E+00 0.14029846E+04</pdfrwt>
<pdfrwt beam="2">  1       -1 0.35767630E-01 0.14029846E+04</pdfrwt>
<totfact> 0.47627779E+01</totfact>
</mgrwt>
</event>
<event>
12    6  0.1586493E-007  0.1424035E+04  0.7818608E-02  0.8936602E-01
          2   -1    0    0  501    0  0.00000000000E+00  0.00000000000E+00  0.23291455005E+04  0.23291455005E+04  0.00000000000E+00 0. -1.
         -1   -1    0    0    0  501 -0.00000000000E+00 -0.00000000000E+00 -0.21766307676E+03  0.21766307676E+03  0.00000000000E+00 0.  1.
         24    2    1    2    0    0 -0.15037802641E+03  0.29142972838E+03  0.10109708925E+04  0.10657932198E+04  0.79424206142E+02 0.  0.
        254    2    1    2    0    0  0.15037802641E+03 -0.29142972838E+03  0.11005115313E+04  0.14810153575E+04  0.93527323343E+03 0.  0.
         23    2    4    4    0    0 -0.37612702200E+03 -0.85088426886E+02  0.60971653968E+03  0.72698257793E+03  0.89653961394E+02 0.  0.
         23    2    4    4    0    0  0.52650504841E+03 -0.20634130150E+03  0.49079499159E+03  0.75403277953E+03  0.88889876453E+02 0.  0.
          4    1    3    3  502    0 -0.99490507982E+02  0.19192850868E+03  0.77679755993E+03  0.80631840034E+03  0.00000000000E+00 0. -1.
         -3    1    3    3    0  502 -0.50887518432E+02  0.99501219708E+02  0.23417333257E+03  0.25947481947E+03  0.00000000000E+00 0.  1.
         11    1    5    5    0    0 -0.26700951976E+03 -0.19374143187E+02  0.39073295707E+03  0.47364721556E+03  0.00000000000E+00 0. -1.
        -11    1    5    5    0    0 -0.10911750224E+03 -0.65714283699E+02  0.21898358261E+03  0.25333536237E+03  0.00000000000E+00 0.  1.
          4    1    6    6  503    0  0.46972650217E+03 -0.17422925958E+03  0.39426467352E+03  0.63752917934E+03  0.00000000000E+00 0. -1.
         -4    1    6    6    0  503  0.56778546241E+02 -0.32112041924E+02  0.96530318074E+02  0.11650360019E+03  0.00000000000E+00 0.  1.
<mgrwt>
<rscale>  0 0.14240351E+04</rscale>
<asrwt>0</asrwt>
<pdfrwt beam="1">  1        2 0.35833006E+00 0.14240351E+04</pdfrwt>
<pdfrwt beam="2">  1       -1 0.33486629E-01 0.14240351E+04</pdfrwt>
<totfact> 0.40647472E+01</totfact>
</mgrwt>
</event>
<event>
12    6  0.1586493E-007  0.3022338E+04  0.7818608E-02  0.8237381E-01
          2   -1    0    0  501    0  0.00000000000E+00  0.00000000000E+00  0.24646387665E+04  0.24646387665E+04  0.00000000000E+00 0. -1.
         -1   -1    0    0    0  501 -0.00000000000E+00 -0.00000000000E+00 -0.92655870100E+03  0.92655870100E+03  0.00000000000E+00 0.  1.
         24    2    1    2    0    0  0.13035788271E+04  0.32892091006E+03  0.10275534205E+04  0.16942783106E+04  0.84889564038E+02 0.  0.
        254    2    1    2    0    0 -0.13035788271E+04 -0.32892091006E+03  0.51052664494E+03  0.16969191569E+04  0.90077213892E+03 0.  0.
         23    2    4    4    0    0 -0.12231981116E+04 -0.55431803209E+03  0.51313353082E+03  0.14405270780E+04  0.91269606755E+02 0.  0.
         23    2    4    4    0    0 -0.80380715487E+02  0.22539712203E+03 -0.26068858888E+01  0.25639207885E+03  0.92006413922E+02 0.  0.
          4    1    3    3  502    0  0.10148260628E+04  0.23250306156E+03  0.82863315455E+03  0.13306248593E+04  0.00000000000E+00 0. -1.
         -3    1    3    3    0  502  0.28875276434E+03  0.96417848505E+02  0.19892026600E+03  0.36365345131E+03  0.00000000000E+00 0.  1.
         11    1    5    5    0    0 -0.67651229932E+03 -0.35015427905E+03  0.31372502865E+03  0.82383269167E+03  0.00000000000E+00 0. -1.
        -11    1    5    5    0    0 -0.54668581232E+03 -0.20416375303E+03  0.19940850217E+03  0.61669438637E+03  0.00000000000E+00 0.  1.
          1    1    6    6  503    0 -0.95059154663E+02  0.14129884049E+03 -0.10733532103E+02  0.17063649645E+03  0.00000000000E+00 0. -1.
         -1    1    6    6    0  503  0.14678439177E+02  0.84098281537E+02  0.81266462140E+01  0.85755582400E+02  0.00000000000E+00 0.  1.
<mgrwt>
<rscale>  0 0.30223385E+04</rscale>
<asrwt>0</asrwt>
<pdfrwt beam="1">  1        2 0.37917519E+00 0.30223385E+04</pdfrwt>
<pdfrwt beam="2">  1       -1 0.14254749E+00 0.30223385E+04</pdfrwt>
<totfact> 0.14164443E+00</totfact>
</mgrwt>
</event>
<event>
12    6  0.1586493E-007  0.1611008E+04  0.7818608E-02  0.8813814E-01
         -1   -1    0    0    0  501 -0.00000000000E+00  0.00000000000E+00  0.71652299295E+03  0.71652299295E+03  0.00000000000E+00 0.  1.
          2   -1    0    0  501    0  0.00000000000E+00 -0.00000000000E+00 -0.90553454789E+03  0.90553454789E+03  0.00000000000E+00 0. -1.
         24    2    1    2    0    0 -0.16998305967E+03  0.26427246821E+03  0.41168789703E+03  0.52339729649E+03  0.75654658731E+02 0.  0.
        254    2    1    2    0    0  0.16998305967E+03 -0.26427246821E+03 -0.60069945197E+03  0.10986602444E+04  0.86456944365E+03 0.  0.
         23    2    4    4    0    0 -0.20789231729E+03  0.37400106458E+02  0.93967149440E+02  0.24754402093E+03  0.88488607042E+02 0.  0.
         23    2    4    4    0    0  0.37787537695E+03 -0.30167257467E+03 -0.69466660141E+03  0.85111622342E+03  0.89671599902E+02 0.  0.
          2    1    3    3  502    0 -0.44823539041E+02  0.27125117008E+02  0.44619574699E+02  0.68817352980E+02  0.00000000000E+00 0. -1.
         -1    1    3    3    0  502 -0.12515952063E+03  0.23714735120E+03  0.36706832233E+03  0.45457994351E+03  0.00000000000E+00 0.  1.
         11    1    5    5    0    0 -0.37934896241E+02  0.11762713167E+02  0.60599447485E+02  0.72454888098E+02  0.00000000000E+00 0. -1.
        -11    1    5    5    0    0 -0.16995742105E+03  0.25637393291E+02  0.33367701955E+02  0.17508913284E+03  0.00000000000E+00 0.  1.
          4    1    6    6  503    0  0.12482018338E+03 -0.84109001579E+02 -0.28877488422E+03  0.32564602881E+03  0.00000000000E+00 0. -1.
         -4    1    6    6    0  503  0.25305519358E+03 -0.21756357309E+03 -0.40589171719E+03  0.52547019460E+03  0.00000000000E+00 0.  1.
<mgrwt>
<rscale>  0 0.16110075E+04</rscale>
<asrwt>0</asrwt>
<pdfrwt beam="1">  1        2 0.13931301E+00 0.16110075E+04</pdfrwt>
<pdfrwt beam="2">  1       -1 0.11023431E+00 0.16110075E+04</pdfrwt>
<totfact> 0.24143234E+01</totfact>
</mgrwt>
</event>
<event>
12    6  0.1586493E-007  0.1593891E+04  0.7818608E-02  0.8824310E-01
         -1   -1    0    0    0  501 -0.00000000000E+00  0.00000000000E+00  0.55301092982E+03  0.55301092982E+03  0.00000000000E+00 0.  1.
          2   -1    0    0  501    0  0.00000000000E+00 -0.00000000000E+00 -0.11484808973E+04  0.11484808973E+04  0.00000000000E+00 0. -1.
         24    2    1    2    0    0 -0.11230664484E+02  0.10373564969E+03  0.37730725368E+03  0.39915042457E+03  0.77930000112E+02 0.  0.
        254    2    1    2    0    0  0.11230664484E+02 -0.10373564969E+03 -0.97277722115E+03  0.13023414025E+04  0.85959897275E+03 0.  0.
         23    2    4    4    0    0  0.20373501905E+03 -0.17587470037E+03  0.17973124436E+02  0.28627229550E+03  0.95858884585E+02 0.  0.
         23    2    4    4    0    0 -0.19250435457E+03  0.72139050673E+02 -0.99075034559E+03  0.10160691070E+04  0.92456551113E+02 0.  0.
          2    1    3    3  502    0 -0.19057009662E+02  0.35949964815E+02  0.48359030918E+02  0.63199410273E+02  0.00000000000E+00 0. -1.
         -1    1    3    3    0  502  0.78263451779E+01  0.67785684878E+02  0.32894822276E+03  0.33595101430E+03  0.00000000000E+00 0.  1.
         11    1    5    5    0    0  0.81437269878E+02 -0.16928979234E+02  0.20653009607E+02  0.85703944302E+02  0.00000000000E+00 0. -1.
        -11    1    5    5    0    0  0.12229774917E+03 -0.15894572113E+03 -0.26798851709E+01  0.20056835120E+03  0.00000000000E+00 0.  1.
          4    1    6    6  503    0 -0.98383837912E+02  0.71177914796E+02 -0.70023599057E+03  0.71068707432E+03  0.00000000000E+00 0.  1.
         -4    1    6    6    0  503 -0.94120516656E+02  0.96113587697E+00 -0.29051435502E+03  0.30538203272E+03  0.00000000000E+00 0. -1.
<mgrwt>
<rscale>  0 0.15938915E+04</rscale>
<asrwt>0</asrwt>
<pdfrwt beam="1">  1        2 0.17668937E+00 0.15938915E+04</pdfrwt>
<pdfrwt beam="2">  1       -1 0.85078605E-01 0.15938915E+04</pdfrwt>
<totfact> 0.30419667E+01</totfact>
</mgrwt>
</event>
<event>
12    6  0.1586493E-007  0.1402747E+04  0.7818608E-02  0.8951833E-01
          2   -1    0    0  501    0  0.00000000000E+00  0.00000000000E+00  0.52296561367E+03  0.52296561367E+03  0.00000000000E+00 0. -1.
         -1   -1    0    0    0  501 -0.00000000000E+00 -0.00000000000E+00 -0.94064399070E+03  0.94064399070E+03  0.00000000000E+00 0.  1.
         24    2    1    2    0    0  0.23880296432E+03 -0.32701673051E+03 -0.89440879417E+02  0.42310171736E+03  0.83955908188E+02 0.  0.
        254    2    1    2    0    0 -0.23880296432E+03  0.32701673051E+03 -0.32823749761E+03  0.10405078870E+04  0.90052762883E+03 0.  0.
         23    2    4    4    0    0 -0.11744681932E+03  0.36621437291E+03  0.23155511391E+03  0.45845145444E+03  0.93022809084E+02 0.  0.
         23    2    4    4    0    0 -0.12135614499E+03 -0.39197642401E+02 -0.55979261152E+03  0.58205643257E+03  0.95698242830E+02 0.  0.
          2    1    3    3  502    0  0.24475536882E+03 -0.32411167399E+03 -0.84508987874E+02  0.41484374988E+03  0.00000000000E+00 0. -1.
         -1    1    3    3    0  502 -0.59524044996E+01 -0.29050565218E+01 -0.49318915432E+01  0.82579674809E+01  0.00000000000E+00 0.  1.
         11    1    5    5    0    0 -0.12151663260E+03  0.31217800441E+03  0.22573014570E+03  0.40394986956E+03  0.00000000000E+00 0. -1.
        -11    1    5    5    0    0  0.40698132741E+01  0.54036368501E+02  0.58249682062E+01  0.54501584889E+02  0.00000000000E+00 0.  1.
          1    1    6    6  503    0 -0.98410670591E+02 -0.38118116695E+02 -0.54409188229E+03  0.55423246682E+03  0.00000000000E+00 0. -1.
         -1    1    6    6    0  503 -0.22945474403E+02 -0.10795257053E+01 -0.15700729232E+02  0.27823965745E+02  0.00000000000E+00 0.  1.
<mgrwt>
<rscale>  0 0.14027465E+04</rscale>
<asrwt>0</asrwt>
<pdfrwt beam="1">  1        2 0.80456248E-01 0.14027465E+04</pdfrwt>
<pdfrwt beam="2">  1       -1 0.14471446E+00 0.14027465E+04</pdfrwt>
<totfact> 0.24969976E+01</totfact>
</mgrwt>
</event>
<event>
12    6  0.1586493E-007  0.3572364E+04  0.7818608E-02  0.8096852E-01
          2   -1    0    0  501    0  0.00000000000E+00  0.00000000000E+00  0.38255572500E+04  0.38255572500E+04  0.00000000000E+00 0. -1.
         -1   -1    0    0    0  501 -0.00000000000E+00 -0.00000000000E+00 -0.83398210439E+03  0.83398210439E+03  0.00000000000E+00 0.  1.
         24    2    1    2    0    0 -0.10668361218E+04  0.13953305440E+03 -0.26775691333E+03  0.11115385291E+04  0.78837509457E+02 0.  0.
        254    2    1    2    0    0  0.10668361218E+04 -0.13953305440E+03  0.32593320589E+04  0.35480008253E+04  0.89858533362E+03 0.  0.
         23    2    4    4    0    0 -0.83160383961E+02  0.61726634912E+02  0.93482584942E+03  0.94520002199E+03  0.93690372633E+02 0.  0.
         23    2    4    4    0    0  0.11499965058E+04 -0.20125968931E+03  0.23245062095E+04  0.26028008033E+04  0.90804612790E+02 0.  0.
          2    1    3    3  502    0 -0.16948173612E+03  0.71030001944E+01 -0.67855182240E+02  0.18269876093E+03  0.00000000000E+00 0. -1.
         -1    1    3    3    0  502 -0.89735438571E+03  0.13243005421E+03 -0.19990173109E+03  0.92883976815E+03  0.00000000000E+00 0.  1.
         11    1    5    5    0    0 -0.18299604336E+02 -0.22374535262E+02  0.11752568116E+03  0.12102801774E+03  0.00000000000E+00 0. -1.
        -11    1    5    5    0    0 -0.64860779625E+02  0.84101170174E+02  0.81730016826E+03  0.82417200425E+03  0.00000000000E+00 0.  1.
          1    1    6    6  503    0  0.31026697886E+03 -0.14203228306E+02  0.63151020168E+03  0.70375596956E+03  0.00000000000E+00 0. -1.
         -1    1    6    6    0  503  0.83972952693E+03 -0.18705646101E+03  0.16929960078E+04  0.18990448337E+04  0.00000000000E+00 0.  1.
<mgrwt>
<rscale>  0 0.35723641E+04</rscale>
<asrwt>0</asrwt>
<pdfrwt beam="1">  1        2 0.58854726E+00 0.35723641E+04</pdfrwt>
<pdfrwt beam="2">  1       -1 0.12830494E+00 0.35723641E+04</pdfrwt>
<totfact> 0.22763514E-01</totfact>
</mgrwt>
</event>
<event>
12    6  0.1586493E-007  0.1241828E+04  0.7818608E-02  0.9077012E-01
          2   -1    0    0  501    0  0.00000000000E+00  0.00000000000E+00  0.19660956823E+04  0.19660956823E+04  0.00000000000E+00 0. -1.
         -1   -1    0    0    0  501 -0.00000000000E+00 -0.00000000000E+00 -0.19609136651E+03  0.19609136651E+03  0.00000000000E+00 0.  1.
         24    2    1    2    0    0 -0.12096370520E+02  0.12034128916E+03  0.86129026502E+03  0.87342362445E+03  0.80122150913E+02 0.  0.
        254    2    1    2    0    0  0.12096370520E+02 -0.12034128916E+03  0.90871405074E+03  0.12887634243E+04  0.90582646782E+03 0.  0.
         23    2    4    4    0    0 -0.22550023641E+03 -0.30490241132E+03  0.89260061307E+03  0.97399159302E+03  0.90044054679E+02 0.  0.
         23    2    4    4    0    0  0.23759660693E+03  0.18456112216E+03  0.16113437673E+02  0.31477183130E+03  0.91141140370E+02 0.  0.
          4    1    3    3  502    0  0.34193843435E+02  0.59460656460E+02  0.41157782099E+03  0.41725422865E+03  0.00000000000E+00 0. -1.
         -3    1    3    3    0  502 -0.46290213955E+02  0.60880632702E+02  0.44971244403E+03  0.45616939580E+03  0.00000000000E+00 0.  1.
         11    1    5    5    0    0 -0.16651532935E+01 -0.46907164299E+02  0.84269709721E+02  0.96459518838E+02  0.00000000000E+00 0. -1.
        -11    1    5    5    0    0 -0.22383508312E+03 -0.25799524702E+03  0.80833090334E+03  0.87753207418E+03  0.00000000000E+00 0.  1.
          2    1    6    6  503    0  0.77779011714E+02  0.38527970290E+02  0.42564461406E+02  0.96673225521E+02  0.00000000000E+00 0. -1.
         -2    1    6    6    0  503  0.15981759522E+03  0.14603315187E+03 -0.26451023733E+02  0.21809860578E+03  0.00000000000E+00 0.  1.
<mgrwt>
<rscale>  0 0.12418283E+04</rscale>
<asrwt>0</asrwt>
<pdfrwt beam="1">  1        2 0.30247624E+00 0.12418283E+04</pdfrwt>
<pdfrwt beam="2">  1       -1 0.30167904E-01 0.12418283E+04</pdfrwt>
<totfact> 0.79107286E+01</totfact>
</mgrwt>
</event>
<event>
12    6  0.1586493E-007  0.1572844E+04  0.7818608E-02  0.8837407E-01
         -1   -1    0    0    0  501 -0.00000000000E+00  0.00000000000E+00  0.11236150870E+04  0.11236150870E+04  0.00000000000E+00 0.  1.
          2   -1    0    0  501    0  0.00000000000E+00 -0.00000000000E+00 -0.55041938283E+03  0.55041938283E+03  0.00000000000E+00 0. -1.
         24    2    1    2    0    0  0.46775810107E+02  0.14045567451E+03  0.72165979373E+03  0.74121941433E+03  0.81838801115E+02 0.  0.
        254    2    1    2    0    0 -0.46775810107E+02 -0.14045567451E+03 -0.14846408955E+03  0.93281505553E+03  0.90894805629E+03 0.  0.
         23    2    4    4    0    0  0.16866853956E+03  0.30405972510E+03  0.98887286589E+02  0.37254856232E+03  0.90068547070E+02 0.  0.
         23    2    4    4    0    0 -0.21544434967E+03 -0.44451539962E+03 -0.24735137614E+03  0.56026649321E+03  0.93303975465E+02 0.  0.
          2    1    3    3  502    0  0.48965201167E+02  0.51314446655E+02  0.44296254171E+03  0.44860514566E+03  0.00000000000E+00 0. -1.
         -1    1    3    3    0  502 -0.21893910600E+01  0.89141227859E+02  0.27869725203E+03  0.29261426866E+03  0.00000000000E+00 0.  1.
         11    1    5    5    0    0  0.13512362917E+03  0.16488453041E+03  0.81955501953E+02  0.22839003444E+03  0.00000000000E+00 0. -1.
        -11    1    5    5    0    0  0.33544910385E+02  0.13917519469E+03  0.16931784637E+02  0.14415852789E+03  0.00000000000E+00 0.  1.
          1    1    6    6  503    0 -0.16688093883E+03 -0.32653573258E+03 -0.22642150614E+03  0.43097741337E+03  0.00000000000E+00 0. -1.
         -1    1    6    6    0  503 -0.48563410837E+02 -0.11797966704E+03 -0.20929869994E+02  0.12928907984E+03  0.00000000000E+00 0.  1.
<mgrwt>
<rscale>  0 0.15728439E+04</rscale>
<asrwt>0</asrwt>
<pdfrwt beam="1">  1        2 0.84679905E-01 0.15728439E+04</pdfrwt>
<pdfrwt beam="2">  1       -1 0.17286386E+00 0.15728439E+04</pdfrwt>
<totfact> 0.14160049E+01</totfact>
</mgrwt>
</event>
<event>
12    6  0.1586493E-007  0.1535662E+04  0.7818608E-02  0.8861078E-01
         -1   -1    0    0    0  501 -0.00000000000E+00  0.00000000000E+00  0.76234286202E+03  0.76234286202E+03  0.00000000000E+00 0.  1.
          2   -1    0    0  501    0  0.00000000000E+00 -0.00000000000E+00 -0.77335856377E+03  0.77335856377E+03  0.00000000000E+00 0. -1.
         24    2    1    2    0    0 -0.37011219273E+03 -0.31589267991E+03 -0.11867622723E+03  0.50747010717E+03  0.81674000346E+02 0.  0.
        254    2    1    2    0    0  0.37011219273E+03  0.31589267991E+03  0.10766052548E+03  0.10282313186E+04  0.89938736671E+03 0.  0.
         23    2    4    4    0    0  0.46334659235E+03  0.44600208333E+03  0.33686733607E+03  0.73177245592E+03  0.91670072312E+02 0.  0.
         23    2    4    4    0    0 -0.93234399614E+02 -0.13010940342E+03 -0.22920681059E+03  0.29645886270E+03  0.98645755716E+02 0.  0.
          4    1    3    3  502    0 -0.30582448291E+03 -0.21951064882E+03 -0.76264898026E+02  0.38409617802E+03  0.00000000000E+00 0. -1.
         -3    1    3    3    0  502 -0.64287709819E+02 -0.96382031088E+02 -0.42411329200E+02  0.12337392915E+03  0.00000000000E+00 0.  1.
         11    1    5    5    0    0  0.51897974615E+02  0.18913121067E+02  0.42499245104E+02  0.69694273452E+02  0.00000000000E+00 0.  1.
        -11    1    5    5    0    0  0.41144861773E+03  0.42708896226E+03  0.29436809096E+03  0.66207818247E+03  0.00000000000E+00 0. -1.
          3    1    6    6  503    0 -0.10051168218E+03 -0.88519730680E+02 -0.21221738136E+03  0.25094732102E+03  0.00000000000E+00 0. -1.
         -3    1    6    6    0  503  0.72772825712E+01 -0.41589672738E+02 -0.16989429226E+02  0.45511541673E+02  0.00000000000E+00 0.  1.
<mgrwt>
<rscale>  0 0.15356619E+04</rscale>
<asrwt>0</asrwt>
<pdfrwt beam="1">  1        2 0.11897824E+00 0.15356619E+04</pdfrwt>
<pdfrwt beam="2">  1       -1 0.11728352E+00 0.15356619E+04</pdfrwt>
<totfact> 0.25955700E+01</totfact>
</mgrwt>
</event>
<event>
12    6  0.1586493E-007  0.1369290E+04  0.7818608E-02  0.8976353E-01
         -3   -1    0    0    0  501 -0.00000000000E+00  0.00000000000E+00  0.12781937374E+04  0.12781937374E+04  0.00000000000E+00 0.  1.
          4   -1    0    0  501    0  0.00000000000E+00 -0.00000000000E+00 -0.36671985573E+03  0.36671985573E+03  0.00000000000E+00 0. -1.
         24    2    1    2    0    0  0.18646501036E+03 -0.44061351836E+02  0.64923533572E+03  0.68206885001E+03  0.83670736759E+02 0.  0.
        254    2    1    2    0    0 -0.18646501036E+03  0.44061351836E+02  0.26223854596E+03  0.96284474314E+03  0.90641620770E+03 0.  0.
         23    2    4    4    0    0  0.44391284989E+02  0.25986026461E+03 -0.23626929407E+03  0.36549368422E+03  0.90909353629E+02 0.  0.
         23    2    4    4    0    0 -0.23085629535E+03 -0.21579891278E+03  0.49850784004E+03  0.59735105892E+03  0.91947926311E+02 0.  0.
          2    1    3    3  502    0  0.99950400343E+01 -0.19492544802E+02  0.26687731895E+02  0.34526731120E+02  0.00000000000E+00 0. -1.
         -1    1    3    3    0  502  0.17646997033E+03 -0.24568807034E+02  0.62254760383E+03  0.64754211889E+03  0.00000000000E+00 0.  1.
         11    1    5    5    0    0  0.52390090084E+02  0.15750219654E+03 -0.96276915706E+02  0.19188774831E+03  0.00000000000E+00 0.  1.
        -11    1    5    5    0    0 -0.79988050951E+01  0.10235806807E+03 -0.13999237837E+03  0.17360593591E+03  0.00000000000E+00 0. -1.
          1    1    6    6  503    0 -0.16069738045E+03 -0.88763180279E+02  0.29319989951E+03  0.34593168592E+03  0.00000000000E+00 0. -1.
         -1    1    6    6    0  503 -0.70158914905E+02 -0.12703573250E+03  0.20530794053E+03  0.25141937299E+03  0.00000000000E+00 0.  1.
<mgrwt>
<rscale>  0 0.13692904E+04</rscale>
<asrwt>0</asrwt>
<pdfrwt beam="1">  1        4 0.56418440E-01 0.13692904E+04</pdfrwt>
<pdfrwt beam="2">  1       -3 0.19664519E+00 0.13692904E+04</pdfrwt>
<totfact> 0.10280835E+00</totfact>
</mgrwt>
</event>
<event>
12    6  0.1586493E-007  0.1079020E+04  0.7818608E-02  0.9225885E-01
         -1   -1    0    0    0  501 -0.00000000000E+00  0.00000000000E+00  0.64509279575E+03  0.64509279575E+03  0.00000000000E+00 0.  1.
          2   -1    0    0  501    0  0.00000000000E+00 -0.00000000000E+00 -0.45120834731E+03  0.45120834731E+03  0.00000000000E+00 0. -1.
         24    2    1    2    0    0  0.80252080050E+01 -0.54416483782E+02 -0.10838623355E+03  0.14571866010E+03  0.80379068207E+02 0.  0.
        254    2    1    2    0    0 -0.80252080050E+01  0.54416483782E+02  0.30227068199E+03  0.95058248297E+03  0.89956319070E+03 0.  0.
         23    2    4    4    0    0  0.31697118841E+03 -0.25176993059E+03  0.26769873031E+03  0.49371645339E+03  0.90744112248E+02 0.  0.
         23    2    4    4    0    0 -0.32499639641E+03  0.30618641437E+03  0.34571951680E+02  0.45686602958E+03  0.90324808983E+02 0.  0.
          2    1    3    3  502    0  0.19549234087E+02 -0.72802692519E+02 -0.88865989623E+02  0.11653140651E+03  0.00000000000E+00 0. -1.
         -1    1    3    3    0  502 -0.11524026082E+02  0.18386208737E+02 -0.19520243930E+02  0.29187253587E+02  0.00000000000E+00 0.  1.
         11    1    5    5    0    0  0.20699779887E+03 -0.15558931784E+03  0.11809821976E+03  0.28461081159E+03  0.00000000000E+00 0.  1.
        -11    1    5    5    0    0  0.10997338953E+03 -0.96180612743E+02  0.14960051055E+03  0.20910564179E+03  0.00000000000E+00 0. -1.
          1    1    6    6  503    0 -0.23098345379E+03  0.24174905437E+03 -0.99386818758E+01  0.33450670937E+03  0.00000000000E+00 0. -1.
         -1    1    6    6    0  503 -0.94012942619E+02  0.64437359998E+02  0.44510633556E+02  0.12235932021E+03  0.00000000000E+00 0.  1.
<mgrwt>
<rscale>  0 0.10790204E+04</rscale>
<asrwt>0</asrwt>
<pdfrwt beam="1">  1        2 0.69416669E-01 0.10790204E+04</pdfrwt>
<pdfrwt beam="2">  1       -1 0.99245046E-01 0.10790204E+04</pdfrwt>
<totfact> 0.76516929E+01</totfact>
</mgrwt>
</event>
<event>
12    6  0.1586493E-007  0.1416609E+04  0.7818608E-02  0.8941883E-01
         -1   -1    0    0    0  501 -0.00000000000E+00  0.00000000000E+00  0.27086344088E+03  0.27086344088E+03  0.00000000000E+00 0.  1.
          2   -1    0    0  501    0  0.00000000000E+00 -0.00000000000E+00 -0.18522084455E+04  0.18522084455E+04  0.00000000000E+00 0. -1.
         24    2    1    2    0    0 -0.22920041849E+03  0.69554400272E+01  0.45606028222E+02  0.24735380335E+03  0.80763755734E+02 0.  0.
        254    2    1    2    0    0  0.22920041849E+03 -0.69554400272E+01 -0.16269510328E+04  0.18757180830E+04  0.90485769807E+03 0.  0.
         23    2    4    4    0    0  0.52246441099E+03 -0.15029901058E+03 -0.71597529863E+03  0.90370729660E+03  0.92235548158E+02 0.  0.
         23    2    4    4    0    0 -0.29326399250E+03  0.14334357055E+03 -0.91097573416E+03  0.97201078639E+03  0.91526127997E+02 0.  0.
          2    1    3    3  502    0 -0.19065383619E+03  0.12250049801E+02  0.49952199709E+01  0.19111227380E+03  0.00000000000E+00 0. -1.
         -1    1    3    3    0  502 -0.38546582303E+02 -0.52946097743E+01  0.40610808251E+02  0.56241529555E+02  0.00000000000E+00 0.  1.
         11    1    5    5    0    0  0.26512583703E+02 -0.22124270480E+02 -0.79690560526E+02  0.86850364857E+02  0.00000000000E+00 0. -1.
        -11    1    5    5    0    0  0.49595182729E+03 -0.12817474010E+03 -0.63628473811E+03  0.81685693175E+03  0.00000000000E+00 0.  1.
          1    1    6    6  503    0 -0.75897231516E+02  0.75595695135E+01 -0.29814140936E+03  0.30774313447E+03  0.00000000000E+00 0. -1.
         -1    1    6    6    0  503 -0.21736676099E+03  0.13578400104E+03 -0.61283432481E+03  0.66426765191E+03  0.00000000000E+00 0.  1.
<mgrwt>
<rscale>  0 0.14166094E+04</rscale>
<asrwt>0</asrwt>
<pdfrwt beam="1">  1        2 0.28495514E+00 0.14166094E+04</pdfrwt>
<pdfrwt beam="2">  1       -1 0.41671300E-01 0.14166094E+04</pdfrwt>
<totfact> 0.50506035E+01</totfact>
</mgrwt>
</event>
<event>
12    6  0.1586493E-007  0.2232063E+04  0.7818608E-02  0.8505200E-01
         -1   -1    0    0    0  501 -0.00000000000E+00  0.00000000000E+00  0.46693285267E+03  0.46693285267E+03  0.00000000000E+00 0.  1.
          2   -1    0    0  501    0  0.00000000000E+00 -0.00000000000E+00 -0.26674640243E+04  0.26674640243E+04  0.00000000000E+00 0. -1.
         24    2    1    2    0    0 -0.39025320534E+03  0.78662563563E+03 -0.13714605447E+04  0.16304341745E+04  0.79587164818E+02 0.  0.
        254    2    1    2    0    0  0.39025320534E+03 -0.78662563563E+03 -0.82907062696E+03  0.15039627025E+04  0.89636390551E+03 0.  0.
         23    2    4    4    0    0  0.37507730330E+03 -0.78563378612E+03 -0.98802386734E+03  0.13200053819E+04  0.91211931916E+02 0.  0.
         23    2    4    4    0    0  0.15175902046E+02 -0.99184950898E+00  0.15895324038E+03  0.18395732057E+03  0.91339320095E+02 0.  0.
          2    1    3    3  502    0 -0.33590726365E+03  0.66741924984E+03 -0.11110070844E+04  0.13388871821E+04  0.00000000000E+00 0. -1.
         -1    1    3    3    0  502 -0.54345941691E+02  0.11920638579E+03 -0.26045346027E+03  0.29154699236E+03  0.00000000000E+00 0.  1.
         11    1    5    5    0    0  0.57202675865E+02 -0.99782222333E+02 -0.17908727013E+03  0.21284005343E+03  0.00000000000E+00 0.  1.
        -11    1    5    5    0    0  0.31787462743E+03 -0.68585156379E+03 -0.80893659721E+03  0.11071653285E+04  0.00000000000E+00 0. -1.
          4    1    6    6  503    0  0.42842546104E+01  0.31066696553E+02  0.14323595084E+03  0.14662889240E+03  0.00000000000E+00 0. -1.
         -4    1    6    6    0  503  0.10891647436E+02 -0.32058546062E+02  0.15717289543E+02  0.37328428176E+02  0.00000000000E+00 0.  1.
<mgrwt>
<rscale>  0 0.22320632E+04</rscale>
<asrwt>0</asrwt>
<pdfrwt beam="1">  1        2 0.41037908E+00 0.22320632E+04</pdfrwt>
<pdfrwt beam="2">  1       -1 0.71835823E-01 0.22320632E+04</pdfrwt>
<totfact> 0.56347408E+00</totfact>
</mgrwt>
</event>
<event>
12    6  0.1586493E-007  0.1294837E+04  0.7818608E-02  0.9033670E-01
         -1   -1    0    0    0  501 -0.00000000000E+00  0.00000000000E+00  0.29483739237E+03  0.29483739237E+03  0.00000000000E+00 0.  1.
          2   -1    0    0  501    0  0.00000000000E+00 -0.00000000000E+00 -0.14216331319E+04  0.14216331319E+04  0.00000000000E+00 0. -1.
         24    2    1    2    0    0  0.78455480427E+02  0.17194538036E+03 -0.64422351998E+03  0.67618424995E+03  0.80502918857E+02 0.  0.
        254    2    1    2    0    0 -0.78455480427E+02 -0.17194538036E+03 -0.48257221958E+03  0.10402862744E+04  0.90199728896E+03 0.  0.
         23    2    4    4    0    0  0.87821479243E+01 -0.50906987599E+03 -0.12199468799E+03  0.53137670114E+03  0.90825271017E+02 0.  0.
         23    2    4    4    0    0 -0.87237628351E+02  0.33712449563E+03 -0.36057753159E+03  0.50890957322E+03  0.87803576648E+02 0.  0.
          4    1    3    3  502    0  0.81541768606E+02  0.16108036046E+03 -0.50139506162E+03  0.53290988954E+03  0.00000000000E+00 0. -1.
         -3    1    3    3    0  502 -0.30862881791E+01  0.10865019898E+02 -0.14282845836E+03  0.14327436041E+03  0.00000000000E+00 0.  1.
         11    1    5    5    0    0 -0.30993142762E+02 -0.18971700158E+03 -0.74065601712E+02  0.20600686625E+03  0.00000000000E+00 0.  1.
        -11    1    5    5    0    0  0.39775290687E+02 -0.31935287441E+03 -0.47929086281E+02  0.32536983489E+03  0.00000000000E+00 0. -1.
          2    1    6    6  503    0 -0.40344344813E+01  0.18791082072E+03 -0.19976796563E+03  0.27428815742E+03  0.00000000000E+00 0. -1.
         -2    1    6    6    0  503 -0.83203193870E+02  0.14921367491E+03 -0.16080956596E+03  0.23462141580E+03  0.00000000000E+00 0.  1.
<mgrwt>
<rscale>  0 0.12948368E+04</rscale>
<asrwt>0</asrwt>
<pdfrwt beam="1">  1        2 0.21871279E+00 0.12948368E+04</pdfrwt>
<pdfrwt beam="2">  1       -1 0.45359599E-01 0.12948368E+04</pdfrwt>
<totfact> 0.75802346E+01</totfact>
</mgrwt>
</event>
<event>
12    6  0.1586493E-007  0.2085976E+04  0.7818608E-02  0.8567446E-01
         -1   -1    0    0    0  501 -0.00000000000E+00  0.00000000000E+00  0.69384942878E+03  0.69384942878E+03  0.00000000000E+00 0.  1.
          2   -1    0    0  501    0  0.00000000000E+00 -0.00000000000E+00 -0.15678105653E+04  0.15678105653E+04  0.00000000000E+00 0. -1.
         24    2    1    2    0    0 -0.46432910549E+03  0.34660239514E+03  0.31970944861E+03  0.66649016009E+03  0.79121826618E+02 0.  0.
        254    2    1    2    0    0  0.46432910549E+03 -0.34660239514E+03 -0.11936705851E+04  0.15951698340E+04  0.88542791628E+03 0.  0.
         23    2    4    4    0    0 -0.22231959720E+03 -0.10407616063E+03 -0.58985864122E+03  0.64452859416E+03  0.85006126573E+02 0.  0.
         23    2    4    4    0    0  0.68664870269E+03 -0.24252623451E+03 -0.60381194387E+03  0.95064123979E+03  0.93938745508E+02 0.  0.
          2    1    3    3  502    0 -0.16313697757E+03  0.12014756277E+03  0.15568302561E+03  0.25551186813E+03  0.00000000000E+00 0. -1.
         -1    1    3    3    0  502 -0.30119212792E+03  0.22645483237E+03  0.16402642300E+03  0.41097829197E+03  0.00000000000E+00 0.  1.
         11    1    5    5    0    0 -0.45120584461E+02 -0.40466936466E+02 -0.75634041221E+02  0.96922382763E+02  0.00000000000E+00 0. -1.
        -11    1    5    5    0    0 -0.17719901274E+03 -0.63609224167E+02 -0.51422460000E+03  0.54760621140E+03  0.00000000000E+00 0.  1.
          3    1    6    6  503    0  0.38690648126E+03 -0.88527405657E+02 -0.34138943814E+03  0.52352695754E+03  0.00000000000E+00 0. -1.
         -3    1    6    6    0  503  0.29974222142E+03 -0.15399882885E+03 -0.26242250573E+03  0.42711428226E+03  0.00000000000E+00 0.  1.
<mgrwt>
<rscale>  0 0.20859765E+04</rscale>
<asrwt>0</asrwt>
<pdfrwt beam="1">  1        2 0.24120162E+00 0.20859765E+04</pdfrwt>
<pdfrwt beam="2">  1       -1 0.10674607E+00 0.20859765E+04</pdfrwt>
<totfact> 0.10008204E+01</totfact>
</mgrwt>
</event>
<event>
12    6  0.1586493E-007  0.1521701E+04  0.7818608E-02  0.8870149E-01
         -1   -1    0    0    0  501 -0.00000000000E+00  0.00000000000E+00  0.33973775490E+03  0.33973775490E+03  0.00000000000E+00 0.  1.
          2   -1    0    0  501    0  0.00000000000E+00 -0.00000000000E+00 -0.17039432475E+04  0.17039432475E+04  0.00000000000E+00 0. -1.
         24    2    1    2    0    0  0.32785822335E+03  0.31898175938E+03 -0.21365516774E+03  0.51133505959E+03  0.81084123159E+02 0.  0.
        254    2    1    2    0    0 -0.32785822335E+03 -0.31898175938E+03 -0.11505503249E+04  0.15323459428E+04  0.90281651569E+03 0.  0.
         23    2    4    4    0    0 -0.27303232322E+03  0.12244362830E+03 -0.18740891662E+02  0.31324207166E+03  0.90720906110E+02 0.  0.
         23    2    4    4    0    0 -0.54825900136E+02 -0.44142538768E+03 -0.11318094332E+04  0.12191038712E+04  0.85786965089E+02 0.  0.
          4    1    3    3  502    0  0.14082675626E+03  0.10967093357E+03 -0.12139690404E+03  0.21586360801E+03  0.00000000000E+00 0. -1.
         -3    1    3    3    0  502  0.18703146709E+03  0.20931082580E+03 -0.92258263700E+02  0.29547145158E+03  0.00000000000E+00 0.  1.
         11    1    5    5    0    0 -0.21122528340E+03  0.51482345420E+02 -0.62333466527E+00  0.21740961520E+03  0.00000000000E+00 0. -1.
        -11    1    5    5    0    0 -0.61807039819E+02  0.70961282881E+02 -0.18117556997E+02  0.95832456459E+02  0.00000000000E+00 0.  1.
          2    1    6    6  503    0 -0.40806389920E+02 -0.84688890269E+02 -0.19228193259E+03  0.21403203311E+03  0.00000000000E+00 0. -1.
         -2    1    6    6    0  503 -0.14019510216E+02 -0.35673649741E+03 -0.93952750063E+03  0.10050718381E+04  0.00000000000E+00 0.  1.
<mgrwt>
<rscale>  0 0.15217015E+04</rscale>
<asrwt>0</asrwt>
<pdfrwt beam="1">  1        2 0.26214512E+00 0.15217015E+04</pdfrwt>
<pdfrwt beam="2">  1       -1 0.52267346E-01 0.15217015E+04</pdfrwt>
<totfact> 0.39533634E+01</totfact>
</mgrwt>
</event>
<event>
12    6  0.1805964E-007  0.1826463E+04  0.7818608E-02  0.8692352E-01
          2   -1    0    0  501    0  0.00000000000E+00  0.00000000000E+00  0.21666623829E+04  0.21666623829E+04  0.00000000000E+00 0. -1.
         -1   -1    0    0    0  501 -0.00000000000E+00 -0.00000000000E+00 -0.38491990010E+03  0.38491990010E+03  0.00000000000E+00 0.  1.
         24    2    1    2    0    0  0.97137577420E+02  0.47200048044E+03  0.13810365934E+04  0.14648071005E+04  0.78597754974E+02 0.  0.
        254    2    1    2    0    0 -0.97137577420E+02 -0.47200048044E+03  0.40070588942E+03  0.10867751825E+04  0.88785974394E+03 0.  0.
         23    2    4    4    0    0 -0.74689564368E+02  0.18113603939E+03  0.36846250996E+03  0.42697630843E+03  0.90306981581E+02 0.  0.
         23    2    4    4    0    0 -0.22448013052E+02 -0.65313651983E+03  0.32243379457E+02  0.65979887402E+03  0.84874565215E+02 0.  0.
          4    1    3    3  502    0  0.10306786761E+03  0.40205259319E+03  0.12326835464E+04  0.13006836658E+04  0.00000000000E+00 0. -1.
         -3    1    3    3    0  502 -0.59302901925E+01  0.69947887246E+02  0.14835304699E+03  0.16412343472E+03  0.00000000000E+00 0.  1.
         11    1    5    5    0    0  0.65341991324E+01  0.52858633656E+01 -0.22565831307E+01  0.87021995638E+01  0.00000000000E+00 0.  1.
        -11    1    5    5    0    0 -0.81223763501E+02  0.17585017603E+03  0.37071909309E+03  0.41827410887E+03  0.00000000000E+00 0. -1.
          4    1    6    6  503    0 -0.31776960793E+02 -0.61331398590E+03  0.12216002733E+02  0.61425813081E+03  0.00000000000E+00 0. -1.
         -4    1    6    6    0  503  0.93289477411E+01 -0.39822533929E+02  0.20027376724E+02  0.45540743218E+02  0.00000000000E+00 0.  1.
<mgrwt>
<rscale>  0 0.18264627E+04</rscale>
<asrwt>0</asrwt>
<pdfrwt beam="1">  1        2 0.33333267E+00 0.18264627E+04</pdfrwt>
<pdfrwt beam="2">  1       -1 0.59218447E-01 0.18264627E+04</pdfrwt>
<totfact> 0.16721769E+01</totfact>
</mgrwt>
</event>
<event>
12    6  0.1586493E-007  0.1820150E+04  0.7818608E-02  0.8695657E-01
         -1   -1    0    0    0  501 -0.00000000000E+00  0.00000000000E+00  0.37193752520E+03  0.37193752520E+03  0.00000000000E+00 0.  1.
          2   -1    0    0  501    0  0.00000000000E+00 -0.00000000000E+00 -0.22268164462E+04  0.22268164462E+04  0.00000000000E+00 0. -1.
         24    2    1    2    0    0 -0.30494600100E+03 -0.61292115570E+03 -0.71091234397E+03  0.99036505013E+03  0.82232384616E+02 0.  0.
        254    2    1    2    0    0  0.30494600100E+03  0.61292115570E+03 -0.11439665770E+04  0.16083889213E+04  0.89977274135E+03 0.  0.
         23    2    4    4    0    0  0.13270118770E+03  0.25651087100E+03  0.84912494858E+02  0.31366967434E+03  0.88153846541E+02 0.  0.
         23    2    4    4    0    0  0.17224481330E+03  0.35641028470E+03 -0.12288790719E+04  0.12947192469E+04  0.97250132595E+02 0.  0.
          2    1    3    3  502    0 -0.28461460012E+03 -0.58770077918E+03 -0.69704147450E+03  0.95512538110E+03  0.00000000000E+00 0. -1.
         -3    1    3    3    0  502 -0.20331400878E+02 -0.25220376517E+02 -0.13870869473E+02  0.35239669029E+02  0.00000000000E+00 0.  1.
         11    1    5    5    0    0  0.98547566103E+02  0.24305505573E+03  0.88460544095E+02  0.27678990365E+03  0.00000000000E+00 0. -1.
        -11    1    5    5    0    0  0.34153621599E+02  0.13455815269E+02 -0.35480492365E+01  0.36879770691E+02  0.00000000000E+00 0.  1.
          1    1    6    6  503    0  0.14824917935E+03  0.24913407438E+03 -0.99354368447E+03  0.10349756805E+04  0.00000000000E+00 0. -1.
         -1    1    6    6    0  503  0.23995633951E+02  0.10727621032E+03 -0.23533538742E+03  0.25974356647E+03  0.00000000000E+00 0.  1.
<mgrwt>
<rscale>  0 0.18201501E+04</rscale>
<asrwt>0</asrwt>
<pdfrwt beam="1">  1        2 0.34258715E+00 0.18201501E+04</pdfrwt>
<pdfrwt beam="2">  1       -1 0.57221157E-01 0.18201501E+04</pdfrwt>
<totfact> 0.16558899E+01</totfact>
</mgrwt>
</event>
<event>
12    6  0.1586493E-007  0.1282593E+04  0.7818608E-02  0.9043484E-01
          2   -1    0    0  501    0  0.00000000000E+00  0.00000000000E+00  0.82905706359E+03  0.82905706359E+03  0.00000000000E+00 0. -1.
         -1   -1    0    0    0  501 -0.00000000000E+00 -0.00000000000E+00 -0.49605932070E+03  0.49605932070E+03  0.00000000000E+00 0.  1.
         24    2    1    2    0    0 -0.27835719329E+03 -0.72279384855E+01  0.74175880828E+02  0.29913716211E+03  0.80287049442E+02 0.  0.
        254    2    1    2    0    0  0.27835719329E+03  0.72279384855E+01  0.25882186207E+03  0.10259792222E+04  0.95294786737E+03 0.  0.
         23    2    4    4    0    0  0.25596826622E+02  0.26219154103E+03  0.50824097434E+03  0.57942808051E+03  0.89601399308E+02 0.  0.
         23    2    4    4    0    0  0.25276036666E+03 -0.25496360255E+03 -0.24941911228E+03  0.44655114168E+03  0.91125117188E+02 0.  0.
          2    1    3    3  502    0 -0.16609837334E+03 -0.14358585853E+02  0.83134431370E+02  0.18629592667E+03  0.00000000000E+00 0. -1.
         -1    1    3    3    0  502 -0.11225881995E+03  0.71306473677E+01 -0.89585505425E+01  0.11284123544E+03  0.00000000000E+00 0.  1.
         11    1    5    5    0    0 -0.20168234515E+02  0.54201719368E+02  0.60921579120E+02  0.84000136121E+02  0.00000000000E+00 0. -1.
        -11    1    5    5    0    0  0.45765061137E+02  0.20798982167E+03  0.44731939522E+03  0.49542794439E+03  0.00000000000E+00 0.  1.
          1    1    6    6  503    0  0.16530162770E+03 -0.10353115271E+03 -0.14286049076E+03  0.24176940981E+03  0.00000000000E+00 0. -1.
         -1    1    6    6    0  503  0.87458738964E+02 -0.15143244984E+03 -0.10655862152E+03  0.20478173186E+03  0.00000000000E+00 0.  1.
<mgrwt>
<rscale>  0 0.12825934E+04</rscale>
<asrwt>0</asrwt>
<pdfrwt beam="1">  1        2 0.12754724E+00 0.12825934E+04</pdfrwt>
<pdfrwt beam="2">  1       -1 0.76316819E-01 0.12825934E+04</pdfrwt>
<totfact> 0.63426371E+01</totfact>
</mgrwt>
</event>
<event>
12    6  0.1586493E-007  0.2431518E+04  0.7818608E-02  0.8427797E-01
         -1   -1    0    0    0  501 -0.00000000000E+00  0.00000000000E+00  0.48882622651E+03  0.48882622651E+03  0.00000000000E+00 0.  1.
          2   -1    0    0  501    0  0.00000000000E+00 -0.00000000000E+00 -0.30237124511E+04  0.30237124511E+04  0.00000000000E+00 0. -1.
         24    2    1    2    0    0 -0.58863406398E+02 -0.90997131609E+03 -0.35604564605E+03  0.98223084793E+03  0.80599254529E+02 0.  0.
        254    2    1    2    0    0  0.58863406398E+02  0.90997131609E+03 -0.21788405785E+04  0.25303078297E+04  0.90752341543E+03 0.  0.
         23    2    4    4    0    0 -0.32501366188E+03  0.22317903550E+03 -0.12266660763E+04  0.12917213001E+04  0.91605087591E+02 0.  0.
         23    2    4    4    0    0  0.38387706827E+03  0.68679228059E+03 -0.95217450218E+03  0.12385865295E+04  0.91733681515E+02 0.  0.
          2    1    3    3  502    0 -0.15356171784E+01 -0.28237316555E+03 -0.14634531381E+03  0.31804703051E+03  0.00000000000E+00 0. -1.
         -1    1    3    3    0  502 -0.57327789220E+02 -0.62759815054E+03 -0.20970033225E+03  0.66418381742E+03  0.00000000000E+00 0.  1.
         11    1    5    5    0    0 -0.71065781389E+02  0.87869938015E+02 -0.26940933991E+03  0.29215212428E+03  0.00000000000E+00 0.  1.
        -11    1    5    5    0    0 -0.25394788049E+03  0.13530909749E+03 -0.95725673643E+03  0.99956917585E+03  0.00000000000E+00 0. -1.
          3    1    6    6  503    0  0.31219600940E+03  0.48663994624E+03 -0.66337739517E+03  0.87997406439E+03  0.00000000000E+00 0. -1.
         -3    1    6    6    0  503  0.71681058870E+02  0.20015233435E+03 -0.28879710701E+03  0.35861246515E+03  0.00000000000E+00 0.  1.
<mgrwt>
<rscale>  0 0.24315180E+04</rscale>
<asrwt>0</asrwt>
<pdfrwt beam="1">  1        2 0.46518653E+00 0.24315180E+04</pdfrwt>
<pdfrwt beam="2">  1       -1 0.75204036E-01 0.24315180E+04</pdfrwt>
<totfact> 0.30523442E+00</totfact>
</mgrwt>
</event>
<event>
12    6  0.1586493E-007  0.1212853E+04  0.7818608E-02  0.9101680E-01
          2   -1    0    0  501    0  0.00000000000E+00  0.00000000000E+00  0.36457212295E+03  0.36457212295E+03  0.00000000000E+00 0. -1.
         -1   -1    0    0    0  501 -0.00000000000E+00 -0.00000000000E+00 -0.10087259440E+04  0.10087259440E+04  0.00000000000E+00 0.  1.
         24    2    1    2    0    0 -0.18297528773E+03  0.83341129292E+02 -0.32295739761E+03  0.38871116748E+03  0.79807213342E+02 0.  0.
        254    2    1    2    0    0  0.18297528773E+03 -0.83341129292E+02 -0.32119642343E+03  0.98458689946E+03  0.90874557518E+03 0.  0.
         23    2    4    4    0    0  0.51061920865E+03 -0.14591083568E+03 -0.34182677914E+03  0.63820828593E+03  0.91882104199E+02 0.  0.
         23    2    4    4    0    0 -0.32764392092E+03  0.62569706391E+02  0.20630355713E+02  0.34637861353E+03  0.91033099791E+02 0.  0.
          4    1    3    3  502    0 -0.14398172963E+02  0.97915017934E+01 -0.41827897367E+00  0.17417113692E+02  0.00000000000E+00 0. -1.
         -1    1    3    3    0  502 -0.16857711477E+03  0.73549627498E+02 -0.32253911863E+03  0.37129405379E+03  0.00000000000E+00 0.  1.
         11    1    5    5    0    0  0.51127878477E+03 -0.13674755335E+03 -0.33204010243E+03  0.62478517806E+03  0.00000000000E+00 0.  1.
        -11    1    5    5    0    0 -0.65957611562E+00 -0.91632823293E+01 -0.97866767163E+01  0.13423107868E+02  0.00000000000E+00 0. -1.
          3    1    6    6  503    0 -0.33391248268E+02  0.25279421362E+02  0.26775774434E+02  0.49708819156E+02  0.00000000000E+00 0. -1.
         -3    1    6    6    0  503 -0.29425267265E+03  0.37290285029E+02 -0.61454187207E+01  0.29666979437E+03  0.00000000000E+00 0.  1.
<mgrwt>
<rscale>  0 0.12128534E+04</rscale>
<asrwt>0</asrwt>
<pdfrwt beam="1">  1        2 0.56088020E-01 0.12128534E+04</pdfrwt>
<pdfrwt beam="2">  1       -1 0.15518860E+00 0.12128534E+04</pdfrwt>
<totfact> 0.31694205E+01</totfact>
</mgrwt>
</event>
<event>
12    6  0.1586493E-007  0.1740161E+04  0.7818608E-02  0.8738785E-01
         -1   -1    0    0    0  501 -0.00000000000E+00  0.00000000000E+00  0.11520618056E+04  0.11520618056E+04  0.00000000000E+00 0.  1.
          2   -1    0    0  501    0  0.00000000000E+00 -0.00000000000E+00 -0.65711788671E+03  0.65711788671E+03  0.00000000000E+00 0. -1.
         24    2    1    2    0    0  0.42208551545E+03 -0.32656797663E+03 -0.18172027050E+03  0.56950085015E+03  0.80660621711E+02 0.  0.
        254    2    1    2    0    0 -0.42208551545E+03  0.32656797663E+03  0.67666418943E+03  0.12396788422E+04  0.89113768903E+03 0.  0.
         23    2    4    4    0    0 -0.32403133128E+03  0.10105792036E+02  0.80512388501E+03  0.87262026110E+03  0.90239787121E+02 0.  0.
         23    2    4    4    0    0 -0.98054184165E+02  0.31646218459E+03 -0.12845969558E+03  0.36705858109E+03  0.92017233446E+02 0.  0.
          4    1    3    3  502    0  0.37388350137E+03 -0.26064666772E+03 -0.17248622169E+03  0.48731617526E+03  0.00000000000E+00 0. -1.
         -3    1    3    3    0  502  0.48202014074E+02 -0.65921308911E+02 -0.92340488093E+01  0.82184674890E+02  0.00000000000E+00 0.  1.
         11    1    5    5    0    0 -0.31856988427E+01  0.11842201707E+02  0.61815590412E+02  0.63020263696E+02  0.00000000000E+00 0.  1.
        -11    1    5    5    0    0 -0.32084563244E+03 -0.17364096710E+01  0.74330829460E+03  0.80959999740E+03  0.00000000000E+00 0. -1.
          3    1    6    6  503    0 -0.46771381882E+02  0.20279993447E+03 -0.34586331251E+02  0.21097769999E+03  0.00000000000E+00 0. -1.
         -3    1    6    6    0  503 -0.51282802283E+02  0.11366225013E+03 -0.93873364333E+02  0.15608088110E+03  0.00000000000E+00 0.  1.
<mgrwt>
<rscale>  0 0.17401614E+04</rscale>
<asrwt>0</asrwt>
<pdfrwt beam="1">  1        2 0.10109506E+00 0.17401614E+04</pdfrwt>
<pdfrwt beam="2">  1       -1 0.17724028E+00 0.17401614E+04</pdfrwt>
<totfact> 0.10469077E+01</totfact>
</mgrwt>
</event>
<event>
12    6  0.1586493E-007  0.2508747E+04  0.7818608E-02  0.8399876E-01
          2   -1    0    0  501    0  0.00000000000E+00  0.00000000000E+00  0.25417720796E+04  0.25417720796E+04  0.00000000000E+00 0. -1.
         -1   -1    0    0    0  501 -0.00000000000E+00 -0.00000000000E+00 -0.61903761548E+03  0.61903761548E+03  0.00000000000E+00 0.  1.
         24    2    1    2    0    0  0.57683373292E+03  0.88074102777E+03  0.42713457069E+03  0.11389644157E+04  0.79712516138E+02 0.  0.
        254    2    1    2    0    0 -0.57683373292E+03 -0.88074102777E+03  0.14955998934E+04  0.20218452794E+04  0.86174090032E+03 0.  0.
         23    2    4    4    0    0 -0.38812448980E+03 -0.60546779623E+03  0.31321271543E+03  0.78987581858E+03  0.92572845977E+02 0.  0.
         23    2    4    4    0    0 -0.18870924312E+03 -0.27527323154E+03  0.11823871780E+04  0.12319694609E+04  0.91229289794E+02 0.  0.
          2    1    3    3  502    0  0.45014113115E+03  0.74237282484E+03  0.35530479716E+03  0.93807566214E+03  0.00000000000E+00 0. -1.
         -1    1    3    3    0  502  0.12669260177E+03  0.13836820292E+03  0.71829773532E+02  0.20088875352E+03  0.00000000000E+00 0.  1.
         11    1    5    5    0    0 -0.26487624839E+03 -0.48212361264E+03  0.25210195821E+03  0.60510990916E+03  0.00000000000E+00 0. -1.
        -11    1    5    5    0    0 -0.12324824141E+03 -0.12334418359E+03  0.61110757219E+02  0.18476590942E+03  0.00000000000E+00 0.  1.
          3    1    6    6  503    0 -0.12236603842E+03 -0.12093142965E+03  0.71175663317E+03  0.73225361925E+03  0.00000000000E+00 0. -1.
         -3    1    6    6    0  503 -0.66343204698E+02 -0.15434180189E+03  0.47063054485E+03  0.49971584162E+03  0.00000000000E+00 0.  1.
<mgrwt>
<rscale>  0 0.25087467E+04</rscale>
<asrwt>0</asrwt>
<pdfrwt beam="1">  1        2 0.39104185E+00 0.25087467E+04</pdfrwt>
<pdfrwt beam="2">  1       -1 0.95236557E-01 0.25087467E+04</pdfrwt>
<totfact> 0.35521278E+00</totfact>
</mgrwt>
</event>
<event>
12    6  0.1586493E-007  0.2267120E+04  0.7818608E-02  0.8490999E-01
         -1   -1    0    0    0  501 -0.00000000000E+00  0.00000000000E+00  0.12128003127E+04  0.12128003127E+04  0.00000000000E+00 0.  1.
          2   -1    0    0  501    0  0.00000000000E+00 -0.00000000000E+00 -0.10594965322E+04  0.10594965322E+04  0.00000000000E+00 0. -1.
         24    2    1    2    0    0 -0.76505994923E+03 -0.52987491233E+03 -0.87416411063E+02  0.93812959264E+03  0.79758103217E+02 0.  0.
        254    2    1    2    0    0  0.76505994923E+03  0.52987491233E+03  0.24072019150E+03  0.13341672523E+04  0.92518749331E+03 0.  0.
         23    2    4    4    0    0  0.44887093330E+03 -0.19966702821E+03  0.41314182814E+01  0.49957550184E+03  0.90590156768E+02 0.  0.
         23    2    4    4    0    0  0.31618901594E+03  0.72954194054E+03  0.23658877322E+03  0.83459175043E+03  0.91445095314E+02 0.  0.
          4    1    3    3  502    0 -0.26682036143E+03 -0.21011801820E+03 -0.64328477629E+02  0.34566000619E+03  0.00000000000E+00 0. -1.
         -3    1    3    3    0  502 -0.49823958781E+03 -0.31975689413E+03 -0.23087933435E+02  0.59246958645E+03  0.00000000000E+00 0.  1.
         11    1    5    5    0    0  0.19257619121E+03 -0.38933914775E+02  0.13178908490E+02  0.19691399841E+03  0.00000000000E+00 0.  1.
        -11    1    5    5    0    0  0.25629474209E+03 -0.16073311344E+03 -0.90474902085E+01  0.30266150342E+03  0.00000000000E+00 0. -1.
          4    1    6    6  503    0  0.26822781555E+03  0.52590053668E+03  0.15828461683E+03  0.61120500279E+03  0.00000000000E+00 0. -1.
         -4    1    6    6    0  503  0.47961200382E+02  0.20364140387E+03  0.78304156388E+02  0.22338674763E+03  0.00000000000E+00 0.  1.
<mgrwt>
<rscale>  0 0.22671195E+04</rscale>
<asrwt>0</asrwt>
<pdfrwt beam="1">  1        2 0.16299947E+00 0.22671195E+04</pdfrwt>
<pdfrwt beam="2">  1       -1 0.18658466E+00 0.22671195E+04</pdfrwt>
<totfact> 0.44699679E+00</totfact>
</mgrwt>
</event>
<event>
12    6  0.1586493E-007  0.1966982E+04  0.7818608E-02  0.8622215E-01
         -1   -1    0    0    0  501 -0.00000000000E+00  0.00000000000E+00  0.86675269328E+03  0.86675269328E+03  0.00000000000E+00 0.  1.
          2   -1    0    0  501    0  0.00000000000E+00 -0.00000000000E+00 -0.11159522861E+04  0.11159522861E+04  0.00000000000E+00 0. -1.
         24    2    1    2    0    0 -0.31010627443E+03 -0.37012929626E+03  0.51676225995E+03  0.71169428877E+03  0.79397291951E+02 0.  0.
        254    2    1    2    0    0  0.31010627443E+03  0.37012929626E+03 -0.76596185272E+03  0.12710106906E+04  0.89196918012E+03 0.  0.
         23    2    4    4    0    0 -0.15827406636E+03  0.33392521319E+03 -0.68745781393E+03  0.78584304216E+03  0.91620482903E+02 0.  0.
         23    2    4    4    0    0  0.46838034079E+03  0.36204083071E+02 -0.78504038789E+02  0.48516764840E+03  0.92379021830E+02 0.  0.
          4    1    3    3  502    0 -0.39128676925E+02 -0.15752264195E+02  0.58809360907E+02  0.72372150138E+02  0.00000000000E+00 0. -1.
         -3    1    3    3    0  502 -0.27097759750E+03 -0.35437703207E+03  0.45795289904E+03  0.63932213863E+03  0.00000000000E+00 0.  1.
         11    1    5    5    0    0 -0.21691878122E+02  0.95772453204E+02 -0.11690659623E+03  0.15267630010E+03  0.00000000000E+00 0.  1.
        -11    1    5    5    0    0 -0.13658218824E+03  0.23815275999E+03 -0.57055121770E+03  0.63316674206E+03  0.00000000000E+00 0. -1.
          4    1    6    6  503    0  0.88919455905E+02  0.90544278523E+01  0.21260485655E+02  0.91873067612E+02  0.00000000000E+00 0. -1.
         -4    1    6    6    0  503  0.37946088489E+03  0.27149655218E+02 -0.99764524445E+02  0.39329458078E+03  0.00000000000E+00 0.  1.
<mgrwt>
<rscale>  0 0.19669821E+04</rscale>
<asrwt>0</asrwt>
<pdfrwt beam="1">  1        2 0.17168497E+00 0.19669821E+04</pdfrwt>
<pdfrwt beam="2">  1       -1 0.13334657E+00 0.19669821E+04</pdfrwt>
<totfact> 0.10757785E+01</totfact>
</mgrwt>
</event>
<event>
12    6  0.1586493E-007  0.2567424E+04  0.7818608E-02  0.8379351E-01
          2   -1    0    0  501    0  0.00000000000E+00  0.00000000000E+00  0.16824793910E+04  0.16824793910E+04  0.00000000000E+00 0. -1.
         -1   -1    0    0    0  501 -0.00000000000E+00 -0.00000000000E+00 -0.97945718630E+03  0.97945718630E+03  0.00000000000E+00 0.  1.
         24    2    1    2    0    0  0.98707007315E+03  0.54290048712E+03  0.35331793135E+03  0.11835113925E+04  0.82567471737E+02 0.  0.
        254    2    1    2    0    0 -0.98707007315E+03 -0.54290048712E+03  0.34970427331E+03  0.14784251847E+04  0.89129101860E+03 0.  0.
         23    2    4    4    0    0  0.29516497700E+02  0.32740356906E+02  0.28796531542E+03  0.30499528922E+03  0.90304755997E+02 0.  0.
         23    2    4    4    0    0 -0.10165865709E+04 -0.57564084402E+03  0.61738957886E+02  0.11734298955E+04  0.91188724038E+02 0.  0.
          2    1    3    3  502    0  0.35228037853E+03  0.19100071171E+03  0.84604263959E+02  0.40956149532E+03  0.00000000000E+00 0. -1.
         -1    1    3    3    0  502  0.63478969462E+03  0.35189977541E+03  0.26871366739E+03  0.77394989720E+03  0.00000000000E+00 0.  1.
         11    1    5    5    0    0  0.41558189296E+02  0.40462477127E+02  0.28439755987E+03  0.29025207530E+03  0.00000000000E+00 0.  1.
        -11    1    5    5    0    0 -0.12041691596E+02 -0.77221202214E+01  0.35677555483E+01  0.14743213925E+02  0.00000000000E+00 0. -1.
          3    1    6    6  503    0 -0.46584511408E+03 -0.28496545843E+03 -0.12798283434E+02  0.54624241768E+03  0.00000000000E+00 0. -1.
         -3    1    6    6    0  503 -0.55074145677E+03 -0.29067538560E+03  0.74537241321E+02  0.62718747783E+03  0.00000000000E+00 0.  1.
<mgrwt>
<rscale>  0 0.25674240E+04</rscale>
<asrwt>0</asrwt>
<pdfrwt beam="1">  1        2 0.25884298E+00 0.25674240E+04</pdfrwt>
<pdfrwt beam="2">  1       -1 0.15068572E+00 0.25674240E+04</pdfrwt>
<totfact> 0.34904434E+00</totfact>
</mgrwt>
</event>
<event>
12    6  0.1586493E-007  0.2674828E+04  0.7818608E-02  0.8343219E-01
          2   -1    0    0  501    0  0.00000000000E+00  0.00000000000E+00  0.81357296445E+03  0.81357296445E+03  0.00000000000E+00 0. -1.
         -1   -1    0    0    0  501 -0.00000000000E+00 -0.00000000000E+00 -0.21985436838E+04  0.21985436838E+04  0.00000000000E+00 0.  1.
         24    2    1    2    0    0  0.15246290208E+03  0.10715355857E+04 -0.66356266697E+02  0.10872437971E+04  0.79135783643E+02 0.  0.
        254    2    1    2    0    0 -0.15246290208E+03 -0.10715355857E+04 -0.13186144526E+04  0.19248728512E+04  0.89160415577E+03 0.  0.
         23    2    4    4    0    0 -0.22472433519E+03 -0.60221679699E+03 -0.12858277897E+04  0.14406457405E+04  0.94556582613E+02 0.  0.
         23    2    4    4    0    0  0.72261433108E+02 -0.46931878868E+03 -0.32786662897E+02  0.48422711068E+03  0.88989265286E+02 0.  0.
          2    1    3    3  502    0  0.48707798797E+02  0.23203122325E+03  0.14275540622E+02  0.23751785046E+03  0.00000000000E+00 0. -1.
         -1    1    3    3    0  502  0.10375510328E+03  0.83950436242E+03 -0.80631807319E+02  0.84972594661E+03  0.00000000000E+00 0.  1.
         11    1    5    5    0    0 -0.22311943417E+03 -0.50320227477E+03 -0.10759757553E+04  0.12086019350E+04  0.00000000000E+00 0.  1.
        -11    1    5    5    0    0 -0.16049010212E+01 -0.99014522221E+02 -0.20985203438E+03  0.23204380546E+03  0.00000000000E+00 0. -1.
          1    1    6    6  503    0  0.57047517003E+02 -0.39604876728E+03 -0.59979491570E+02  0.40460670369E+03  0.00000000000E+00 0.  1.
         -1    1    6    6    0  503  0.15213916104E+02 -0.73270021399E+02  0.27192828674E+02  0.79620406997E+02  0.00000000000E+00 0. -1.
<mgrwt>
<rscale>  0 0.26748276E+04</rscale>
<asrwt>0</asrwt>
<pdfrwt beam="1">  1        2 0.12516507E+00 0.26748276E+04</pdfrwt>
<pdfrwt beam="2">  1       -1 0.33823749E+00 0.26748276E+04</pdfrwt>
<totfact> 0.62745847E-01</totfact>
</mgrwt>
</event>
<event>
12    6  0.1586493E-007  0.1123900E+04  0.7818608E-02  0.9182206E-01
          2   -1    0    0  501    0  0.00000000000E+00  0.00000000000E+00  0.14465207705E+04  0.14465207705E+04  0.00000000000E+00 0. -1.
         -1   -1    0    0    0  501 -0.00000000000E+00 -0.00000000000E+00 -0.21830842321E+03  0.21830842321E+03  0.00000000000E+00 0.  1.
         24    2    1    2    0    0  0.80697169154E+02  0.21144139698E+03  0.40416421458E+03  0.47018491526E+03  0.80657577008E+02 0.  0.
        254    2    1    2    0    0 -0.80697169154E+02 -0.21144139698E+03  0.82404813269E+03  0.11946442784E+04  0.83480544410E+03 0.  0.
         23    2    4    4    0    0  0.28737815696E+03 -0.29038894872E+03  0.20902175719E+03  0.46775933093E+03  0.90535904795E+02 0.  0.
         23    2    4    4    0    0 -0.36807532611E+03  0.78947551749E+02  0.61502637549E+03  0.72688494748E+03  0.91608529686E+02 0.  0.
          2    1    3    3  502    0 -0.79354438870E+01  0.73497835840E+02  0.15764773859E+03  0.17411982261E+03  0.00000000000E+00 0. -1.
         -1    1    3    3    0  502  0.88632613041E+02  0.13794356114E+03  0.24651647599E+03  0.29606509265E+03  0.00000000000E+00 0.  1.
         11    1    5    5    0    0  0.30567033724E+02 -0.45826188528E+01  0.32708850673E+02  0.45002365033E+02  0.00000000000E+00 0. -1.
        -11    1    5    5    0    0  0.25681112323E+03 -0.28580632987E+03  0.17631290652E+03  0.42275696590E+03  0.00000000000E+00 0.  1.
          2    1    6    6  503    0 -0.58393220082E+02 -0.18122394677E+02  0.74067847210E+02  0.96042882769E+02  0.00000000000E+00 0. -1.
         -2    1    6    6    0  503 -0.30968210603E+03  0.97069946426E+02  0.54095852828E+03  0.63084206471E+03  0.00000000000E+00 0.  1.
<mgrwt>
<rscale>  0 0.11238998E+04</rscale>
<asrwt>0</asrwt>
<pdfrwt beam="1">  1        2 0.22254165E+00 0.11238998E+04</pdfrwt>
<pdfrwt beam="2">  1       -1 0.33585912E-01 0.11238998E+04</pdfrwt>
<totfact> 0.12837473E+02</totfact>
</mgrwt>
</event>
<event>
12    6  0.1586493E-007  0.1636063E+04  0.7818608E-02  0.8798694E-01
          2   -1    0    0  501    0  0.00000000000E+00  0.00000000000E+00  0.24451353519E+04  0.24451353519E+04  0.00000000000E+00 0. -1.
         -1   -1    0    0    0  501 -0.00000000000E+00 -0.00000000000E+00 -0.27367628957E+03  0.27367628957E+03  0.00000000000E+00 0.  1.
         24    2    1    2    0    0 -0.19180183873E+03  0.57453020310E+02 -0.12081200830E+03  0.24708797354E+03  0.79800566645E+02 0.  0.
        254    2    1    2    0    0  0.19180183873E+03 -0.57453020310E+02  0.22922710706E+04  0.24717236679E+04  0.90267515448E+03 0.  0.
         23    2    4    4    0    0  0.23616237858E+03  0.29519660255E+03  0.18790962588E+04  0.19190665009E+04  0.94338655210E+02 0.  0.
         23    2    4    4    0    0 -0.44360539853E+02 -0.35264962286E+03  0.41317481183E+03  0.55265716703E+03  0.91580047716E+02 0.  0.
          2    1    3    3  502    0 -0.12687214348E+02 -0.10841741493E+00  0.11467990070E+02  0.17102396279E+02  0.00000000000E+00 0. -1.
         -1    1    3    3    0  502 -0.17911462438E+03  0.57561437725E+02 -0.13227999837E+03  0.22998557726E+03  0.00000000000E+00 0.  1.
         11    1    5    5    0    0  0.16723478704E+03  0.19883828040E+03  0.10562637156E+04  0.10877486716E+04  0.00000000000E+00 0. -1.
        -11    1    5    5    0    0  0.68927591544E+02  0.96358322144E+02  0.82283254321E+03  0.83131782929E+03  0.00000000000E+00 0.  1.
          4    1    6    6  503    0 -0.22057231929E+02 -0.33233942835E+02  0.86374134974E+02  0.95139411546E+02  0.00000000000E+00 0. -1.
         -4    1    6    6    0  503 -0.22303307925E+02 -0.31941568002E+03  0.32680067686E+03  0.45751775549E+03  0.00000000000E+00 0.  1.
<mgrwt>
<rscale>  0 0.16360630E+04</rscale>
<asrwt>0</asrwt>
<pdfrwt beam="1">  1        2 0.37617466E+00 0.16360630E+04</pdfrwt>
<pdfrwt beam="2">  1       -1 0.42104046E-01 0.16360630E+04</pdfrwt>
<totfact> 0.22640560E+01</totfact>
</mgrwt>
</event>
<event>
12    6  0.1586493E-007  0.2404039E+04  0.7818608E-02  0.8437993E-01
          2   -1    0    0  501    0  0.00000000000E+00  0.00000000000E+00  0.20496039929E+04  0.20496039929E+04  0.00000000000E+00 0. -1.
         -1   -1    0    0    0  501 -0.00000000000E+00 -0.00000000000E+00 -0.70494150663E+03  0.70494150663E+03  0.00000000000E+00 0.  1.
         24    2    1    2    0    0 -0.45474572719E+02 -0.39846636227E+03  0.16848384393E+04  0.17337586506E+04  0.79969452314E+02 0.  0.
        254    2    1    2    0    0  0.45474572719E+02  0.39846636227E+03 -0.34017595307E+03  0.10207868489E+04  0.87489584136E+03 0.  0.
         23    2    4    4    0    0  0.29891337326E+03  0.43518571726E+03  0.57385379574E+02  0.53920872093E+03  0.93365677409E+02 0.  0.
         23    2    4    4    0    0 -0.25343880054E+03 -0.36719354983E+02 -0.39756133264E+03  0.48157812798E+03  0.91010677886E+02 0.  0.
          4    1    3    3  502    0 -0.30212970616E+02 -0.38112940339E+03  0.15217552793E+04  0.15690479839E+04  0.00000000000E+00 0. -1.
         -3    1    3    3    0  502 -0.15261602103E+02 -0.17336958888E+02  0.16308316000E+03  0.16471066667E+03  0.00000000000E+00 0.  1.
         11    1    5    5    0    0  0.23066240129E+03  0.33890966316E+03  0.83417115232E+02  0.41835788300E+03  0.00000000000E+00 0.  1.
        -11    1    5    5    0    0  0.68250971965E+02  0.96276054101E+02 -0.26031735658E+02  0.12085083793E+03  0.00000000000E+00 0. -1.
          2    1    6    6  503    0 -0.11171130652E+03 -0.34527719827E+01 -0.98539630956E+02  0.14900133056E+03  0.00000000000E+00 0. -1.
         -2    1    6    6    0  503 -0.14172749402E+03 -0.33266583001E+02 -0.29902170169E+03  0.33257679742E+03  0.00000000000E+00 0.  1.
<mgrwt>
<rscale>  0 0.24040390E+04</rscale>
<asrwt>0</asrwt>
<pdfrwt beam="1">  1        2 0.31532369E+00 0.24040390E+04</pdfrwt>
<pdfrwt beam="2">  1       -1 0.10845254E+00 0.24040390E+04</pdfrwt>
<totfact> 0.50603760E+00</totfact>
</mgrwt>
</event>
<event>
12    6  0.1586493E-007  0.3122452E+04  0.7818608E-02  0.8209603E-01
         -1   -1    0    0    0  501 -0.00000000000E+00  0.00000000000E+00  0.77307631728E+03  0.77307631728E+03  0.00000000000E+00 0.  1.
          2   -1    0    0  501    0  0.00000000000E+00 -0.00000000000E+00 -0.31528922855E+04  0.31528922855E+04  0.00000000000E+00 0. -1.
         24    2    1    2    0    0 -0.71152950371E+03  0.12175328030E+04 -0.78859131688E+03  0.16176424498E+04  0.78933322867E+02 0.  0.
        254    2    1    2    0    0  0.71152950371E+03 -0.12175328030E+04 -0.15912246513E+04  0.23083261529E+04  0.89872875578E+03 0.  0.
         23    2    4    4    0    0  0.82287106287E+03 -0.65374923049E+03 -0.12384232002E+04  0.16268241743E+04  0.91433192392E+02 0.  0.
         23    2    4    4    0    0 -0.11134155916E+03 -0.56378357246E+03 -0.35280145110E+03  0.68150197866E+03  0.98626688351E+02 0.  0.
          4    1    3    3  502    0 -0.14698822599E+03  0.24648184452E+03 -0.19751667996E+03  0.34838438128E+03  0.00000000000E+00 0. -1.
         -3    1    3    3    0  502 -0.56454127772E+03  0.97105095843E+03 -0.59107463692E+03  0.12692580685E+04  0.00000000000E+00 0.  1.
         11    1    5    5    0    0  0.72183848710E+03 -0.53197045961E+03 -0.10506125676E+04  0.13812422447E+04  0.00000000000E+00 0. -1.
        -11    1    5    5    0    0  0.10103257577E+03 -0.12177877089E+03 -0.18781063263E+03  0.24558192958E+03  0.00000000000E+00 0.  1.
          2    1    6    6  503    0 -0.50952693839E+02 -0.46037150272E+03 -0.27426884513E+03  0.53829499062E+03  0.00000000000E+00 0. -1.
         -2    1    6    6    0  503 -0.60388865321E+02 -0.10341206974E+03 -0.78532605967E+02  0.14320698804E+03  0.00000000000E+00 0.  1.
<mgrwt>
<rscale>  0 0.31224518E+04</rscale>
<asrwt>0</asrwt>
<pdfrwt beam="1">  1        2 0.48506036E+00 0.31224518E+04</pdfrwt>
<pdfrwt beam="2">  1       -1 0.11893481E+00 0.31224518E+04</pdfrwt>
<totfact> 0.84685162E-01</totfact>
</mgrwt>
</event>
<event>
12    6  0.1586493E-007  0.1914909E+04  0.7818608E-02  0.8647471E-01
          2   -1    0    0  501    0  0.00000000000E+00  0.00000000000E+00  0.32527792871E+04  0.32527792871E+04  0.00000000000E+00 0. -1.
         -1   -1    0    0    0  501 -0.00000000000E+00 -0.00000000000E+00 -0.28182638756E+03  0.28182638756E+03  0.00000000000E+00 0.  1.
         24    2    1    2    0    0  0.14834088677E+03 -0.33758697223E+03 -0.30433855060E+02  0.37838904951E+03  0.79259515174E+02 0.  0.
        254    2    1    2    0    0 -0.14834088677E+03  0.33758697223E+03  0.30013867546E+04  0.31562166251E+04  0.90410782084E+03 0.  0.
         23    2    4    4    0    0 -0.32967250169E+03 -0.16103248332E+03  0.74208224857E+03  0.83367838335E+03  0.98580749476E+02 0.  0.
         23    2    4    4    0    0  0.18133161492E+03  0.49861945555E+03  0.22593045060E+04  0.23225382418E+04  0.90689126472E+02 0.  0.
          4    1    3    3  502    0  0.13866825549E+03 -0.26657757007E+03  0.10822483041E+00  0.30048710066E+03  0.00000000000E+00 0. -1.
         -3    1    3    3    0  502  0.96726312706E+01 -0.71009402159E+02 -0.30542079891E+02  0.77901948850E+02  0.00000000000E+00 0.  1.
         11    1    5    5    0    0 -0.25321804890E+03 -0.15825538026E+03  0.53159894437E+03  0.60972254618E+03  0.00000000000E+00 0.  1.
        -11    1    5    5    0    0 -0.76454452784E+02 -0.27771030540E+01  0.21048330420E+03  0.22395583716E+03  0.00000000000E+00 0. -1.
          3    1    6    6  503    0  0.14618469606E+02  0.35121092283E+02  0.84781537438E+02  0.92925238053E+02  0.00000000000E+00 0. -1.
         -3    1    6    6    0  503  0.16671314532E+03  0.46349836327E+03  0.21745229686E+04  0.22296130037E+04  0.00000000000E+00 0.  1.
<mgrwt>
<rscale>  0 0.19149089E+04</rscale>
<asrwt>0</asrwt>
<pdfrwt beam="1">  1        2 0.50042756E+00 0.19149089E+04</pdfrwt>
<pdfrwt beam="2">  1       -1 0.43357908E-01 0.19149089E+04</pdfrwt>
<totfact> 0.67227472E+00</totfact>
</mgrwt>
</event>
<event>
12    6  0.1586493E-007  0.2709775E+04  0.7818608E-02  0.8331840E-01
          2   -1    0    0  501    0  0.00000000000E+00  0.00000000000E+00  0.23619772188E+04  0.23619772188E+04  0.00000000000E+00 0. -1.
         -1   -1    0    0    0  501 -0.00000000000E+00 -0.00000000000E+00 -0.77719617133E+03  0.77719617133E+03  0.00000000000E+00 0.  1.
         24    2    1    2    0    0  0.91454569067E+03  0.56782262904E+02  0.16189195606E+04  0.18620295617E+04  0.81458574337E+02 0.  0.
        254    2    1    2    0    0 -0.91454569067E+03 -0.56782262904E+02 -0.34138513100E+02  0.12771438284E+04  0.88899543010E+03 0.  0.
         23    2    4    4    0    0 -0.27520105124E+03 -0.19551492215E+03 -0.39215158973E+03  0.52512848857E+03  0.89528525059E+02 0.  0.
         23    2    4    4    0    0 -0.63934463943E+03  0.13873265924E+03  0.35801307663E+03  0.75201533986E+03  0.96671555515E+02 0.  0.
          2    1    3    3  502    0  0.46225204613E+03  0.65796024438E+02  0.85656388746E+03  0.97555510571E+03  0.00000000000E+00 0. -1.
         -1    1    3    3    0  502  0.45229364454E+03 -0.90137615337E+01  0.76235567313E+03  0.88647445600E+03  0.00000000000E+00 0.  1.
         11    1    5    5    0    0 -0.54808060123E+02 -0.19774189517E+02 -0.11955450536E+03  0.13299707432E+03  0.00000000000E+00 0. -1.
        -11    1    5    5    0    0 -0.22039299112E+03 -0.17574073263E+03 -0.27259708437E+03  0.39213141425E+03  0.00000000000E+00 0.  1.
          4    1    6    6  503    0 -0.60343475489E+03  0.15324837859E+03  0.33767751571E+03  0.70826878625E+03  0.00000000000E+00 0.  1.
         -4    1    6    6    0  503 -0.35909884536E+02 -0.14515719348E+02  0.20335560919E+02  0.43746553618E+02  0.00000000000E+00 0. -1.
<mgrwt>
<rscale>  0 0.27097746E+04</rscale>
<asrwt>0</asrwt>
<pdfrwt beam="1">  1        2 0.36338111E+00 0.27097746E+04</pdfrwt>
<pdfrwt beam="2">  1       -1 0.11956864E+00 0.27097746E+04</pdfrwt>
<totfact> 0.26017372E+00</totfact>
</mgrwt>
</event>
<event>
12    6  0.1586493E-007  0.1478692E+04  0.7818608E-02  0.8898747E-01
          2   -1    0    0  501    0  0.00000000000E+00  0.00000000000E+00  0.26404054342E+04  0.26404054342E+04  0.00000000000E+00 0. -1.
         -1   -1    0    0    0  501 -0.00000000000E+00 -0.00000000000E+00 -0.20702601668E+03  0.20702601668E+03  0.00000000000E+00 0.  1.
         24    2    1    2    0    0  0.22789308567E+03  0.40129977785E+03  0.83475513503E+03  0.95717867057E+03  0.79988134923E+02 0.  0.
        254    2    1    2    0    0 -0.22789308567E+03 -0.40129977785E+03  0.15986242825E+04  0.18902527803E+04  0.89692764855E+03 0.  0.
         23    2    4    4    0    0 -0.11455475556E+03 -0.21956597408E+03  0.16314039274E+04  0.16526191176E+04  0.91319025629E+02 0.  0.
         23    2    4    4    0    0 -0.11333833011E+03 -0.18173380377E+03 -0.32779644887E+02  0.23763366276E+03  0.97583298028E+02 0.  0.
          4    1    3    3  502    0  0.15529993247E+03  0.23487241235E+03  0.57518324301E+03  0.64040524837E+03  0.00000000000E+00 0. -1.
         -3    1    3    3    0  502  0.72593153201E+02  0.16642736550E+03  0.25957189202E+03  0.31677342219E+03  0.00000000000E+00 0.  1.
         11    1    5    5    0    0 -0.56288570434E+02 -0.96970163516E+02  0.10301414952E+04  0.10362254175E+04  0.00000000000E+00 0. -1.
        -11    1    5    5    0    0 -0.58266185131E+02 -0.12259581057E+03  0.60126243223E+03  0.61639370009E+03  0.00000000000E+00 0.  1.
          3    1    6    6  503    0 -0.31482593718E+02 -0.56833984618E+02  0.34819186196E+02  0.73713168716E+02  0.00000000000E+00 0. -1.
         -3    1    6    6    0  503 -0.81855736391E+02 -0.12489981915E+03 -0.67598831083E+02  0.16392049405E+03  0.00000000000E+00 0.  1.
<mgrwt>
<rscale>  0 0.14786922E+04</rscale>
<asrwt>0</asrwt>
<pdfrwt beam="1">  1        2 0.40621620E+00 0.14786922E+04</pdfrwt>
<pdfrwt beam="2">  1       -1 0.31850158E-01 0.14786922E+04</pdfrwt>
<totfact> 0.29268408E+01</totfact>
</mgrwt>
</event>
<event>
12    6  0.1586493E-007  0.1779740E+04  0.7818608E-02  0.8717148E-01
         -1   -1    0    0    0  501 -0.00000000000E+00  0.00000000000E+00  0.26525316528E+03  0.26525316528E+03  0.00000000000E+00 0.  1.
          2   -1    0    0  501    0  0.00000000000E+00 -0.00000000000E+00 -0.29853306352E+04  0.29853306352E+04  0.00000000000E+00 0. -1.
         24    2    1    2    0    0  0.53954697277E+03  0.36258856571E+03 -0.12343959026E+04  0.13973093332E+04  0.78477541668E+02 0.  0.
        254    2    1    2    0    0 -0.53954697277E+03 -0.36258856571E+03 -0.14856815673E+04  0.18532744673E+04  0.89710374411E+03 0.  0.
         23    2    4    4    0    0  0.22565379270E+03 -0.17926721832E+03 -0.54304921435E+03  0.62170991797E+03  0.92544060745E+02 0.  0.
         23    2    4    4    0    0 -0.76520076548E+03 -0.18332134739E+03 -0.94263235300E+03  0.12315645493E+04  0.95165951268E+02 0.  0.
          4    1    3    3  502    0  0.42410013361E+03  0.31662096608E+03 -0.96407304229E+03  0.10997938854E+04  0.00000000000E+00 0. -1.
         -3    1    3    3    0  502  0.11544683917E+03  0.45967599622E+02 -0.27032286027E+03  0.29751544779E+03  0.00000000000E+00 0.  1.
         11    1    5    5    0    0  0.16104217899E+02 -0.11388577785E+02 -0.11309958573E+03  0.11480662799E+03  0.00000000000E+00 0.  1.
        -11    1    5    5    0    0  0.20954957480E+03 -0.16787864053E+03 -0.42994962861E+03  0.50690328998E+03  0.00000000000E+00 0. -1.
          2    1    6    6  503    0 -0.60128426220E+03 -0.11677036457E+03 -0.68343745534E+03  0.91774987735E+03  0.00000000000E+00 0. -1.
         -2    1    6    6    0  503 -0.16391650328E+03 -0.66550982822E+02 -0.25919489766E+03  0.31381467196E+03  0.00000000000E+00 0.  1.
<mgrwt>
<rscale>  0 0.17797398E+04</rscale>
<asrwt>0</asrwt>
<pdfrwt beam="1">  1        2 0.45928163E+00 0.17797398E+04</pdfrwt>
<pdfrwt beam="2">  1       -1 0.40808180E-01 0.17797398E+04</pdfrwt>
<totfact> 0.11285247E+01</totfact>
</mgrwt>
</event>
<event>
12    6  0.1586493E-007  0.2626041E+04  0.7818608E-02  0.8359409E-01
          2   -1    0    0  501    0  0.00000000000E+00  0.00000000000E+00  0.16364755421E+04  0.16364755421E+04  0.00000000000E+00 0. -1.
         -1   -1    0    0    0  501 -0.00000000000E+00 -0.00000000000E+00 -0.10534973443E+04  0.10534973443E+04  0.00000000000E+00 0.  1.
         24    2    1    2    0    0 -0.88141200764E+03 -0.75642225927E+03  0.25851860618E+03  0.11925875570E+04  0.79821362311E+02 0.  0.
        254    2    1    2    0    0  0.88141200764E+03  0.75642225927E+03  0.32445959165E+03  0.14973853294E+04  0.88759621255E+03 0.  0.
         23    2    4    4    0    0  0.41252614858E+02 -0.16690771563E+03 -0.31816955339E+02  0.19607306160E+03  0.88726338072E+02 0.  0.
         23    2    4    4    0    0  0.84015939278E+03  0.92332997490E+03  0.35627654698E+03  0.13013122678E+04  0.89858736642E+02 0.  0.
          4    1    3    3  502    0 -0.95669024921E+02 -0.51923331709E+02  0.27542090659E+02  0.11228161676E+03  0.00000000000E+00 0. -1.
         -3    1    3    3    0  502 -0.78574298271E+03 -0.70449892756E+03  0.23097651552E+03  0.10803059403E+04  0.00000000000E+00 0.  1.
         11    1    5    5    0    0  0.26155232752E+02 -0.36886695703E+01  0.75978010453E+01  0.27485069843E+02  0.00000000000E+00 0.  1.
        -11    1    5    5    0    0  0.15097382106E+02 -0.16321904606E+03 -0.39414756384E+02  0.16858799176E+03  0.00000000000E+00 0. -1.
          3    1    6    6  503    0  0.34068232612E+03  0.42885462735E+03  0.18247816220E+03  0.57730322916E+03  0.00000000000E+00 0. -1.
         -3    1    6    6    0  503  0.49947706666E+03  0.49447534755E+03  0.17379838479E+03  0.72400903863E+03  0.00000000000E+00 0.  1.
<mgrwt>
<rscale>  0 0.26260409E+04</rscale>
<asrwt>0</asrwt>
<pdfrwt beam="1">  1        2 0.25176547E+00 0.26260409E+04</pdfrwt>
<pdfrwt beam="2">  1       -1 0.16207651E+00 0.26260409E+04</pdfrwt>
<totfact> 0.30141517E+00</totfact>
</mgrwt>
</event>
<event>
12    6  0.1586493E-007  0.1951743E+04  0.7818608E-02  0.8629521E-01
          2   -1    0    0  501    0  0.00000000000E+00  0.00000000000E+00  0.10830449931E+04  0.10830449931E+04  0.00000000000E+00 0. -1.
         -1   -1    0    0    0  501 -0.00000000000E+00 -0.00000000000E+00 -0.87930299580E+03  0.87930299580E+03  0.00000000000E+00 0.  1.
         24    2    1    2    0    0 -0.12610163881E+03  0.31556130130E+03 -0.61111368286E+03  0.70380896159E+03  0.80041007311E+02 0.  0.
        254    2    1    2    0    0  0.12610163881E+03 -0.31556130130E+03  0.81485568018E+03  0.12585390273E+04  0.89691144804E+03 0.  0.
         23    2    4    4    0    0 -0.29452101433E+03  0.63121225813E+00  0.29916671629E+02  0.30901582093E+03  0.88615709853E+02 0.  0.
         23    2    4    4    0    0  0.42062265314E+03 -0.31619251356E+03  0.78493900855E+03  0.94952320641E+03  0.92541614426E+02 0.  0.
          2    1    3    3  502    0 -0.51759337343E+02  0.66258142736E+02 -0.10291664034E+03  0.13289471524E+03  0.00000000000E+00 0. -1.
         -1    1    3    3    0  502 -0.74342301466E+02  0.24930315856E+03 -0.50819704252E+03  0.57091424635E+03  0.00000000000E+00 0.  1.
         11    1    5    5    0    0 -0.21550148132E+02 -0.20795241585E+02 -0.11521810353E+02  0.32087428549E+02  0.00000000000E+00 0.  1.
        -11    1    5    5    0    0 -0.27297086620E+03  0.21426453844E+02  0.41438481982E+02  0.27692839238E+03  0.00000000000E+00 0. -1.
          3    1    6    6  503    0  0.33043171245E+03 -0.29057142918E+03  0.63077220051E+03  0.76908415728E+03  0.00000000000E+00 0. -1.
         -3    1    6    6    0  503  0.90190940695E+02 -0.25621084371E+02  0.15416680804E+03  0.18043904913E+03  0.00000000000E+00 0.  1.
<mgrwt>
<rscale>  0 0.19517425E+04</rscale>
<asrwt>0</asrwt>
<pdfrwt beam="1">  1        2 0.16662231E+00 0.19517425E+04</pdfrwt>
<pdfrwt beam="2">  1       -1 0.13527738E+00 0.19517425E+04</pdfrwt>
<totfact> 0.10880251E+01</totfact>
</mgrwt>
</event>
<event>
12    6  0.1586493E-007  0.2297654E+04  0.7818608E-02  0.8478847E-01
         -1   -1    0    0    0  501 -0.00000000000E+00  0.00000000000E+00  0.11261262659E+04  0.11261262659E+04  0.00000000000E+00 0.  1.
          2   -1    0    0  501    0  0.00000000000E+00 -0.00000000000E+00 -0.11719857622E+04  0.11719857622E+04  0.00000000000E+00 0. -1.
         24    2    1    2    0    0  0.43776274299E+03 -0.37725816395E+02 -0.88553915869E+03  0.99175570811E+03  0.79626168036E+02 0.  0.
        254    2    1    2    0    0 -0.43776274299E+03  0.37725816395E+02  0.83967966233E+03  0.13063563199E+04  0.89913594243E+03 0.  0.
         23    2    4    4    0    0  0.21720508515E+03 -0.18808462722E+03  0.23745352992E+03  0.38347101534E+03  0.90066446147E+02 0.  0.
         23    2    4    4    0    0 -0.65496782814E+03  0.22581044362E+03  0.60222613241E+03  0.92288530461E+03  0.95224779141E+02 0.  0.
          4    1    3    3  502    0  0.37873265084E+03 -0.52569274801E+01 -0.73617391226E+03  0.82789980384E+03  0.00000000000E+00 0. -1.
         -3    1    3    3    0  502  0.59030092146E+02 -0.32468888915E+02 -0.14936524642E+03  0.16385590427E+03  0.00000000000E+00 0.  1.
         11    1    5    5    0    0 -0.19152809319E+01 -0.31946861561E+01 -0.61912372703E+01  0.72253539443E+01  0.00000000000E+00 0.  1.
        -11    1    5    5    0    0  0.21912036608E+03 -0.18488994107E+03  0.24364476719E+03  0.37624566139E+03  0.00000000000E+00 0. -1.
          2    1    6    6  503    0 -0.56015823655E+03  0.21587601260E+03  0.48475240334E+03  0.77159872689E+03  0.00000000000E+00 0. -1.
         -2    1    6    6    0  503 -0.94809591587E+02  0.99344310174E+01  0.11747372907E+03  0.15128657772E+03  0.00000000000E+00 0.  1.
<mgrwt>
<rscale>  0 0.22976544E+04</rscale>
<asrwt>0</asrwt>
<pdfrwt beam="1">  1        2 0.18030550E+00 0.22976544E+04</pdfrwt>
<pdfrwt beam="2">  1       -1 0.17325020E+00 0.22976544E+04</pdfrwt>
<totfact> 0.47410763E+00</totfact>
</mgrwt>
</event>
<event>
12    6  0.1586493E-007  0.1121941E+04  0.7818608E-02  0.9184066E-01
         -1   -1    0    0    0  501 -0.00000000000E+00  0.00000000000E+00  0.90255340580E+03  0.90255340580E+03  0.00000000000E+00 0.  1.
          2   -1    0    0  501    0  0.00000000000E+00 -0.00000000000E+00 -0.34866421673E+03  0.34866421673E+03  0.00000000000E+00 0. -1.
         24    2    1    2    0    0  0.10852233382E+03  0.60497466364E+02  0.27597649668E+03  0.31223011905E+03  0.76730568554E+02 0.  0.
        254    2    1    2    0    0 -0.10852233382E+03 -0.60497466364E+02  0.27791269239E+03  0.93898750347E+03  0.88827080708E+03 0.  0.
         23    2    4    4    0    0 -0.13710940108E+03 -0.41770364904E+03  0.34108627789E+03  0.56383851696E+03  0.91097189621E+02 0.  0.
         23    2    4    4    0    0  0.28587067259E+02  0.35720618267E+03 -0.63173585497E+02  0.37514898651E+03  0.91281886615E+02 0.  0.
          4    1    3    3  502    0 -0.51603083681E+01 -0.10515175905E+02  0.17367638618E+02  0.20948331149E+02  0.00000000000E+00 0. -1.
         -3    1    3    3    0  502  0.11368264218E+03  0.71012642270E+02  0.25860885806E+03  0.29128178790E+03  0.00000000000E+00 0.  1.
         11    1    5    5    0    0 -0.25730976204E+02 -0.14231223238E+03  0.16116439869E+03  0.21653825996E+03  0.00000000000E+00 0.  1.
        -11    1    5    5    0    0 -0.11137842487E+03 -0.27539141665E+03  0.17992187920E+03  0.34730025699E+03  0.00000000000E+00 0. -1.
          4    1    6    6  503    0  0.32745537170E+02  0.32871028635E+03 -0.30722954788E+02  0.33176290104E+03  0.00000000000E+00 0. -1.
         -4    1    6    6    0  503 -0.41584699106E+01  0.28495896325E+02 -0.32450630709E+02  0.43386085474E+02  0.00000000000E+00 0.  1.
<mgrwt>
<rscale>  0 0.11219413E+04</rscale>
<asrwt>0</asrwt>
<pdfrwt beam="1">  1        2 0.53640649E-01 0.11219413E+04</pdfrwt>
<pdfrwt beam="2">  1       -1 0.13885437E+00 0.11219413E+04</pdfrwt>
<totfact> 0.45143019E+01</totfact>
</mgrwt>
</event>
<event>
12    6  0.1586493E-007  0.1319587E+04  0.7818608E-02  0.9014175E-01
         -1   -1    0    0    0  501 -0.00000000000E+00  0.00000000000E+00  0.36322034061E+03  0.36322034061E+03  0.00000000000E+00 0.  1.
          2   -1    0    0  501    0  0.00000000000E+00 -0.00000000000E+00 -0.11985217923E+04  0.11985217923E+04  0.00000000000E+00 0. -1.
         24    2    1    2    0    0 -0.70056578741E+02  0.33858248169E+03 -0.20357877925E+03  0.40927481753E+03  0.80718868749E+02 0.  0.
        254    2    1    2    0    0  0.70056578741E+02 -0.33858248169E+03 -0.63172267244E+03  0.11524673154E+04  0.89975627644E+03 0.  0.
         23    2    4    4    0    0  0.18921605170E+03 -0.52983416781E+03 -0.69789260171E+03  0.90109936678E+03  0.91646198443E+02 0.  0.
         23    2    4    4    0    0 -0.11915947295E+03  0.19125168612E+03  0.66169929268E+02  0.25136794860E+03  0.89616954896E+02 0.  0.
          4    1    3    3  502    0 -0.34446823134E+02  0.27845050592E+03 -0.13500057006E+03  0.31136220353E+03  0.00000000000E+00 0. -1.
         -3    1    3    3    0  502 -0.35609755607E+02  0.60131975767E+02 -0.68578209192E+02  0.97912613999E+02  0.00000000000E+00 0.  1.
         11    1    5    5    0    0  0.18412426269E+03 -0.52383584134E+03 -0.69948056505E+03  0.89307266987E+03  0.00000000000E+00 0. -1.
        -11    1    5    5    0    0  0.50917890051E+01 -0.59983264630E+01  0.15879633412E+01  0.80266969048E+01  0.00000000000E+00 0.  1.
          4    1    6    6  503    0 -0.93874608710E+02  0.19546854848E+03  0.60309316309E+02  0.22507245331E+03  0.00000000000E+00 0. -1.
         -4    1    6    6    0  503 -0.25284864245E+02 -0.42168623635E+01  0.58606129582E+01  0.26295495286E+02  0.00000000000E+00 0.  1.
<mgrwt>
<rscale>  0 0.13195870E+04</rscale>
<asrwt>0</asrwt>
<pdfrwt beam="1">  1        2 0.18438797E+00 0.13195870E+04</pdfrwt>
<pdfrwt beam="2">  1       -1 0.55880052E-01 0.13195870E+04</pdfrwt>
<totfact> 0.68608771E+01</totfact>
</mgrwt>
</event>
<event>
12    6  0.1586493E-007  0.1343220E+04  0.7818608E-02  0.8995977E-01
          2   -1    0    0  501    0  0.00000000000E+00  0.00000000000E+00  0.25941676559E+04  0.25941676559E+04  0.00000000000E+00 0. -1.
         -1   -1    0    0    0  501 -0.00000000000E+00 -0.00000000000E+00 -0.17387456698E+03  0.17387456698E+03  0.00000000000E+00 0.  1.
         24    2    1    2    0    0  0.19699459341E+03  0.23914530934E+02  0.12950476520E+04  0.13138327849E+04  0.98129460223E+02 0.  0.
        254    2    1    2    0    0 -0.19699459341E+03 -0.23914530934E+02  0.11252454369E+04  0.14542094380E+04  0.89953822691E+03 0.  0.
         23    2    4    4    0    0 -0.49552508455E+03 -0.91942040165E+02  0.36274944179E+03  0.62749941182E+03  0.90387533171E+02 0.  0.
         23    2    4    4    0    0  0.29853049114E+03  0.68027509231E+02  0.76249599507E+03  0.82671002614E+03  0.91110529948E+02 0.  0.
          4    1    3    3  502    0  0.16478232772E+03 -0.20524871907E+02  0.10076887349E+04  0.10212791353E+04  0.00000000000E+00 0. -1.
         -3    1    3    3    0  502  0.32212265686E+02  0.44439402840E+02  0.28735891719E+03  0.29255364956E+03  0.00000000000E+00 0.  1.
         11    1    5    5    0    0 -0.40204183291E+03 -0.82178612295E+02  0.24919970199E+03  0.48009525222E+03  0.00000000000E+00 0. -1.
        -11    1    5    5    0    0 -0.93483251635E+02 -0.97634278697E+01  0.11354973980E+03  0.14740415960E+03  0.00000000000E+00 0.  1.
          3    1    6    6  503    0  0.21432979954E+03  0.88214127353E+02  0.58433732195E+03  0.62862476968E+03  0.00000000000E+00 0. -1.
         -3    1    6    6    0  503  0.84200691599E+02 -0.20186618121E+02  0.17815867312E+03  0.19808525645E+03  0.00000000000E+00 0.  1.
<mgrwt>
<rscale>  0 0.13432197E+04</rscale>
<asrwt>0</asrwt>
<pdfrwt beam="1">  1        2 0.39910269E+00 0.13432197E+04</pdfrwt>
<pdfrwt beam="2">  1       -1 0.26749935E-01 0.13432197E+04</pdfrwt>
<totfact> 0.42775166E+01</totfact>
</mgrwt>
</event>
<event>
12    6  0.1586493E-007  0.3361466E+04  0.7818608E-02  0.8147429E-01
         -1   -1    0    0    0  501 -0.00000000000E+00  0.00000000000E+00  0.89910345232E+03  0.89910345232E+03  0.00000000000E+00 0.  1.
          2   -1    0    0  501    0  0.00000000000E+00 -0.00000000000E+00 -0.31418674489E+04  0.31418674489E+04  0.00000000000E+00 0. -1.
         24    2    1    2    0    0 -0.14901551809E+04 -0.19211288931E+03 -0.15805172407E+04  0.21822889827E+04  0.82949566718E+02 0.  0.
        254    2    1    2    0    0  0.14901551809E+04  0.19211288931E+03 -0.66224675586E+03  0.18586819185E+04  0.87100969168E+03 0.  0.
         23    2    4    4    0    0  0.10287954667E+04  0.42761090417E+03 -0.15604379692E+03  0.11287266728E+04  0.91668083887E+02 0.  0.
         23    2    4    4    0    0  0.46135971415E+03 -0.23549801487E+03 -0.50620295893E+03  0.72995524565E+03  0.91000682256E+02 0.  0.
          2    1    3    3  502    0 -0.10739028454E+04 -0.15451503662E+03 -0.11888275314E+04  0.16094884645E+04  0.00000000000E+00 0. -1.
         -1    1    3    3    0  502 -0.41625233546E+03 -0.37597852690E+02 -0.39168970926E+03  0.57280051819E+03  0.00000000000E+00 0.  1.
         11    1    5    5    0    0  0.31280372789E+03  0.85247583794E+02 -0.40859829993E+02  0.32677645024E+03  0.00000000000E+00 0. -1.
        -11    1    5    5    0    0  0.71599173885E+03  0.34236332038E+03 -0.11518396693E+03  0.80195022257E+03  0.00000000000E+00 0.  1.
          4    1    6    6  503    0  0.19595888953E+03 -0.88863112380E+02 -0.15062402945E+03  0.26264831500E+03  0.00000000000E+00 0. -1.
         -4    1    6    6    0  503  0.26540082463E+03 -0.14663490249E+03 -0.35557892948E+03  0.46730693065E+03  0.00000000000E+00 0.  1.
<mgrwt>
<rscale>  0 0.33614663E+04</rscale>
<asrwt>0</asrwt>
<pdfrwt beam="1">  1        2 0.48336422E+00 0.33614663E+04</pdfrwt>
<pdfrwt beam="2">  1       -1 0.13832361E+00 0.33614663E+04</pdfrwt>
<totfact> 0.57687526E-01</totfact>
</mgrwt>
</event>
<event>
12    6  0.1586493E-007  0.3918594E+04  0.7818608E-02  0.8021173E-01
          2   -1    0    0  501    0  0.00000000000E+00  0.00000000000E+00  0.21083735787E+04  0.21083735787E+04  0.00000000000E+00 0. -1.
         -1   -1    0    0    0  501 -0.00000000000E+00 -0.00000000000E+00 -0.18207616089E+04  0.18207616089E+04  0.00000000000E+00 0.  1.
         24    2    1    2    0    0  0.14543491213E+03 -0.66544397835E+03 -0.15860604297E+04  0.17280595467E+04  0.81456174012E+02 0.  0.
        254    2    1    2    0    0 -0.14543491213E+03  0.66544397835E+03  0.18736723995E+04  0.22010756409E+04  0.93280154070E+03 0.  0.
         23    2    4    4    0    0 -0.61758008794E+02  0.88937889446E+03  0.15287672978E+04  0.17720644468E+04  0.90961988317E+02 0.  0.
         23    2    4    4    0    0 -0.83676903336E+02 -0.22393491611E+03  0.34490510175E+03  0.42901119412E+03  0.89120169781E+02 0.  0.
          2    1    3    3  502    0  0.41576765198E+01  0.12321005212E+01 -0.13688552054E+02  0.14358997286E+02  0.00000000000E+00 0. -1.
         -1    1    3    3    0  502  0.14127723561E+03 -0.66667607887E+03 -0.15723718777E+04  0.17137005495E+04  0.00000000000E+00 0.  1.
         11    1    5    5    0    0 -0.30773976639E+01  0.16550582225E+03  0.22029576782E+03  0.27555738584E+03  0.00000000000E+00 0. -1.
        -11    1    5    5    0    0 -0.58680611130E+02  0.72387307221E+03  0.13084715300E+04  0.14965070610E+04  0.00000000000E+00 0.  1.
          1    1    6    6  503    0  0.13160197325E+02 -0.34867450241E+01  0.11935321402E+02  0.18105250108E+02  0.00000000000E+00 0. -1.
         -1    1    6    6    0  503 -0.96837100661E+02 -0.22044817108E+03  0.33296978035E+03  0.41090594401E+03  0.00000000000E+00 0.  1.
<mgrwt>
<rscale>  0 0.39185945E+04</rscale>
<asrwt>0</asrwt>
<pdfrwt beam="1">  1        2 0.32436517E+00 0.39185945E+04</pdfrwt>
<pdfrwt beam="2">  1       -1 0.28011717E+00 0.39185945E+04</pdfrwt>
<totfact> 0.23326650E-01</totfact>
</mgrwt>
</event>
<event>
12    6  0.1586493E-007  0.1791270E+04  0.7818608E-02  0.8710956E-01
         -1   -1    0    0    0  501 -0.00000000000E+00  0.00000000000E+00  0.76294421077E+03  0.76294421077E+03  0.00000000000E+00 0.  1.
          2   -1    0    0  501    0  0.00000000000E+00 -0.00000000000E+00 -0.10514027564E+04  0.10514027564E+04  0.00000000000E+00 0. -1.
         24    2    1    2    0    0 -0.58345734060E+03 -0.65675945006E+02 -0.42801348118E+03  0.73112535025E+03  0.81319983142E+02 0.  0.
        254    2    1    2    0    0  0.58345734060E+03  0.65675945006E+02  0.13955493555E+03  0.10832216169E+04  0.89953193009E+03 0.  0.
         23    2    4    4    0    0  0.41667307554E+03 -0.36634882535E+03 -0.68638821786E+02  0.56712216854E+03  0.95332850979E+02 0.  0.
         23    2    4    4    0    0  0.16678426506E+03  0.43202477036E+03  0.20819375734E+03  0.51609944837E+03  0.92474897845E+02 0.  0.
          4    1    3    3  502    0 -0.83658784085E+02  0.18598141545E+02 -0.55456738481E+02  0.10207905204E+03  0.00000000000E+00 0. -1.
         -3    1    3    3    0  502 -0.49979855652E+03 -0.84274086551E+02 -0.37255674270E+03  0.62904629821E+03  0.00000000000E+00 0.  1.
         11    1    5    5    0    0  0.16984220303E+03 -0.10138843553E+03 -0.52467658745E+02  0.20464321147E+03  0.00000000000E+00 0. -1.
        -11    1    5    5    0    0  0.24683087251E+03 -0.26496038983E+03 -0.16171163042E+02  0.36247895707E+03  0.00000000000E+00 0.  1.
          1    1    6    6  503    0  0.56524102508E+02  0.10060040267E+03  0.13395827918E+02  0.11616739382E+03  0.00000000000E+00 0.  1.
         -1    1    6    6    0  503  0.11026016256E+03  0.33142436769E+03  0.19479792942E+03  0.39993205454E+03  0.00000000000E+00 0. -1.
<mgrwt>
<rscale>  0 0.17912695E+04</rscale>
<asrwt>0</asrwt>
<pdfrwt beam="1">  1        2 0.16175427E+00 0.17912695E+04</pdfrwt>
<pdfrwt beam="2">  1       -1 0.11737603E+00 0.17912695E+04</pdfrwt>
<totfact> 0.16450914E+01</totfact>
</mgrwt>
</event>
<event>
12    6  0.1586493E-007  0.1728088E+04  0.7818608E-02  0.8745505E-01
         -1   -1    0    0    0  501 -0.00000000000E+00  0.00000000000E+00  0.28973700394E+03  0.28973700394E+03  0.00000000000E+00 0.  1.
          2   -1    0    0  501    0  0.00000000000E+00 -0.00000000000E+00 -0.25767218802E+04  0.25767218802E+04  0.00000000000E+00 0. -1.
         24    2    1    2    0    0 -0.41574195077E+03  0.44720447739E+03 -0.61814552348E+03  0.87151106586E+03  0.67782265241E+02 0.  0.
        254    2    1    2    0    0  0.41574195077E+03 -0.44720447739E+03 -0.16688393528E+04  0.19949478183E+04  0.90661943398E+03 0.  0.
         23    2    4    4    0    0  0.27221625108E+03 -0.14921695029E+02 -0.27148937103E+02  0.28882902695E+03  0.91437397635E+02 0.  0.
         23    2    4    4    0    0  0.14352569969E+03 -0.43228278236E+03 -0.16416904156E+04  0.17061187913E+04  0.90696630862E+02 0.  0.
          2    1    3    3  502    0 -0.26265120469E+03  0.25758530901E+03 -0.41171366446E+03  0.55212678638E+03  0.00000000000E+00 0. -1.
         -1    1    3    3    0  502 -0.15309074608E+03  0.18961916838E+03 -0.20643185902E+03  0.31938427947E+03  0.00000000000E+00 0.  1.
         11    1    5    5    0    0  0.28753286895E+02  0.26391122829E+02  0.66245157125E+01  0.39586955930E+02  0.00000000000E+00 0.  1.
        -11    1    5    5    0    0  0.24346296419E+03 -0.41312817858E+02 -0.33773452816E+02  0.24924207102E+03  0.00000000000E+00 0. -1.
          1    1    6    6  503    0  0.14045980109E+03 -0.38293139750E+03 -0.15391705486E+04  0.15922975189E+04  0.00000000000E+00 0. -1.
         -1    1    6    6    0  503  0.30658985951E+01 -0.49351384861E+02 -0.10251986705E+03  0.11382127244E+03  0.00000000000E+00 0.  1.
<mgrwt>
<rscale>  0 0.17280876E+04</rscale>
<asrwt>0</asrwt>
<pdfrwt beam="1">  1        2 0.39641876E+00 0.17280876E+04</pdfrwt>
<pdfrwt beam="2">  1       -1 0.44574923E-01 0.17280876E+04</pdfrwt>
<totfact> 0.16956715E+01</totfact>
</mgrwt>
</event>
<event>
12    6  0.1586493E-007  0.1314026E+04  0.7818608E-02  0.9018516E-01
         -1   -1    0    0    0  501 -0.00000000000E+00  0.00000000000E+00  0.14508764631E+03  0.14508764631E+03  0.00000000000E+00 0.  1.
          2   -1    0    0  501    0  0.00000000000E+00 -0.00000000000E+00 -0.29752069594E+04  0.29752069594E+04  0.00000000000E+00 0. -1.
         24    2    1    2    0    0 -0.27916742086E+03 -0.18813450813E+03 -0.61182946829E+03  0.70301667333E+03  0.81043831881E+02 0.  0.
        254    2    1    2    0    0  0.27916742086E+03  0.18813450813E+03 -0.22182898448E+04  0.24172779324E+04  0.89949637292E+03 0.  0.
         23    2    4    4    0    0  0.36596719260E+03 -0.13076684833E+03 -0.39333985145E+03  0.56039443711E+03  0.91069927661E+02 0.  0.
         23    2    4    4    0    0 -0.86799771744E+02  0.31890135646E+03 -0.18249499934E+04  0.18568834953E+04  0.91332148267E+02 0.  0.
          4    1    3    3  502    0 -0.23202706317E+03 -0.18876673122E+03 -0.52946671962E+03  0.60811548578E+03  0.00000000000E+00 0. -1.
         -3    1    3    3    0  502 -0.47140357685E+02  0.63222309214E+00 -0.82362748674E+02  0.94901187548E+02  0.00000000000E+00 0.  1.
         11    1    5    5    0    0  0.32646340230E+03 -0.10253087011E+03 -0.37705940422E+03  0.50918044609E+03  0.00000000000E+00 0.  1.
        -11    1    5    5    0    0  0.39503790305E+02 -0.28235978222E+02 -0.16280447223E+02  0.51213991022E+02  0.00000000000E+00 0. -1.
          1    1    6    6  503    0 -0.13067154116E+02  0.66519215598E+02 -0.61317501315E+03  0.61691097681E+03  0.00000000000E+00 0. -1.
         -1    1    6    6    0  503 -0.73732617629E+02  0.25238214086E+03 -0.12117749802E+04  0.12399725185E+04  0.00000000000E+00 0.  1.
<mgrwt>
<rscale>  0 0.13140255E+04</rscale>
<asrwt>0</asrwt>
<pdfrwt beam="1">  1        2 0.45772410E+00 0.13140255E+04</pdfrwt>
<pdfrwt beam="2">  1       -1 0.22321178E-01 0.13140255E+04</pdfrwt>
<totfact> 0.34573286E+01</totfact>
</mgrwt>
</event>
<event>
12    6  0.1586493E-007  0.1688346E+04  0.7818608E-02  0.8768039E-01
         -1   -1    0    0    0  501 -0.00000000000E+00  0.00000000000E+00  0.26505969114E+03  0.26505969114E+03  0.00000000000E+00 0.  1.
          2   -1    0    0  501    0  0.00000000000E+00 -0.00000000000E+00 -0.26885574812E+04  0.26885574812E+04  0.00000000000E+00 0. -1.
         24    2    1    2    0    0  0.17530150473E+03  0.51057999478E+03 -0.13401328258E+04  0.14466480716E+04  0.73567001103E+02 0.  0.
        254    2    1    2    0    0 -0.17530150473E+03 -0.51057999478E+03 -0.10833649643E+04  0.15069691008E+04  0.89769353137E+03 0.  0.
         23    2    4    4    0    0 -0.45764486485E+03 -0.60238651310E+02 -0.71338774700E+03  0.85450538410E+03  0.90497825665E+02 0.  0.
         23    2    4    4    0    0  0.28234336012E+03 -0.45034134347E+03 -0.36997721733E+03  0.65246371672E+03  0.79376707273E+02 0.  0.
          2    1    3    3  502    0  0.89724237716E+02  0.19787270558E+03 -0.46076613044E+03  0.50942072338E+03  0.00000000000E+00 0. -1.
         -1    1    3    3    0  502  0.85577267015E+02  0.31270728919E+03 -0.87936669532E+03  0.93722734818E+03  0.00000000000E+00 0.  1.
         11    1    5    5    0    0 -0.45949777604E+03 -0.52581374133E+02 -0.70195046552E+03  0.84061731075E+03  0.00000000000E+00 0. -1.
        -11    1    5    5    0    0  0.18529111914E+01 -0.76572771767E+01 -0.11437281478E+02  0.13888073345E+02  0.00000000000E+00 0.  1.
          3    1    6    6  503    0  0.25611169843E+03 -0.41386591882E+03 -0.30820353151E+03  0.57607952373E+03  0.00000000000E+00 0. -1.
         -3    1    6    6    0  503  0.26231661691E+02 -0.36475424645E+02 -0.61773685825E+02  0.76384192989E+02  0.00000000000E+00 0.  1.
<mgrwt>
<rscale>  0 0.16883462E+04</rscale>
<asrwt>0</asrwt>
<pdfrwt beam="1">  1        2 0.41362421E+00 0.16883462E+04</pdfrwt>
<pdfrwt beam="2">  1       -1 0.40778416E-01 0.16883462E+04</pdfrwt>
<totfact> 0.17245686E+01</totfact>
</mgrwt>
</event>
<event>
12    6  0.1586493E-007  0.1718313E+04  0.7818608E-02  0.8750988E-01
          2   -1    0    0  501    0  0.00000000000E+00  0.00000000000E+00  0.87054794075E+03  0.87054794075E+03  0.00000000000E+00 0. -1.
         -1   -1    0    0    0  501 -0.00000000000E+00 -0.00000000000E+00 -0.84791426487E+03  0.84791426487E+03  0.00000000000E+00 0.  1.
         24    2    1    2    0    0  0.36083630612E+03 -0.49884596343E+03  0.97092794434E+02  0.62811672150E+03  0.77804049136E+02 0.  0.
        254    2    1    2    0    0 -0.36083630612E+03  0.49884596343E+03 -0.74459118555E+02  0.10903454841E+04  0.89680487251E+03 0.  0.
         23    2    4    4    0    0 -0.18009809402E+03  0.52745667525E+03  0.31759064994E+03  0.64802761199E+03  0.91815560942E+02 0.  0.
         23    2    4    4    0    0 -0.18073821210E+03 -0.28610711828E+02 -0.39204976849E+03  0.44231787213E+03  0.91963062623E+02 0.  0.
          4    1    3    3  502    0  0.17207030639E+03 -0.29801779677E+03  0.69982142479E+02  0.35116989877E+03  0.00000000000E+00 0. -1.
         -3    1    3    3    0  502  0.18876599973E+03 -0.20082816666E+03  0.27110651954E+02  0.27694682274E+03  0.00000000000E+00 0.  1.
         11    1    5    5    0    0 -0.47118031550E+02  0.12186304254E+03  0.32178899051E+02  0.13455924933E+03  0.00000000000E+00 0.  1.
        -11    1    5    5    0    0 -0.13298006247E+03  0.40559363271E+03  0.28541175089E+03  0.51346836266E+03  0.00000000000E+00 0. -1.
          4    1    6    6  503    0 -0.16539663817E+03 -0.20897023752E+02 -0.39106604960E+03  0.42511808791E+03  0.00000000000E+00 0. -1.
         -4    1    6    6    0  503 -0.15341573928E+02 -0.77136880754E+01 -0.98371889274E+00  0.17199784219E+02  0.00000000000E+00 0.  1.
<mgrwt>
<rscale>  0 0.17183131E+04</rscale>
<asrwt>0</asrwt>
<pdfrwt beam="1">  1        2 0.13393045E+00 0.17183131E+04</pdfrwt>
<pdfrwt beam="2">  1       -1 0.13044835E+00 0.17183131E+04</pdfrwt>
<totfact> 0.16747794E+01</totfact>
</mgrwt>
</event>
<event>
12    6  0.1586493E-007  0.1158788E+04  0.7818608E-02  0.9149714E-01
         -1   -1    0    0    0  501 -0.00000000000E+00  0.00000000000E+00  0.18769981144E+03  0.18769981144E+03  0.00000000000E+00 0.  1.
          2   -1    0    0  501    0  0.00000000000E+00 -0.00000000000E+00 -0.17884812153E+04  0.17884812153E+04  0.00000000000E+00 0. -1.
         24    2    1    2    0    0  0.12600642026E+03 -0.16819779850E+03 -0.15513540683E+03  0.27270658128E+03  0.78318373663E+02 0.  0.
        254    2    1    2    0    0 -0.12600642026E+03  0.16819779850E+03 -0.14456459970E+04  0.17034744454E+04  0.87622184419E+03 0.  0.
         23    2    4    4    0    0  0.26800888774E+03  0.76174134748E+02 -0.11677572067E+04  0.12040170943E+04  0.91482275450E+02 0.  0.
         23    2    4    4    0    0 -0.39401530799E+03  0.92023663755E+02 -0.27788879028E+03  0.49945735118E+03  0.92298690443E+02 0.  0.
          2    1    3    3  502    0  0.32040652590E+02 -0.13037231468E+02 -0.56446755653E+02  0.66202787302E+02  0.00000000000E+00 0. -1.
         -1    1    3    3    0  502  0.93965767665E+02 -0.15516056703E+03 -0.98688651177E+02  0.20650379398E+03  0.00000000000E+00 0.  1.
         11    1    5    5    0    0  0.16213289236E+03  0.48195016100E+01 -0.56136522843E+03  0.58432972034E+03  0.00000000000E+00 0. -1.
        -11    1    5    5    0    0  0.10587599538E+03  0.71354633138E+02 -0.60639197828E+03  0.61968737392E+03  0.00000000000E+00 0.  1.
          3    1    6    6  503    0 -0.56853640303E+02  0.49034061298E+02 -0.53079604005E+02  0.91946288367E+02  0.00000000000E+00 0. -1.
         -3    1    6    6    0  503 -0.33716166769E+03  0.42989602457E+02 -0.22480918628E+03  0.40751106281E+03  0.00000000000E+00 0.  1.
<mgrwt>
<rscale>  0 0.11587883E+04</rscale>
<asrwt>0</asrwt>
<pdfrwt beam="1">  1        2 0.27515095E+00 0.11587883E+04</pdfrwt>
<pdfrwt beam="2">  1       -1 0.28876895E-01 0.11587883E+04</pdfrwt>
<totfact> 0.10770878E+02</totfact>
</mgrwt>
</event>
<event>
12    6  0.1586493E-007  0.1718158E+04  0.7818608E-02  0.8751075E-01
          2   -1    0    0  501    0  0.00000000000E+00  0.00000000000E+00  0.45155230283E+03  0.45155230283E+03  0.00000000000E+00 0. -1.
         -1   -1    0    0    0  501 -0.00000000000E+00 -0.00000000000E+00 -0.16343993754E+04  0.16343993754E+04  0.00000000000E+00 0.  1.
         24    2    1    2    0    0  0.51026305631E+03  0.18470293908E+03 -0.79568309173E+03  0.96660530888E+03  0.82040711516E+02 0.  0.
        254    2    1    2    0    0 -0.51026305631E+03 -0.18470293908E+03 -0.38716398087E+03  0.11193463694E+04  0.89919785601E+03 0.  0.
         23    2    4    4    0    0 -0.24425529500E+02  0.31386146182E+02 -0.54760970005E+03  0.55656204472E+03  0.91122057534E+02 0.  0.
         23    2    4    4    0    0 -0.48583752681E+03 -0.21608908527E+03  0.16044571918E+03  0.56278432468E+03  0.90833760656E+02 0.  0.
          4    1    3    3  502    0  0.17001038900E+03  0.76385190689E+02 -0.33941492686E+03  0.38722179988E+03  0.00000000000E+00 0. -1.
         -3    1    3    3    0  502  0.34025266731E+03  0.10831774839E+03 -0.45626816487E+03  0.57938350900E+03  0.00000000000E+00 0.  1.
         11    1    5    5    0    0 -0.14645269886E+02  0.63489709159E+02 -0.39158500620E+03  0.39696882016E+03  0.00000000000E+00 0. -1.
        -11    1    5    5    0    0 -0.97802596148E+01 -0.32103562976E+02 -0.15602469385E+03  0.15959322456E+03  0.00000000000E+00 0.  1.
          4    1    6    6  503    0 -0.18820629850E+03 -0.40788062204E+02  0.37891094137E+02  0.19626770449E+03  0.00000000000E+00 0.  1.
         -4    1    6    6    0  503 -0.29763122831E+03 -0.17530102306E+03  0.12255462504E+03  0.36651662018E+03  0.00000000000E+00 0. -1.
<mgrwt>
<rscale>  0 0.17181581E+04</rscale>
<asrwt>0</asrwt>
<pdfrwt beam="1">  1        2 0.69469584E-01 0.17181581E+04</pdfrwt>
<pdfrwt beam="2">  1       -1 0.25144606E+00 0.17181581E+04</pdfrwt>
<totfact> 0.51347447E+00</totfact>
</mgrwt>
</event>
<event>
12    6  0.1586493E-007  0.2025354E+04  0.7818608E-02  0.8594858E-01
         -1   -1    0    0    0  501 -0.00000000000E+00  0.00000000000E+00  0.58167834276E+03  0.58167834276E+03  0.00000000000E+00 0.  1.
          2   -1    0    0  501    0  0.00000000000E+00 -0.00000000000E+00 -0.17630262886E+04  0.17630262886E+04  0.00000000000E+00 0. -1.
         24    2    1    2    0    0 -0.75305661453E+03  0.27928347680E+03 -0.60218699118E+03  0.10070300247E+04  0.79917289483E+02 0.  0.
        254    2    1    2    0    0  0.75305661453E+03 -0.27928347680E+03 -0.57916095469E+03  0.13376746067E+04  0.89936222785E+03 0.  0.
         23    2    4    4    0    0  0.35099194542E+03 -0.37721757797E+03  0.10429947997E+03  0.53370031661E+03  0.92028254057E+02 0.  0.
         23    2    4    4    0    0  0.40206466911E+03  0.97934101170E+02 -0.68346043466E+03  0.80397429009E+03  0.89495290750E+02 0.  0.
          4    1    3    3  502    0 -0.73003729609E+03  0.28393200837E+03 -0.57940270086E+03  0.97430966783E+03  0.00000000000E+00 0. -1.
         -3    1    3    3    0  502 -0.23019318435E+02 -0.46485315653E+01 -0.22784290320E+02  0.32720356848E+02  0.00000000000E+00 0.  1.
         11    1    5    5    0    0  0.31119795314E+03 -0.31779035471E+03  0.11954904363E+03  0.46057230639E+03  0.00000000000E+00 0.  1.
        -11    1    5    5    0    0  0.39793992282E+02 -0.59427223268E+02 -0.15249563654E+02  0.73128010220E+02  0.00000000000E+00 0. -1.
          1    1    6    6  503    0  0.90960109424E+02  0.59982262575E+02 -0.20151450985E+03  0.22908450627E+03  0.00000000000E+00 0. -1.
         -1    1    6    6    0  503  0.31110455968E+03  0.37951838595E+02 -0.48194592481E+03  0.57488978383E+03  0.00000000000E+00 0.  1.
<mgrwt>
<rscale>  0 0.20253535E+04</rscale>
<asrwt>0</asrwt>
<pdfrwt beam="1">  1        2 0.27123481E+00 0.20253535E+04</pdfrwt>
<pdfrwt beam="2">  1       -1 0.89488976E-01 0.20253535E+04</pdfrwt>
<totfact> 0.11683716E+01</totfact>
</mgrwt>
</event>
<event>
12    6  0.1586493E-007  0.2113136E+04  0.7818608E-02  0.8555479E-01
          2   -1    0    0  501    0  0.00000000000E+00  0.00000000000E+00  0.40204614102E+04  0.40204614102E+04  0.00000000000E+00 0. -1.
         -1   -1    0    0    0  501 -0.00000000000E+00 -0.00000000000E+00 -0.27766367449E+03  0.27766367449E+03  0.00000000000E+00 0.  1.
         24    2    1    2    0    0 -0.44795654094E+03 -0.52572092565E+03  0.48008994933E+03  0.84496510695E+03  0.80200488045E+02 0.  0.
        254    2    1    2    0    0  0.44795654094E+03  0.52572092565E+03  0.32627077863E+04  0.34531599777E+04  0.89554685989E+03 0.  0.
         23    2    4    4    0    0  0.32442762198E+03  0.22594963013E+03  0.29966125728E+04  0.30239695261E+04  0.91642051859E+02 0.  0.
         23    2    4    4    0    0  0.12352891896E+03  0.29977129552E+03  0.26609521351E+03  0.42919045163E+03  0.90970092221E+02 0.  0.
          2    1    3    3  502    0 -0.63876788469E+02 -0.37689179867E+02  0.56107900434E+02  0.92999004701E+02  0.00000000000E+00 0. -1.
         -1    1    3    3    0  502 -0.38407975247E+03 -0.48803174578E+03  0.42398204890E+03  0.75196610225E+03  0.00000000000E+00 0.  1.
         11    1    5    5    0    0  0.26197589855E+03  0.16428811261E+03  0.25612188837E+04  0.25798186226E+04  0.00000000000E+00 0.  1.
        -11    1    5    5    0    0  0.62451723427E+02  0.61661517523E+02  0.43539368915E+03  0.44415090347E+03  0.00000000000E+00 0. -1.
          1    1    6    6  503    0  0.34860721975E+01  0.20127270697E+02 -0.56561006854E+01  0.21195546703E+02  0.00000000000E+00 0. -1.
         -1    1    6    6    0  503  0.12004284676E+03  0.27964402482E+03  0.27175131419E+03  0.40799490492E+03  0.00000000000E+00 0.  1.
<mgrwt>
<rscale>  0 0.21131361E+04</rscale>
<asrwt>0</asrwt>
<pdfrwt beam="1">  1        2 0.61853249E+00 0.21131361E+04</pdfrwt>
<pdfrwt beam="2">  1       -1 0.42717491E-01 0.21131361E+04</pdfrwt>
<totfact> 0.18776732E+00</totfact>
</mgrwt>
</event>
<event>
12    6  0.1586493E-007  0.1978138E+04  0.7818608E-02  0.8616911E-01
         -1   -1    0    0    0  501 -0.00000000000E+00  0.00000000000E+00  0.83780263840E+03  0.83780263840E+03  0.00000000000E+00 0.  1.
          2   -1    0    0  501    0  0.00000000000E+00 -0.00000000000E+00 -0.11676466363E+04  0.11676466363E+04  0.00000000000E+00 0. -1.
         24    2    1    2    0    0 -0.53883820088E+03 -0.53322803655E+03  0.34304766104E+02  0.76300208379E+03  0.79477148938E+02 0.  0.
        254    2    1    2    0    0  0.53883820088E+03  0.53322803655E+03 -0.36414876401E+03  0.12424471909E+04  0.91454467042E+03 0.  0.
         23    2    4    4    0    0  0.39441465997E+03 -0.31364299848E+02 -0.49311215290E+03  0.63865880337E+03  0.90436875612E+02 0.  0.
         23    2    4    4    0    0  0.14442354090E+03  0.56459233640E+03  0.12896338889E+03  0.60378838755E+03  0.91138333221E+02 0.  0.
          2    1    3    3  502    0 -0.56018601687E+02 -0.43084118098E+02 -0.18250642209E+02  0.72989114999E+02  0.00000000000E+00 0. -1.
         -1    1    3    3    0  502 -0.48281959919E+03 -0.49014391845E+03  0.52555408313E+02  0.69001296879E+03  0.00000000000E+00 0.  1.
         11    1    5    5    0    0  0.35614016669E+03 -0.44669308239E+02 -0.40186951990E+03  0.53882304744E+03  0.00000000000E+00 0.  1.
        -11    1    5    5    0    0  0.38274493289E+02  0.13305008391E+02 -0.91242633001E+02  0.99835755928E+02  0.00000000000E+00 0. -1.
          2    1    6    6  503    0  0.72413844821E+02  0.12683506140E+03  0.25821868683E+02  0.14831610373E+03  0.00000000000E+00 0. -1.
         -2    1    6    6    0  503  0.72009696083E+02  0.43775727499E+03  0.10314152020E+03  0.45547228382E+03  0.00000000000E+00 0.  1.
<mgrwt>
<rscale>  0 0.19781379E+04</rscale>
<asrwt>0</asrwt>
<pdfrwt beam="1">  1        2 0.17963794E+00 0.19781379E+04</pdfrwt>
<pdfrwt beam="2">  1       -1 0.12889271E+00 0.19781379E+04</pdfrwt>
<totfact> 0.10894905E+01</totfact>
</mgrwt>
</event>
<event>
12    6  0.1586493E-007  0.1523839E+04  0.7818608E-02  0.8868753E-01
          2   -1    0    0  501    0  0.00000000000E+00  0.00000000000E+00  0.64003259765E+03  0.64003259765E+03  0.00000000000E+00 0. -1.
         -1   -1    0    0    0  501 -0.00000000000E+00 -0.00000000000E+00 -0.90701822674E+03  0.90701822674E+03  0.00000000000E+00 0.  1.
         24    2    1    2    0    0  0.42807146807E+03 -0.18208088443E+03 -0.24150429935E+03  0.53047669021E+03  0.81746938786E+02 0.  0.
        254    2    1    2    0    0 -0.42807146807E+03  0.18208088443E+03 -0.25481329754E+02  0.10165741342E+04  0.90353474857E+03 0.  0.
         23    2    4    4    0    0  0.91361263888E+02 -0.23592884511E+03 -0.18166003824E+03  0.32485552088E+03  0.92311643165E+02 0.  0.
         23    2    4    4    0    0 -0.51943273196E+03  0.41800972954E+03  0.15617870848E+03  0.69171861330E+03  0.97674735643E+02 0.  0.
          2    1    3    3  502    0  0.56311515895E+02 -0.24300131542E+02 -0.66109401445E+02  0.90177248654E+02  0.00000000000E+00 0. -1.
         -1    1    3    3    0  502  0.37175995218E+03 -0.15778075289E+03 -0.17539489790E+03  0.44029944155E+03  0.00000000000E+00 0.  1.
         11    1    5    5    0    0  0.87198566350E+02 -0.14542901033E+03 -0.15669778785E+03  0.23088391832E+03  0.00000000000E+00 0.  1.
        -11    1    5    5    0    0  0.41626975373E+01 -0.90499834774E+02 -0.24962250390E+02  0.93971602570E+02  0.00000000000E+00 0. -1.
          1    1    6    6  503    0 -0.32999178573E+03  0.27512087456E+03  0.14758258010E+03  0.45427600885E+03  0.00000000000E+00 0.  1.
         -1    1    6    6    0  503 -0.18944094623E+03  0.14288885497E+03  0.85961283880E+01  0.23744260445E+03  0.00000000000E+00 0. -1.
<mgrwt>
<rscale>  0 0.15238389E+04</rscale>
<asrwt>0</asrwt>
<pdfrwt beam="1">  1        2 0.98466554E-01 0.15238389E+04</pdfrwt>
<pdfrwt beam="2">  1       -1 0.13954126E+00 0.15238389E+04</pdfrwt>
<totfact> 0.21352444E+01</totfact>
</mgrwt>
</event>
<event>
12    6  0.1586493E-007  0.2057083E+04  0.7818608E-02  0.8580388E-01
         -1   -1    0    0    0  501 -0.00000000000E+00  0.00000000000E+00  0.14207931528E+04  0.14207931528E+04  0.00000000000E+00 0.  1.
          2   -1    0    0  501    0  0.00000000000E+00 -0.00000000000E+00 -0.74458217953E+03  0.74458217953E+03  0.00000000000E+00 0. -1.
         24    2    1    2    0    0 -0.44752688257E+02 -0.82917541761E+03  0.27410054299E+03  0.87802270146E+03  0.79108029441E+02 0.  0.
        254    2    1    2    0    0  0.44752688257E+02  0.82917541761E+03  0.40211043030E+03  0.12873526309E+04  0.89780249602E+03 0.  0.
         23    2    4    4    0    0  0.11655465855E+03  0.31775144218E+03 -0.26428645722E+03  0.43916634105E+03  0.92025953930E+02 0.  0.
         23    2    4    4    0    0 -0.71801970293E+02  0.51142397543E+03  0.66639688752E+03  0.84818628986E+03  0.92871766536E+02 0.  0.
          2    1    3    3  502    0 -0.28497066866E+02 -0.19998889942E+03  0.97573289683E+02  0.22433945166E+03  0.00000000000E+00 0. -1.
         -1    1    3    3    0  502 -0.16255621391E+02 -0.62918651820E+03  0.17652725331E+03  0.65368324980E+03  0.00000000000E+00 0.  1.
         11    1    5    5    0    0 -0.79803021356E+01  0.32298967154E+02 -0.44399054411E+01  0.33565179304E+02  0.00000000000E+00 0. -1.
        -11    1    5    5    0    0  0.12453496069E+03  0.28545247503E+03 -0.25984655178E+03  0.40560116174E+03  0.00000000000E+00 0.  1.
          2    1    6    6  503    0  0.78870469982E+01  0.83424601634E+02  0.66568908189E+02  0.10702004114E+03  0.00000000000E+00 0. -1.
         -2    1    6    6    0  503 -0.79689017291E+02  0.42799937380E+03  0.59982797933E+03  0.74116624872E+03  0.00000000000E+00 0.  1.
<mgrwt>
<rscale>  0 0.20570827E+04</rscale>
<asrwt>0</asrwt>
<pdfrwt beam="1">  1        2 0.11455111E+00 0.20570827E+04</pdfrwt>
<pdfrwt beam="2">  1       -1 0.21858356E+00 0.20570827E+04</pdfrwt>
<totfact> 0.44938376E+00</totfact>
</mgrwt>
</event>
<event>
12    6  0.1586493E-007  0.1568399E+04  0.7818608E-02  0.8840201E-01
          2   -1    0    0  501    0  0.00000000000E+00  0.00000000000E+00  0.40317522583E+03  0.40317522583E+03  0.00000000000E+00 0. -1.
         -1   -1    0    0    0  501 -0.00000000000E+00 -0.00000000000E+00 -0.15253131364E+04  0.15253131364E+04  0.00000000000E+00 0.  1.
         24    2    1    2    0    0  0.43540498039E+03  0.20395711762E+03 -0.60319599240E+03  0.77517248511E+03  0.76622279074E+02 0.  0.
        254    2    1    2    0    0 -0.43540498039E+03 -0.20395711762E+03 -0.51894191817E+03  0.11533158771E+04  0.91085717606E+03 0.  0.
         23    2    4    4    0    0 -0.19682580059E+03  0.62765952059E+02 -0.70490616582E+03  0.74024968201E+03  0.91634756431E+02 0.  0.
         23    2    4    4    0    0 -0.23857917980E+03 -0.26672306968E+03  0.18596424765E+03  0.41306619510E+03  0.89329497917E+02 0.  0.
          2    1    3    3  502    0  0.30671452750E+01 -0.68277913313E+00  0.20371604625E+01  0.37448084373E+01  0.00000000000E+00 0. -1.
         -1    1    3    3    0  502  0.43233783511E+03  0.20463989676E+03 -0.60523315286E+03  0.77142767667E+03  0.00000000000E+00 0.  1.
         11    1    5    5    0    0 -0.17846163823E+03  0.46048389561E+02 -0.48319812148E+03  0.51715513640E+03  0.00000000000E+00 0. -1.
        -11    1    5    5    0    0 -0.18364162351E+02  0.16717562498E+02 -0.22170804434E+03  0.22309454561E+03  0.00000000000E+00 0.  1.
          2    1    6    6  503    0 -0.77917278368E+02 -0.82301896877E+02  0.10747992440E+03  0.15619423371E+03  0.00000000000E+00 0. -1.
         -2    1    6    6    0  503 -0.16066190143E+03 -0.18442117281E+03  0.78484323256E+02  0.25687196139E+03  0.00000000000E+00 0.  1.
<mgrwt>
<rscale>  0 0.15683985E+04</rscale>
<asrwt>0</asrwt>
<pdfrwt beam="1">  1        2 0.62026957E-01 0.15683985E+04</pdfrwt>
<pdfrwt beam="2">  1       -1 0.23466356E+00 0.15683985E+04</pdfrwt>
<totfact> 0.76193367E+00</totfact>
</mgrwt>
</event>
<event>
12    6  0.1586493E-007  0.1766381E+04  0.7818608E-02  0.8724385E-01
          2   -1    0    0  501    0  0.00000000000E+00  0.00000000000E+00  0.22792399618E+04  0.22792399618E+04  0.00000000000E+00 0. -1.
         -1   -1    0    0    0  501 -0.00000000000E+00 -0.00000000000E+00 -0.34223055893E+03  0.34223055893E+03  0.00000000000E+00 0.  1.
         24    2    1    2    0    0  0.27069793045E+03  0.56991377035E+03  0.66104772762E+03  0.91718257112E+03  0.78490097323E+02 0.  0.
        254    2    1    2    0    0 -0.27069793045E+03 -0.56991377035E+03  0.12759616752E+04  0.17042879496E+04  0.93725137679E+03 0.  0.
         23    2    4    4    0    0 -0.52566222986E+03 -0.40492026160E+02  0.63164712228E+03  0.82770534137E+03  0.90319770551E+02 0.  0.
         23    2    4    4    0    0  0.25496429942E+03 -0.52942174419E+03  0.64431455294E+03  0.87658260822E+03  0.89228071287E+02 0.  0.
          4    1    3    3  502    0  0.38630014723E+02  0.32974946188E+02  0.56428278768E+02  0.75919534761E+02  0.00000000000E+00 0. -1.
         -3    1    3    3    0  502  0.23206791572E+03  0.53693882417E+03  0.60461944885E+03  0.84126303636E+03  0.00000000000E+00 0.  1.
         11    1    5    5    0    0 -0.40963706424E+03 -0.32862849216E+02  0.54560091229E+03  0.68305405844E+03  0.00000000000E+00 0.  1.
        -11    1    5    5    0    0 -0.11602516562E+03 -0.76291769449E+01  0.86046209989E+02  0.14465128292E+03  0.00000000000E+00 0. -1.
          4    1    6    6  503    0  0.14144517612E+03 -0.38804134185E+03  0.45120547917E+03  0.61169371851E+03  0.00000000000E+00 0.  1.
         -4    1    6    6    0  503  0.11351912329E+03 -0.14138040234E+03  0.19310907377E+03  0.26488888971E+03  0.00000000000E+00 0. -1.
<mgrwt>
<rscale>  0 0.17663811E+04</rscale>
<asrwt>0</asrwt>
<pdfrwt beam="1">  1        2 0.35065229E+00 0.17663811E+04</pdfrwt>
<pdfrwt beam="2">  1       -1 0.52650857E-01 0.17663811E+04</pdfrwt>
<totfact> 0.18264757E+01</totfact>
</mgrwt>
</event>
<event>
12    6  0.1586493E-007  0.3560648E+04  0.7818608E-02  0.8099566E-01
         -1   -1    0    0    0  501 -0.00000000000E+00  0.00000000000E+00  0.10809927690E+04  0.10809927690E+04  0.00000000000E+00 0.  1.
          2   -1    0    0  501    0  0.00000000000E+00 -0.00000000000E+00 -0.29320761373E+04  0.29320761373E+04  0.00000000000E+00 0. -1.
         24    2    1    2    0    0 -0.65072670423E+03  0.80245855163E+03 -0.23345537262E+04  0.25542390870E+04  0.81309545524E+02 0.  0.
        254    2    1    2    0    0  0.65072670423E+03 -0.80245855163E+03  0.48347035794E+03  0.14588298193E+04  0.90942612890E+03 0.  0.
         23    2    4    4    0    0 -0.16523553945E+03 -0.14785524483E+03  0.31431239831E+03  0.39514253678E+03  0.90451001791E+02 0.  0.
         23    2    4    4    0    0  0.81596224367E+03 -0.65460330680E+03  0.16915795963E+03  0.10636872825E+04  0.92284057432E+02 0.  0.
          2    1    3    3  502    0 -0.50003070142E+03  0.59798280016E+03 -0.18389015081E+04  0.19972913879E+04  0.00000000000E+00 0. -1.
         -1    1    3    3    0  502 -0.15069600281E+03  0.20447575146E+03 -0.49565221819E+03  0.55694769915E+03  0.00000000000E+00 0.  1.
         11    1    5    5    0    0 -0.16647984811E+02 -0.36615441386E+01  0.82855688302E+02  0.84590941523E+02  0.00000000000E+00 0.  1.
        -11    1    5    5    0    0 -0.14858755464E+03 -0.14419370069E+03  0.23145671000E+03  0.31055159526E+03  0.00000000000E+00 0. -1.
          1    1    6    6  503    0  0.34088024756E+03 -0.22515179748E+03  0.41025792417E+02  0.41057982261E+03  0.00000000000E+00 0. -1.
         -1    1    6    6    0  503  0.47508199611E+03 -0.42945150932E+03  0.12813216721E+03  0.65310745989E+03  0.00000000000E+00 0.  1.
<mgrwt>
<rscale>  0 0.35606478E+04</rscale>
<asrwt>0</asrwt>
<pdfrwt beam="1">  1        2 0.45108864E+00 0.35606478E+04</pdfrwt>
<pdfrwt beam="2">  1       -1 0.16630658E+00 0.35606478E+04</pdfrwt>
<totfact> 0.46679590E-01</totfact>
</mgrwt>
</event>
<event>
12    6  0.1586493E-007  0.2173169E+04  0.7818608E-02  0.8529679E-01
          2   -1    0    0  501    0  0.00000000000E+00  0.00000000000E+00  0.30096382949E+04  0.30096382949E+04  0.00000000000E+00 0. -1.
         -1   -1    0    0    0  501 -0.00000000000E+00 -0.00000000000E+00 -0.39229503641E+03  0.39229503641E+03  0.00000000000E+00 0.  1.
         24    2    1    2    0    0  0.21825128649E+02 -0.88696045494E+03  0.86541528855E+03  0.12419800434E+04  0.79972630806E+02 0.  0.
        254    2    1    2    0    0 -0.21825128649E+02  0.88696045494E+03  0.17519279700E+04  0.21599532879E+04  0.89942837918E+03 0.  0.
         23    2    4    4    0    0 -0.36083824016E+03  0.12948629908E+03  0.34400305219E+03  0.52321218020E+03  0.91880076104E+02 0.  0.
         23    2    4    4    0    0  0.33901311151E+03  0.75747415586E+03  0.14079249178E+04  0.16367411077E+04  0.89285458424E+02 0.  0.
          2    1    3    3  502    0  0.43627767109E+02 -0.79282533424E+03  0.77903247957E+03  0.11123699910E+04  0.00000000000E+00 0. -1.
         -1    1    3    3    0  502 -0.21802638460E+02 -0.94135120698E+02  0.86382808988E+02  0.12961005239E+03  0.00000000000E+00 0.  1.
         11    1    5    5    0    0 -0.11640016657E+03  0.77653646015E+01  0.68367609556E+02  0.13521623313E+03  0.00000000000E+00 0.  1.
        -11    1    5    5    0    0 -0.24443807359E+03  0.12172093447E+03  0.27563544263E+03  0.38799594707E+03  0.00000000000E+00 0. -1.
          1    1    6    6  503    0  0.10965578353E+03  0.34320454450E+03  0.64508400463E+03  0.73888234737E+03  0.00000000000E+00 0. -1.
         -1    1    6    6    0  503  0.22935732798E+03  0.41426961136E+03  0.76284091314E+03  0.89785876036E+03  0.00000000000E+00 0.  1.
<mgrwt>
<rscale>  0 0.21731693E+04</rscale>
<asrwt>0</asrwt>
<pdfrwt beam="1">  1        2 0.46302126E+00 0.21731693E+04</pdfrwt>
<pdfrwt beam="2">  1       -1 0.60353084E-01 0.21731693E+04</pdfrwt>
<totfact> 0.49898600E+00</totfact>
</mgrwt>
</event>
<event>
12    6  0.1586493E-007  0.1156650E+04  0.7818608E-02  0.9151671E-01
          2   -1    0    0  501    0  0.00000000000E+00  0.00000000000E+00  0.27232861693E+03  0.27232861693E+03  0.00000000000E+00 0. -1.
         -1   -1    0    0    0  501 -0.00000000000E+00 -0.00000000000E+00 -0.12281476264E+04  0.12281476264E+04  0.00000000000E+00 0.  1.
         24    2    1    2    0    0 -0.86274474255E+02 -0.24103246400E+02  0.63950297831E+02  0.13606608779E+03  0.80000551621E+02 0.  0.
        254    2    1    2    0    0  0.86274474255E+02  0.24103246400E+02 -0.10197693073E+04  0.13644101555E+04  0.90203180708E+03 0.  0.
         23    2    4    4    0    0  0.30916361075E+03  0.36284135421E+03 -0.58807465937E+03  0.76385980242E+03  0.10204903833E+03 0.  0.
         23    2    4    4    0    0 -0.22288913650E+03 -0.33873810781E+03 -0.43169464789E+03  0.60055035308E+03  0.99385032646E+02 0.  0.
          4    1    3    3  502    0 -0.78106646604E+02  0.62969461042E+01  0.18055293431E+02  0.80413266286E+02  0.00000000000E+00 0. -1.
         -3    1    3    3    0  502 -0.81678276515E+01 -0.30400192504E+02  0.45895004400E+02  0.55652821507E+02  0.00000000000E+00 0.  1.
         11    1    5    5    0    0  0.11360113759E+03  0.13116740374E+03 -0.29460489706E+03  0.34190956646E+03  0.00000000000E+00 0. -1.
        -11    1    5    5    0    0  0.19556247316E+03  0.23167395047E+03 -0.29346976230E+03  0.42195023595E+03  0.00000000000E+00 0.  1.
          3    1    6    6  503    0 -0.22601075461E+02 -0.62600211630E+02 -0.28477464890E+02  0.72391719932E+02  0.00000000000E+00 0. -1.
         -3    1    6    6    0  503 -0.20028806103E+03 -0.27613789618E+03 -0.40321718300E+03  0.52815863314E+03  0.00000000000E+00 0.  1.
<mgrwt>
<rscale>  0 0.11566499E+04</rscale>
<asrwt>0</asrwt>
<pdfrwt beam="1">  1        2 0.41896712E-01 0.11566499E+04</pdfrwt>
<pdfrwt beam="2">  1       -1 0.18894578E+00 0.11566499E+04</pdfrwt>
<totfact> 0.24942478E+01</totfact>
</mgrwt>
</event>
<event>
12    6  0.1586493E-007  0.1130166E+04  0.7818608E-02  0.9176278E-01
          2   -1    0    0  501    0  0.00000000000E+00  0.00000000000E+00  0.29352922685E+03  0.29352922685E+03  0.00000000000E+00 0. -1.
         -1   -1    0    0    0  501 -0.00000000000E+00 -0.00000000000E+00 -0.10878611452E+04  0.10878611452E+04  0.00000000000E+00 0.  1.
         24    2    1    2    0    0  0.11775169793E+03 -0.44766848860E+02  0.26113048660E+02  0.15484319712E+03  0.86168388990E+02 0.  0.
        254    2    1    2    0    0 -0.11775169793E+03  0.44766848860E+02 -0.82044496699E+03  0.12265471749E+04  0.90300525761E+03 0.  0.
         23    2    4    4    0    0  0.10153889565E+03  0.24067817054E+03 -0.86896643120E+03  0.91217910607E+03  0.93444817331E+02 0.  0.
         23    2    4    4    0    0 -0.21929059359E+03 -0.19591132168E+03  0.48521464210E+02  0.31436806884E+03  0.10001669769E+03 0.  0.
          2    1    3    3  502    0  0.97073047863E+02  0.32511992922E+01  0.31925259110E+02  0.10223976275E+03  0.00000000000E+00 0. -1.
         -1    1    3    3    0  502  0.20678650069E+02 -0.48018048152E+02 -0.58122104503E+01  0.52603434368E+02  0.00000000000E+00 0.  1.
         11    1    5    5    0    0  0.99611104548E+02  0.20783194191E+03 -0.62757905356E+03  0.66855961342E+03  0.00000000000E+00 0. -1.
        -11    1    5    5    0    0  0.19277911069E+01  0.32846228630E+02 -0.24138737765E+03  0.24361949265E+03  0.00000000000E+00 0.  1.
          3    1    6    6  503    0 -0.13987763421E+03 -0.10358540376E+03  0.75351727886E+02  0.18966700114E+03  0.00000000000E+00 0. -1.
         -3    1    6    6    0  503 -0.79412959375E+02 -0.92325917916E+02 -0.26830263676E+02  0.12470106770E+03  0.00000000000E+00 0.  1.
<mgrwt>
<rscale>  0 0.11301664E+04</rscale>
<asrwt>0</asrwt>
<pdfrwt beam="1">  1        2 0.45158343E-01 0.11301664E+04</pdfrwt>
<pdfrwt beam="2">  1       -1 0.16736325E+00 0.11301664E+04</pdfrwt>
<totfact> 0.32885476E+01</totfact>
</mgrwt>
</event>
<event>
12    6  0.1586493E-007  0.1568106E+04  0.7818608E-02  0.8840385E-01
          2   -1    0    0  501    0  0.00000000000E+00  0.00000000000E+00  0.19666833009E+04  0.19666833009E+04  0.00000000000E+00 0. -1.
         -1   -1    0    0    0  501 -0.00000000000E+00 -0.00000000000E+00 -0.31257658318E+03  0.31257658318E+03  0.00000000000E+00 0.  1.
         24    2    1    2    0    0  0.74773000354E+02  0.42126269312E+03  0.10744896178E+03  0.44793902638E+03  0.77787105390E+02 0.  0.
        254    2    1    2    0    0 -0.74773000354E+02 -0.42126269312E+03  0.15466577559E+04  0.18313208577E+04  0.88234495048E+03 0.  0.
         23    2    4    4    0    0 -0.39895171574E+03 -0.33163020126E+03  0.13088041586E+04  0.14105479040E+04  0.86810148683E+02 0.  0.
         23    2    4    4    0    0  0.32417871538E+03 -0.89632491868E+02  0.23785359727E+03  0.42077295368E+03  0.85730517954E+02 0.  0.
          2    1    3    3  502    0  0.36286087930E+02  0.29824149401E+03  0.10733398920E+03  0.31903801367E+03  0.00000000000E+00 0. -1.
         -1    1    3    3    0  502  0.38486912424E+02  0.12302119911E+03  0.11497257829E+00  0.12890101271E+03  0.00000000000E+00 0.  1.
         11    1    5    5    0    0 -0.23563138177E+03 -0.20946037573E+03  0.68085462048E+03  0.75030581185E+03  0.00000000000E+00 0. -1.
        -11    1    5    5    0    0 -0.16332033397E+03 -0.12216982553E+03  0.62794953816E+03  0.66024209213E+03  0.00000000000E+00 0.  1.
          1    1    6    6  503    0  0.32718780866E+03 -0.94431408340E+02  0.23733117544E+03  0.41508461770E+03  0.00000000000E+00 0. -1.
         -1    1    6    6    0  503 -0.30090932748E+01  0.47989164720E+01  0.52242182760E+00  0.56883359788E+01  0.00000000000E+00 0.  1.
<mgrwt>
<rscale>  0 0.15681061E+04</rscale>
<asrwt>0</asrwt>
<pdfrwt beam="1">  1        2 0.30256665E+00 0.15681061E+04</pdfrwt>
<pdfrwt beam="2">  1       -1 0.48088706E-01 0.15681061E+04</pdfrwt>
<totfact> 0.33005916E+01</totfact>
</mgrwt>
</event>
<event>
12    6  0.1586493E-007  0.1199502E+04  0.7818608E-02  0.9113292E-01
         -1   -1    0    0    0  501 -0.00000000000E+00  0.00000000000E+00  0.86902747886E+03  0.86902747886E+03  0.00000000000E+00 0.  1.
          2   -1    0    0  501    0  0.00000000000E+00 -0.00000000000E+00 -0.41391244791E+03  0.41391244791E+03  0.00000000000E+00 0. -1.
         24    2    1    2    0    0 -0.15069926763E+03 -0.13925044724E+03 -0.46295755243E+02  0.22650443852E+03  0.84023850162E+02 0.  0.
        254    2    1    2    0    0  0.15069926763E+03  0.13925044724E+03  0.50141078619E+03  0.10564354882E+04  0.90694112709E+03 0.  0.
         23    2    4    4    0    0 -0.31335383498E+03  0.14551653254E+03 -0.12811216102E+02  0.35775788849E+03  0.91983109212E+02 0.  0.
         23    2    4    4    0    0  0.46405310260E+03 -0.62660853027E+01  0.51422200229E+03  0.69867759976E+03  0.91332222711E+02 0.  0.
          4    1    3    3  502    0 -0.11218665643E+03 -0.12944293190E+03 -0.82567744362E+01  0.17149196140E+03  0.00000000000E+00 0. -1.
         -3    1    3    3    0  502 -0.38512611196E+02 -0.98075153382E+01 -0.38038980807E+02  0.55012477122E+02  0.00000000000E+00 0.  1.
         11    1    5    5    0    0 -0.30013372707E+03  0.11270255903E+03 -0.21542280288E+02  0.32131945284E+03  0.00000000000E+00 0. -1.
        -11    1    5    5    0    0 -0.13220107909E+02  0.32813973504E+02  0.87310641859E+01  0.36438435642E+02  0.00000000000E+00 0.  1.
          1    1    6    6  503    0  0.43095402851E+03 -0.26836035250E+02  0.48853601131E+03  0.65200382041E+03  0.00000000000E+00 0. -1.
         -1    1    6    6    0  503  0.33099074090E+02  0.20569949948E+02  0.25685990989E+02  0.46673779358E+02  0.00000000000E+00 0.  1.
<mgrwt>
<rscale>  0 0.11995020E+04</rscale>
<asrwt>0</asrwt>
<pdfrwt beam="1">  1        2 0.63678839E-01 0.11995020E+04</pdfrwt>
<pdfrwt beam="2">  1       -1 0.13369653E+00 0.11995020E+04</pdfrwt>
<totfact> 0.40805691E+01</totfact>
</mgrwt>
</event>
<event>
12    6  0.1586493E-007  0.1339998E+04  0.7818608E-02  0.8998434E-01
          2   -1    0    0  501    0  0.00000000000E+00  0.00000000000E+00  0.88936198925E+03  0.88936198925E+03  0.00000000000E+00 0. -1.
         -1   -1    0    0    0  501 -0.00000000000E+00 -0.00000000000E+00 -0.50474268802E+03  0.50474268802E+03  0.00000000000E+00 0.  1.
         24    2    1    2    0    0  0.38863721169E+03  0.20331203185E+02  0.88822827543E+02  0.40702148295E+03  0.79528314187E+02 0.  0.
        254    2    1    2    0    0 -0.38863721169E+03 -0.20331203185E+02  0.29579647369E+03  0.98708319433E+03  0.85754617283E+03 0.  0.
         23    2    4    4    0    0  0.11019176372E+03  0.30106033346E+03  0.16794553993E+03  0.37347559275E+03  0.92188745636E+02 0.  0.
         23    2    4    4    0    0 -0.49882897540E+03 -0.32139153664E+03  0.12785093376E+03  0.61360760158E+03  0.89697050783E+02 0.  0.
          2    1    3    3  502    0  0.25621578536E+03  0.74286142479E+00  0.94371730608E+02  0.27304414304E+03  0.00000000000E+00 0. -1.
         -1    1    3    3    0  502  0.13242142632E+03  0.19588341760E+02 -0.55489030659E+01  0.13397733990E+03  0.00000000000E+00 0.  1.
         11    1    5    5    0    0  0.37434422759E+02  0.13939038407E+03  0.12530039878E+03  0.19113138181E+03  0.00000000000E+00 0.  1.
        -11    1    5    5    0    0  0.72757340958E+02  0.16166994939E+03  0.42645141155E+02  0.18234421094E+03  0.00000000000E+00 0. -1.
          3    1    6    6  503    0 -0.22543925261E+03 -0.15408297696E+03  0.10400191156E+03  0.29219996238E+03  0.00000000000E+00 0. -1.
         -3    1    6    6    0  503 -0.27338972280E+03 -0.16730855969E+03  0.23849022193E+02  0.32140763920E+03  0.00000000000E+00 0.  1.
<mgrwt>
<rscale>  0 0.13399984E+04</rscale>
<asrwt>0</asrwt>
<pdfrwt beam="1">  1        2 0.13682492E+00 0.13399984E+04</pdfrwt>
<pdfrwt beam="2">  1       -1 0.77652721E-01 0.13399984E+04</pdfrwt>
<totfact> 0.55287533E+01</totfact>
</mgrwt>
</event>
<event>
12    6  0.1586493E-007  0.1800169E+04  0.7818608E-02  0.8706210E-01
         -1   -1    0    0    0  501 -0.00000000000E+00  0.00000000000E+00  0.70766596298E+03  0.70766596298E+03  0.00000000000E+00 0.  1.
          2   -1    0    0  501    0  0.00000000000E+00 -0.00000000000E+00 -0.11448226262E+04  0.11448226262E+04  0.00000000000E+00 0. -1.
         24    2    1    2    0    0 -0.84300161462E+02  0.10244904906E+03 -0.83687352228E+03  0.85103708841E+03  0.79400936310E+02 0.  0.
        254    2    1    2    0    0  0.84300161462E+02 -0.10244904906E+03  0.39971685906E+03  0.10014515008E+04  0.90858638339E+03 0.  0.
         23    2    4    4    0    0 -0.50970677325E+01  0.28987728710E+03 -0.12929926778E+03  0.33057830934E+03  0.92243678807E+02 0.  0.
         23    2    4    4    0    0  0.89397229195E+02 -0.39232633616E+03  0.52901612684E+03  0.67087319142E+03  0.91109592678E+02 0.  0.
          2    1    3    3  502    0 -0.51969648383E+02  0.10172523001E+03 -0.74345380436E+03  0.75217845355E+03  0.00000000000E+00 0. -1.
         -1    1    3    3    0  502 -0.32330513079E+02  0.72381904357E+00 -0.93419717924E+02  0.98858634863E+02  0.00000000000E+00 0.  1.
         11    1    5    5    0    0 -0.44908754691E+02  0.93114092139E+02 -0.48259614687E+02  0.11408777679E+03  0.00000000000E+00 0. -1.
        -11    1    5    5    0    0  0.39811686959E+02  0.19676319497E+03 -0.81039653092E+02  0.21649053255E+03  0.00000000000E+00 0.  1.
          2    1    6    6  503    0  0.17139246270E+02 -0.43225423901E+01  0.27359413678E+02  0.32572621206E+02  0.00000000000E+00 0. -1.
         -2    1    6    6    0  503  0.72257982925E+02 -0.38800379377E+03  0.50165671316E+03  0.63830057022E+03  0.00000000000E+00 0.  1.
<mgrwt>
<rscale>  0 0.18001689E+04</rscale>
<asrwt>0</asrwt>
<pdfrwt beam="1">  1        2 0.17612656E+00 0.18001689E+04</pdfrwt>
<pdfrwt beam="2">  1       -1 0.10887169E+00 0.18001689E+04</pdfrwt>
<totfact> 0.17219645E+01</totfact>
</mgrwt>
</event>
<event>
12    6  0.1586493E-007  0.2055984E+04  0.7818608E-02  0.8580885E-01
         -1   -1    0    0    0  501 -0.00000000000E+00  0.00000000000E+00  0.94512234510E+03  0.94512234510E+03  0.00000000000E+00 0.  1.
          2   -1    0    0  501    0  0.00000000000E+00 -0.00000000000E+00 -0.11181273533E+04  0.11181273533E+04  0.00000000000E+00 0. -1.
         24    2    1    2    0    0 -0.51697336085E+03 -0.64479919309E+03  0.22740541433E+01  0.83031699254E+03  0.79960499876E+02 0.  0.
        254    2    1    2    0    0  0.51697336085E+03  0.64479919309E+03 -0.17527906234E+03  0.12329327059E+04  0.89798265698E+03 0.  0.
         23    2    4    4    0    0 -0.11528385524E+03  0.28084224936E+03  0.23187370467E+03  0.39285275233E+03  0.91679516746E+02 0.  0.
         23    2    4    4    0    0  0.63225721609E+03  0.36395694373E+03 -0.40715276700E+03  0.84007995352E+03  0.88017659873E+02 0.  0.
          4    1    3    3  502    0 -0.10813482154E+03 -0.89501886301E+02 -0.89828841296E+01  0.14065709896E+03  0.00000000000E+00 0. -1.
         -3    1    3    3    0  502 -0.40883853931E+03 -0.55529730679E+03  0.11256938273E+02  0.68965989358E+03  0.00000000000E+00 0.  1.
         11    1    5    5    0    0 -0.97295281722E+02  0.12131586238E+03  0.13026509031E+03  0.20286178561E+03  0.00000000000E+00 0. -1.
        -11    1    5    5    0    0 -0.17988573523E+02  0.15952638698E+03  0.10160861436E+03  0.18999096672E+03  0.00000000000E+00 0.  1.
          4    1    6    6  503    0  0.23727105741E+02  0.31082590684E+01 -0.23951177742E+00  0.23931029798E+02  0.00000000000E+00 0. -1.
         -4    1    6    6    0  503  0.60853011035E+03  0.36084868466E+03 -0.40691325523E+03  0.81614892373E+03  0.00000000000E+00 0.  1.
<mgrwt>
<rscale>  0 0.20559836E+04</rscale>
<asrwt>0</asrwt>
<pdfrwt beam="1">  1        2 0.17201959E+00 0.20559836E+04</pdfrwt>
<pdfrwt beam="2">  1       -1 0.14540344E+00 0.20559836E+04</pdfrwt>
<totfact> 0.84936419E+00</totfact>
</mgrwt>
</event>
<event>
12    6  0.1586493E-007  0.1989817E+04  0.7818608E-02  0.8611397E-01
          2   -1    0    0  501    0  0.00000000000E+00  0.00000000000E+00  0.14890556705E+04  0.14890556705E+04  0.00000000000E+00 0. -1.
         -1   -1    0    0    0  501 -0.00000000000E+00 -0.00000000000E+00 -0.66474513446E+03  0.66474513446E+03  0.00000000000E+00 0.  1.
         24    2    1    2    0    0  0.11240927788E+03 -0.15219677418E+03 -0.49142074619E+03  0.53296294450E+03  0.82191523929E+02 0.  0.
        254    2    1    2    0    0 -0.11240927788E+03  0.15219677418E+03  0.13157312822E+04  0.16208378604E+04  0.92745180954E+03 0.  0.
         23    2    4    4    0    0 -0.10865694092E+03  0.37629161439E+03  0.14819151871E+03  0.42848477490E+03  0.90756631924E+02 0.  0.
         23    2    4    4    0    0 -0.37523369539E+01 -0.22409484020E+03  0.11675397635E+04  0.11923530855E+04  0.91237074652E+02 0.  0.
          2    1    3    3  502    0  0.53203556205E+02 -0.29301170221E+02 -0.86604574071E+02  0.10578057109E+03  0.00000000000E+00 0. -1.
         -1    1    3    3    0  502  0.59205721672E+02 -0.12289560396E+03 -0.40481617212E+03  0.42718237342E+03  0.00000000000E+00 0.  1.
         11    1    5    5    0    0 -0.30997922509E+02  0.31485864014E+02  0.37960176907E+02  0.58251230574E+02  0.00000000000E+00 0. -1.
        -11    1    5    5    0    0 -0.77659018415E+02  0.34480575037E+03  0.11023134180E+03  0.37023354433E+03  0.00000000000E+00 0.  1.
          2    1    6    6  503    0  0.20416833362E+02 -0.37065699492E+02  0.38916763277E+03  0.39146156843E+03  0.00000000000E+00 0. -1.
         -2    1    6    6    0  503 -0.24169170316E+02 -0.18702914071E+03  0.77837213071E+03  0.80089151708E+03  0.00000000000E+00 0.  1.
<mgrwt>
<rscale>  0 0.19898166E+04</rscale>
<asrwt>0</asrwt>
<pdfrwt beam="1">  1        2 0.22908549E+00 0.19898166E+04</pdfrwt>
<pdfrwt beam="2">  1       -1 0.10226848E+00 0.19898166E+04</pdfrwt>
<totfact> 0.12347399E+01</totfact>
</mgrwt>
</event>
<event>
12    6  0.1586493E-007  0.1562113E+04  0.7818608E-02  0.8844167E-01
          2   -1    0    0  501    0  0.00000000000E+00  0.00000000000E+00  0.17612545159E+04  0.17612545159E+04  0.00000000000E+00 0. -1.
         -1   -1    0    0    0  501 -0.00000000000E+00 -0.00000000000E+00 -0.34637217528E+03  0.34637217528E+03  0.00000000000E+00 0.  1.
         24    2    1    2    0    0 -0.16969758217E+03  0.36345008921E+03  0.94532050388E+03  0.10298853094E+04  0.78355974103E+02 0.  0.
        254    2    1    2    0    0  0.16969758217E+03 -0.36345008921E+03  0.46956183673E+03  0.10777413818E+04  0.88325813372E+03 0.  0.
         23    2    4    4    0    0  0.22076315964E+03  0.21031011757E+03  0.36601206183E+03  0.48513602969E+03  0.91790084930E+02 0.  0.
         23    2    4    4    0    0 -0.51065577468E+02 -0.57376020679E+03  0.10354977489E+03  0.59260535210E+03  0.93005802861E+02 0.  0.
          4    1    3    3  502    0 -0.11247499124E+03  0.31232476599E+03  0.76905735219E+03  0.83764347670E+03  0.00000000000E+00 0. -1.
         -1    1    3    3    0  502 -0.57222590933E+02  0.51125323226E+02  0.17626315169E+03  0.19224183268E+03  0.00000000000E+00 0.  1.
         11    1    5    5    0    0  0.95005938341E+02  0.39300083366E+02  0.87870116248E+02  0.13524711532E+03  0.00000000000E+00 0.  1.
        -11    1    5    5    0    0  0.12575722130E+03  0.17101003420E+03  0.27814194559E+03  0.34988891437E+03  0.00000000000E+00 0. -1.
          1    1    6    6  503    0 -0.68619608338E+02 -0.54621930549E+03  0.10219414952E+03  0.55991769443E+03  0.00000000000E+00 0. -1.
         -1    1    6    6    0  503  0.17554030870E+02 -0.27540901300E+02  0.13556253705E+01  0.32687657676E+02  0.00000000000E+00 0.  1.
<mgrwt>
<rscale>  0 0.15621134E+04</rscale>
<asrwt>0</asrwt>
<pdfrwt beam="1">  1        2 0.27096223E+00 0.15621134E+04</pdfrwt>
<pdfrwt beam="2">  1       -1 0.53288028E-01 0.15621134E+04</pdfrwt>
<totfact> 0.35284309E+01</totfact>
</mgrwt>
</event>
<event>
12    6  0.1586493E-007  0.1945875E+04  0.7818608E-02  0.8632352E-01
          2   -1    0    0  501    0  0.00000000000E+00  0.00000000000E+00  0.37328047020E+04  0.37328047020E+04  0.00000000000E+00 0. -1.
         -1   -1    0    0    0  501 -0.00000000000E+00 -0.00000000000E+00 -0.25359151107E+03  0.25359151107E+03  0.00000000000E+00 0.  1.
         24    2    1    2    0    0 -0.29512339577E+03 -0.70029909701E+03  0.13947463830E+04  0.15903557331E+04  0.79982753332E+02 0.  0.
        254    2    1    2    0    0  0.29512339577E+03  0.70029909701E+03  0.20844668079E+04  0.23960404800E+04  0.90470518092E+03 0.  0.
         23    2    4    4    0    0  0.42884099845E+03  0.84310148639E+03  0.18333583346E+04  0.20649242102E+04  0.89355989064E+02 0.  0.
         23    2    4    4    0    0 -0.13371760268E+03 -0.14280238937E+03  0.25110847332E+03  0.33111626972E+03  0.91157002052E+02 0.  0.
          2    1    3    3  502    0 -0.27705329237E+03 -0.68928117659E+03  0.13516932924E+04  0.15423818671E+04  0.00000000000E+00 0. -1.
         -1    1    3    3    0  502 -0.18070103400E+02 -0.11017920425E+02  0.43053090626E+02  0.47973866009E+02  0.00000000000E+00 0.  1.
         11    1    5    5    0    0  0.16203148167E+03  0.31614573170E+03  0.59652236129E+03  0.69429190708E+03  0.00000000000E+00 0. -1.
        -11    1    5    5    0    0  0.26680951678E+03  0.52695575469E+03  0.12368359733E+04  0.13706323032E+04  0.00000000000E+00 0.  1.
          2    1    6    6  503    0  0.57943114993E+01 -0.43689765959E+02  0.41688140641E+02  0.60665235229E+02  0.00000000000E+00 0. -1.
         -2    1    6    6    0  503 -0.13951191418E+03 -0.99112623415E+02  0.20942033268E+03  0.27045103449E+03  0.00000000000E+00 0.  1.
<mgrwt>
<rscale>  0 0.19458752E+04</rscale>
<asrwt>0</asrwt>
<pdfrwt beam="1">  1        2 0.57427761E+00 0.19458752E+04</pdfrwt>
<pdfrwt beam="2">  1       -1 0.39014081E-01 0.19458752E+04</pdfrwt>
<totfact> 0.37688664E+00</totfact>
</mgrwt>
</event>
<event>
12    6  0.1586493E-007  0.1857874E+04  0.7818608E-02  0.8676114E-01
          2   -1    0    0  501    0  0.00000000000E+00  0.00000000000E+00  0.13694509876E+04  0.13694509876E+04  0.00000000000E+00 0. -1.
         -1   -1    0    0    0  501 -0.00000000000E+00 -0.00000000000E+00 -0.63012430969E+03  0.63012430969E+03  0.00000000000E+00 0.  1.
         24    2    1    2    0    0  0.52225494709E+03 -0.15344646250E+03 -0.19383949255E+03  0.58325979433E+03  0.79512214152E+02 0.  0.
        254    2    1    2    0    0 -0.52225494709E+03  0.15344646250E+03  0.93316617046E+03  0.14163155030E+04  0.91588998008E+03 0.  0.
         23    2    4    4    0    0 -0.60249169592E+03 -0.23483440656E+03  0.64541307010E+03  0.91808867988E+03  0.90472929194E+02 0.  0.
         23    2    4    4    0    0  0.80236748829E+02  0.38828086906E+03  0.28775310036E+03  0.49822682307E+03  0.90709157848E+02 0.  0.
          2    1    3    3  502    0  0.18372029205E+02  0.91422231643E+01 -0.49451703985E+01  0.21108444087E+02  0.00000000000E+00 0. -1.
         -1    1    3    3    0  502  0.50388291788E+03 -0.16258868566E+03 -0.18889432215E+03  0.56215135024E+03  0.00000000000E+00 0.  1.
         11    1    5    5    0    0 -0.59431160969E+03 -0.21941111997E+03  0.63804929863E+03  0.89914094360E+03  0.00000000000E+00 0. -1.
        -11    1    5    5    0    0 -0.81800862324E+01 -0.15423286590E+02  0.73637714714E+01  0.18947736284E+02  0.00000000000E+00 0.  1.
          4    1    6    6  503    0  0.75266889264E+02  0.38307062822E+03  0.29398197286E+03  0.48870605807E+03  0.00000000000E+00 0. -1.
         -4    1    6    6    0  503  0.49698595656E+01  0.52102408431E+01 -0.62288724959E+01  0.95207650068E+01  0.00000000000E+00 0.  1.
<mgrwt>
<rscale>  0 0.18578744E+04</rscale>
<asrwt>0</asrwt>
<pdfrwt beam="1">  1        2 0.21068477E+00 0.18578744E+04</pdfrwt>
<pdfrwt beam="2">  1       -1 0.96942201E-01 0.18578744E+04</pdfrwt>
<totfact> 0.16509248E+01</totfact>
</mgrwt>
</event>
<event>
12    6  0.1586493E-007  0.2307672E+04  0.7818608E-02  0.8474902E-01
          2   -1    0    0  501    0  0.00000000000E+00  0.00000000000E+00  0.24352142716E+04  0.24352142716E+04  0.00000000000E+00 0. -1.
         -1   -1    0    0    0  501 -0.00000000000E+00 -0.00000000000E+00 -0.54670264175E+03  0.54670264175E+03  0.00000000000E+00 0.  1.
         24    2    1    2    0    0 -0.51064057510E+03  0.20710712655E+03  0.18409762091E+04  0.19233336157E+04  0.79822526966E+02 0.  0.
        254    2    1    2    0    0  0.51064057510E+03 -0.20710712655E+03  0.47535420656E+02  0.10585832976E+04  0.90260280465E+03 0.  0.
         23    2    4    4    0    0  0.67910325425E+03 -0.60367205945E+02  0.26166820853E+03  0.73595020642E+03  0.91252536922E+02 0.  0.
         23    2    4    4    0    0 -0.16846267915E+03 -0.14673992060E+03 -0.21413278787E+03  0.32263309119E+03  0.91252299293E+02 0.  0.
          2    1    3    3  502    0 -0.66433727644E+02  0.38908854055E+02  0.35651358860E+03  0.36473178906E+03  0.00000000000E+00 0. -1.
         -3    1    3    3    0  502 -0.44420684746E+03  0.16819827249E+03  0.14844626205E+04  0.15586018266E+04  0.00000000000E+00 0.  1.
         11    1    5    5    0    0  0.11569354086E+03  0.12106118204E+02  0.17455062526E+02  0.11762751678E+03  0.00000000000E+00 0.  1.
        -11    1    5    5    0    0  0.56340971339E+03 -0.72473324149E+02  0.24421314600E+03  0.61832268965E+03  0.00000000000E+00 0. -1.
          2    1    6    6  503    0 -0.39076086476E+01 -0.14111181484E+02  0.74410283366E+01  0.16424486322E+02  0.00000000000E+00 0.  1.
         -2    1    6    6    0  503 -0.16455507050E+03 -0.13262873912E+03 -0.22157381621E+03  0.30620860487E+03  0.00000000000E+00 0. -1.
<mgrwt>
<rscale>  0 0.23076725E+04</rscale>
<asrwt>0</asrwt>
<pdfrwt beam="1">  1        2 0.37464834E+00 0.23076725E+04</pdfrwt>
<pdfrwt beam="2">  1       -1 0.84108100E-01 0.23076725E+04</pdfrwt>
<totfact> 0.54789698E+00</totfact>
</mgrwt>
</event>
<event>
12    6  0.1586493E-007  0.1807617E+04  0.7818608E-02  0.8702260E-01
         -1   -1    0    0    0  501 -0.00000000000E+00  0.00000000000E+00  0.60878696231E+03  0.60878696231E+03  0.00000000000E+00 0.  1.
          2   -1    0    0  501    0  0.00000000000E+00 -0.00000000000E+00 -0.13417984971E+04  0.13417984971E+04  0.00000000000E+00 0. -1.
         24    2    1    2    0    0 -0.34752963081E+03  0.32878232286E+03 -0.79163075300E+03  0.92848801620E+03  0.80846069869E+02 0.  0.
        254    2    1    2    0    0  0.34752963081E+03 -0.32878232286E+03  0.58619218258E+02  0.10220974432E+04  0.90131698667E+03 0.  0.
         23    2    4    4    0    0 -0.12674888034E+03 -0.10387837270E+03  0.36291545965E+03  0.40853580124E+03  0.91311965586E+02 0.  0.
         23    2    4    4    0    0  0.47427851115E+03 -0.22490395016E+03 -0.30429624139E+03  0.61356164193E+03  0.91322467057E+02 0.  0.
          4    1    3    3  502    0 -0.33841041617E+03  0.30703044303E+03 -0.71703263798E+03  0.85025002596E+03  0.00000000000E+00 0. -1.
         -3    1    3    3    0  502 -0.91192146386E+01  0.21751879835E+02 -0.74598115020E+02  0.78237990238E+02  0.00000000000E+00 0.  1.
         11    1    5    5    0    0 -0.33547528177E+02 -0.69314390738E+02  0.92088960387E+02  0.12004290081E+03  0.00000000000E+00 0.  1.
        -11    1    5    5    0    0 -0.93201352162E+02 -0.34563981961E+02  0.27082649926E+03  0.28849290042E+03  0.00000000000E+00 0. -1.
          1    1    6    6  503    0  0.21593517371E+03 -0.14695264553E+03 -0.12488890042E+03  0.28951738587E+03  0.00000000000E+00 0. -1.
         -1    1    6    6    0  503  0.25834333743E+03 -0.77951304636E+02 -0.17940734097E+03  0.32404425606E+03  0.00000000000E+00 0.  1.
<mgrwt>
<rscale>  0 0.18076166E+04</rscale>
<asrwt>0</asrwt>
<pdfrwt beam="1">  1        2 0.20643054E+00 0.18076166E+04</pdfrwt>
<pdfrwt beam="2">  1       -1 0.93659533E-01 0.18076166E+04</pdfrwt>
<totfact> 0.18585035E+01</totfact>
</mgrwt>
</event>
<event>
12    6  0.1653453E-007  0.2610912E+04  0.7818608E-02  0.8364504E-01
         -1   -1    0    0    0  501 -0.00000000000E+00  0.00000000000E+00  0.13125419550E+04  0.13125419550E+04  0.00000000000E+00 0.  1.
          2   -1    0    0  501    0  0.00000000000E+00 -0.00000000000E+00 -0.12984085950E+04  0.12984085950E+04  0.00000000000E+00 0. -1.
         24    2    1    2    0    0  0.61255781675E+03 -0.47402203534E+03 -0.84091498247E+03  0.11464013686E+04  0.84700184713E+02 0.  0.
        254    2    1    2    0    0 -0.61255781675E+03  0.47402203534E+03  0.85504834249E+03  0.14645491814E+04  0.90214891663E+03 0.  0.
         23    2    4    4    0    0  0.20048294165E+03  0.23485365074E+03  0.13538039669E+03  0.34878190341E+03  0.89282233274E+02 0.  0.
         23    2    4    4    0    0 -0.81304075840E+03  0.23916838461E+03  0.71966794580E+03  0.11157672780E+04  0.93690316102E+02 0.  0.
          2    1    3    3  502    0  0.39466066611E+03 -0.34441211733E+03 -0.52919832892E+03  0.74459896540E+03  0.00000000000E+00 0. -1.
         -1    1    3    3    0  502  0.21789715064E+03 -0.12960991801E+03 -0.31171665355E+03  0.40180240318E+03  0.00000000000E+00 0.  1.
         11    1    5    5    0    0  0.18726566156E+03  0.19301439665E+03  0.14246846768E+03  0.30433575142E+03  0.00000000000E+00 0. -1.
        -11    1    5    5    0    0  0.13217280095E+02  0.41839254087E+02 -0.70880709890E+01  0.44446151982E+02  0.00000000000E+00 0.  1.
          2    1    6    6  503    0 -0.73719204773E+03  0.21007373071E+03  0.61194777542E+03  0.98084818775E+03  0.00000000000E+00 0. -1.
         -2    1    6    6    0  503 -0.75848710676E+02  0.29094653900E+02  0.10772017038E+03  0.13491909021E+03  0.00000000000E+00 0.  1.
<mgrwt>
<rscale>  0 0.26109123E+04</rscale>
<asrwt>0</asrwt>
<pdfrwt beam="1">  1        2 0.19975517E+00 0.26109123E+04</pdfrwt>
<pdfrwt beam="2">  1       -1 0.20192953E+00 0.26109123E+04</pdfrwt>
<totfact> 0.24349866E+00</totfact>
</mgrwt>
</event>
<event>
12    6  0.1586493E-007  0.4135501E+04  0.7818608E-02  0.7977756E-01
         -1   -1    0    0    0  501 -0.00000000000E+00  0.00000000000E+00  0.15055844615E+04  0.15055844615E+04  0.00000000000E+00 0.  1.
          2   -1    0    0  501    0  0.00000000000E+00 -0.00000000000E+00 -0.28398216728E+04  0.28398216728E+04  0.00000000000E+00 0. -1.
         24    2    1    2    0    0  0.15389207532E+03 -0.17977414921E+04  0.18433276041E+03  0.18153479935E+04  0.77152626481E+02 0.  0.
        254    2    1    2    0    0 -0.15389207532E+03  0.17977414921E+04 -0.15185699718E+04  0.25300581408E+04  0.91628717864E+03 0.  0.
         23    2    4    4    0    0  0.90560317363E+02  0.56088798407E+03 -0.10203531866E+04  0.11714108121E+04  0.91028366147E+02 0.  0.
         23    2    4    4    0    0 -0.24445239269E+03  0.12368535080E+04 -0.49821678513E+03  0.13586473288E+04  0.90216552865E+02 0.  0.
          2    1    3    3  502    0  0.16144147868E+03 -0.16108429820E+04  0.16455387105E+03  0.16272542641E+04  0.00000000000E+00 0. -1.
         -1    1    3    3    0  502 -0.75494033541E+01 -0.18689851011E+03  0.19778889361E+02  0.18809372939E+03  0.00000000000E+00 0.  1.
         11    1    5    5    0    0  0.35348028467E+02  0.17900999391E+03 -0.41776823293E+03  0.45587756852E+03  0.00000000000E+00 0. -1.
        -11    1    5    5    0    0  0.55212288896E+02  0.38187799016E+03 -0.60258495369E+03  0.71553324355E+03  0.00000000000E+00 0.  1.
          2    1    6    6  503    0 -0.13024268463E+03  0.73300280782E+03 -0.33903820979E+03  0.81804839764E+03  0.00000000000E+00 0. -1.
         -2    1    6    6    0  503 -0.11420970805E+03  0.50385070018E+03 -0.15917857534E+03  0.54059893113E+03  0.00000000000E+00 0.  1.
<mgrwt>
<rscale>  0 0.41355006E+04</rscale>
<asrwt>0</asrwt>
<pdfrwt beam="1">  1        2 0.43689564E+00 0.41355006E+04</pdfrwt>
<pdfrwt beam="2">  1       -1 0.23162838E+00 0.41355006E+04</pdfrwt>
<totfact> 0.17845633E-01</totfact>
</mgrwt>
</event>
<event>
12    6  0.1586493E-007  0.1616302E+04  0.7818608E-02  0.8810595E-01
          2   -1    0    0  501    0  0.00000000000E+00  0.00000000000E+00  0.43550280152E+03  0.43550280152E+03  0.00000000000E+00 0. -1.
         -3   -1    0    0    0  501 -0.00000000000E+00 -0.00000000000E+00 -0.14996644906E+04  0.14996644906E+04  0.00000000000E+00 0.  1.
         24    2    1    2    0    0  0.21834900929E+03  0.16460480272E+03 -0.96003929044E+03  0.10014087330E+04  0.79830948290E+02 0.  0.
        254    2    1    2    0    0 -0.21834900929E+03 -0.16460480272E+03 -0.10412239866E+03  0.93375855919E+03  0.88673138099E+03 0.  0.
         23    2    4    4    0    0 -0.90241676917E+02 -0.23381554743E+03  0.35474750741E+03  0.44372786460E+03  0.90748847574E+02 0.  0.
         23    2    4    4    0    0 -0.12810733238E+03  0.69210744713E+02 -0.45886990607E+03  0.49003069459E+03  0.91470624567E+02 0.  0.
          2    1    3    3  502    0  0.23351473335E+01  0.16896498169E+02 -0.23771500718E+02  0.29257970022E+02  0.00000000000E+00 0. -1.
         -1    1    3    3    0  502  0.21601386196E+03  0.14770830455E+03 -0.93626778973E+03  0.97215076293E+03  0.00000000000E+00 0.  1.
         11    1    5    5    0    0 -0.49047893438E+02 -0.45629156471E+02  0.51644107033E+02  0.84586225606E+02  0.00000000000E+00 0. -1.
        -11    1    5    5    0    0 -0.41193783479E+02 -0.18818639096E+03  0.30310340037E+03  0.35914163899E+03  0.00000000000E+00 0.  1.
          3    1    6    6  503    0  0.12956746773E+02 -0.15384753685E+01 -0.52412666809E+02  0.54012330402E+02  0.00000000000E+00 0. -1.
         -3    1    6    6    0  503 -0.14106407915E+03  0.70749220082E+02 -0.40645723926E+03  0.43601836419E+03  0.00000000000E+00 0.  1.
<mgrwt>
<rscale>  0 0.16163021E+04</rscale>
<asrwt>0</asrwt>
<pdfrwt beam="1">  1        2 0.67000432E-01 0.16163021E+04</pdfrwt>
<pdfrwt beam="2">  1       -3 0.23071761E+00 0.16163021E+04</pdfrwt>
<totfact> 0.40986050E+00</totfact>
</mgrwt>
</event>
<event>
12    6  0.1586493E-007  0.2077788E+04  0.7818608E-02  0.8571092E-01
         -1   -1    0    0    0  501 -0.00000000000E+00  0.00000000000E+00  0.66605959291E+03  0.66605959291E+03  0.00000000000E+00 0.  1.
          2   -1    0    0  501    0  0.00000000000E+00 -0.00000000000E+00 -0.16204266244E+04  0.16204266244E+04  0.00000000000E+00 0. -1.
         24    2    1    2    0    0 -0.61404396954E+03  0.90235888222E+02 -0.10138752819E+04  0.11914555626E+04  0.80192009354E+02 0.  0.
        254    2    1    2    0    0  0.61404396954E+03 -0.90235888222E+02  0.59508250466E+02  0.10950306547E+04  0.90019908394E+03 0.  0.
         23    2    4    4    0    0  0.38041434408E+03  0.10861833889E+03  0.43897344137E+03  0.59857228803E+03  0.95278985330E+02 0.  0.
         23    2    4    4    0    0  0.23362962545E+03 -0.19885422711E+03 -0.37946519090E+03  0.49645836663E+03  0.91385300569E+02 0.  0.
          2    1    3    3  502    0 -0.52626326094E+03  0.88623781701E+02 -0.91471319869E+03  0.10590124788E+04  0.00000000000E+00 0. -1.
         -1    1    3    3    0  502 -0.87780708598E+02  0.16121065203E+01 -0.99162083248E+02  0.13244308379E+03  0.00000000000E+00 0.  1.
         11    1    5    5    0    0  0.19163144638E+03  0.39081335913E+02  0.28302587254E+03  0.34402559001E+03  0.00000000000E+00 0. -1.
        -11    1    5    5    0    0  0.18878289770E+03  0.69537002975E+02  0.15594756883E+03  0.25454669802E+03  0.00000000000E+00 0.  1.
          4    1    6    6  503    0  0.88918266724E+02 -0.25593146338E+02 -0.13544518295E+03  0.16403312129E+03  0.00000000000E+00 0. -1.
         -4    1    6    6    0  503  0.14471135873E+03 -0.17326108077E+03 -0.24402000795E+03  0.33242524534E+03  0.00000000000E+00 0.  1.
<mgrwt>
<rscale>  0 0.20777880E+04</rscale>
<asrwt>0</asrwt>
<pdfrwt beam="1">  1        2 0.24929640E+00 0.20777880E+04</pdfrwt>
<pdfrwt beam="2">  1       -1 0.10247071E+00 0.20777880E+04</pdfrwt>
<totfact> 0.10291536E+01</totfact>
</mgrwt>
</event>
<event>
12    6  0.1586493E-007  0.1147360E+04  0.7818608E-02  0.9160223E-01
         -1   -1    0    0    0  501 -0.00000000000E+00  0.00000000000E+00  0.34679541875E+03  0.34679541875E+03  0.00000000000E+00 0.  1.
          2   -1    0    0  501    0  0.00000000000E+00 -0.00000000000E+00 -0.94899892560E+03  0.94899892560E+03  0.00000000000E+00 0. -1.
         24    2    1    2    0    0  0.34079560574E+02 -0.19535221664E+03 -0.49296343044E+02  0.21965533899E+03  0.80588048223E+02 0.  0.
        254    2    1    2    0    0 -0.34079560574E+02  0.19535221664E+03 -0.55290716381E+03  0.10761390054E+04  0.90169003658E+03 0.  0.
         23    2    4    4    0    0  0.15368670450E+03  0.51235711865E+03 -0.30113078182E+03  0.62047890361E+03  0.90470447599E+02 0.  0.
         23    2    4    4    0    0 -0.18776626507E+03 -0.31700490201E+03 -0.25177638199E+03  0.45566010175E+03  0.92122220973E+02 0.  0.
          4    1    3    3  502    0  0.22872949761E+02 -0.10333053399E+03 -0.67029372010E+02  0.12527293322E+03  0.00000000000E+00 0. -1.
         -3    1    3    3    0  502  0.11206610813E+02 -0.92021682646E+02  0.17733028966E+02  0.94382405771E+02  0.00000000000E+00 0.  1.
         11    1    5    5    0    0  0.18019232395E+02  0.13313308610E+03 -0.38869456485E+02  0.13985687683E+03  0.00000000000E+00 0. -1.
        -11    1    5    5    0    0  0.13566747211E+03  0.37922403255E+03 -0.26226132533E+03  0.48062202677E+03  0.00000000000E+00 0.  1.
          2    1    6    6  503    0 -0.45403533170E+02 -0.27396583274E+02 -0.14094633397E+02  0.54869957992E+02  0.00000000000E+00 0. -1.
         -2    1    6    6    0  503 -0.14236273190E+03 -0.28960831874E+03 -0.23768174860E+03  0.40079014376E+03  0.00000000000E+00 0.  1.
<mgrwt>
<rscale>  0 0.11473595E+04</rscale>
<asrwt>0</asrwt>
<pdfrwt beam="1">  1        2 0.14599984E+00 0.11473595E+04</pdfrwt>
<pdfrwt beam="2">  1       -1 0.53353141E-01 0.11473595E+04</pdfrwt>
<totfact> 0.10881275E+02</totfact>
</mgrwt>
</event>
<event>
12    6  0.1586493E-007  0.1491896E+04  0.7818608E-02  0.8889860E-01
          2   -1    0    0  501    0  0.00000000000E+00  0.00000000000E+00  0.27498877544E+04  0.27498877544E+04  0.00000000000E+00 0. -1.
         -1   -1    0    0    0  501 -0.00000000000E+00 -0.00000000000E+00 -0.20234962790E+03  0.20234962790E+03  0.00000000000E+00 0.  1.
         24    2    1    2    0    0 -0.35772545325E+03 -0.65389412343E+02  0.26708288099E+03  0.45794422581E+03  0.78335008011E+02 0.  0.
        254    2    1    2    0    0  0.35772545325E+03  0.65389412343E+02  0.22804552455E+04  0.24942931565E+04  0.94275073514E+03 0.  0.
         23    2    4    4    0    0 -0.16076297290E+03 -0.78976187847E+02  0.16396161393E+04  0.16519166615E+04  0.91682062313E+02 0.  0.
         23    2    4    4    0    0  0.51848842615E+03  0.14436560019E+03  0.64083910620E+03  0.84237649499E+03  0.96185886246E+02 0.  0.
          2    1    3    3  502    0 -0.14065914753E+02  0.38187076478E+00 -0.47627741109E+01  0.14855295364E+02  0.00000000000E+00 0. -1.
         -1    1    3    3    0  502 -0.34365953850E+03 -0.65771283108E+02  0.27184565510E+03  0.44308893044E+03  0.00000000000E+00 0.  1.
         11    1    5    5    0    0 -0.41697612521E+02  0.75762385044E+01  0.65370397766E+03  0.65507631669E+03  0.00000000000E+00 0. -1.
        -11    1    5    5    0    0 -0.11906536038E+03 -0.86552426351E+02  0.98591216166E+03  0.99684034482E+03  0.00000000000E+00 0.  1.
          3    1    6    6  503    0  0.21905397523E+03  0.99628903271E+02  0.33038862103E+03  0.40873855132E+03  0.00000000000E+00 0. -1.
         -3    1    6    6    0  503  0.29943445092E+03  0.44736696918E+02  0.31045048517E+03  0.43363794368E+03  0.00000000000E+00 0.  1.
<mgrwt>
<rscale>  0 0.14918965E+04</rscale>
<asrwt>0</asrwt>
<pdfrwt beam="1">  1        2 0.42305963E+00 0.14918965E+04</pdfrwt>
<pdfrwt beam="2">  1       -1 0.31130714E-01 0.14918965E+04</pdfrwt>
<totfact> 0.26220525E+01</totfact>
</mgrwt>
</event>
<event>
12    6  0.1586493E-007  0.1456905E+04  0.7818608E-02  0.8913627E-01
          2   -1    0    0  501    0  0.00000000000E+00  0.00000000000E+00  0.14119261440E+04  0.14119261440E+04  0.00000000000E+00 0. -1.
         -1   -1    0    0    0  501 -0.00000000000E+00 -0.00000000000E+00 -0.37582936062E+03  0.37582936062E+03  0.00000000000E+00 0.  1.
         24    2    1    2    0    0  0.17286491836E+03 -0.40819346681E+03  0.33782050306E+03  0.56343475228E+03  0.82654954128E+02 0.  0.
        254    2    1    2    0    0 -0.17286491836E+03  0.40819346681E+03  0.69827628035E+03  0.12243207524E+04  0.90270003580E+03 0.  0.
         23    2    4    4    0    0 -0.30578822631E+02  0.29759125382E+03 -0.15411158127E+03  0.34833007729E+03  0.89932444223E+02 0.  0.
         23    2    4    4    0    0 -0.14228609573E+03  0.11060221299E+03  0.85238786161E+03  0.87599067507E+03  0.91194372808E+02 0.  0.
          2    1    3    3  502    0  0.85584885316E+02 -0.19094997165E+03  0.10847781271E+03  0.23569917293E+03  0.00000000000E+00 0. -1.
         -1    1    3    3    0  502  0.87280033041E+02 -0.21724349516E+03  0.22934269034E+03  0.32773557935E+03  0.00000000000E+00 0.  1.
         11    1    5    5    0    0  0.21171184651E+02  0.15513094694E+03 -0.49657647332E+02  0.16425502031E+03  0.00000000000E+00 0. -1.
        -11    1    5    5    0    0 -0.51750007282E+02  0.14246030688E+03 -0.10445393393E+03  0.18407505698E+03  0.00000000000E+00 0.  1.
          1    1    6    6  503    0 -0.42594148405E+02 -0.11047345962E+02  0.15797480593E+03  0.16398885523E+03  0.00000000000E+00 0. -1.
         -1    1    6    6    0  503 -0.99691947321E+02  0.12164955895E+03  0.69441305569E+03  0.71200181984E+03  0.00000000000E+00 0.  1.
<mgrwt>
<rscale>  0 0.14569054E+04</rscale>
<asrwt>0</asrwt>
<pdfrwt beam="1">  1        2 0.21721940E+00 0.14569054E+04</pdfrwt>
<pdfrwt beam="2">  1       -1 0.57819902E-01 0.14569054E+04</pdfrwt>
<totfact> 0.47677507E+01</totfact>
</mgrwt>
</event>
<event>
12    6  0.1586493E-007  0.1884261E+04  0.7818608E-02  0.8662731E-01
          2   -1    0    0  501    0  0.00000000000E+00  0.00000000000E+00  0.67421767833E+03  0.67421767833E+03  0.00000000000E+00 0. -1.
         -1   -1    0    0    0  501 -0.00000000000E+00 -0.00000000000E+00 -0.13165034308E+04  0.13165034308E+04  0.00000000000E+00 0.  1.
         24    2    1    2    0    0  0.49375964420E+03 -0.42721786742E+03  0.83683637782E+02  0.66515111240E+03  0.95442959998E+02 0.  0.
        254    2    1    2    0    0 -0.49375964420E+03  0.42721786742E+03 -0.72596939023E+03  0.13255699967E+04  0.89654367887E+03 0.  0.
         23    2    4    4    0    0 -0.55822714609E+03 -0.80754098987E+02 -0.49646298439E+03  0.75678605108E+03  0.90060319227E+02 0.  0.
         23    2    4    4    0    0  0.64467501893E+02  0.50797196640E+03 -0.22950640583E+03  0.56878394562E+03  0.93007575098E+02 0.  0.
          2    1    3    3  502    0  0.37864661844E+03 -0.27203229649E+03  0.48442267706E+02  0.46874458428E+03  0.00000000000E+00 0. -1.
         -1    1    3    3    0  502  0.11511302576E+03 -0.15518557093E+03  0.35241370076E+02  0.19640652812E+03  0.00000000000E+00 0.  1.
         11    1    5    5    0    0 -0.42435737900E+03 -0.75157744346E+02 -0.42351169989E+03  0.60422680476E+03  0.00000000000E+00 0.  1.
        -11    1    5    5    0    0 -0.13386976710E+03 -0.55963546413E+01 -0.72951284500E+02  0.15255924632E+03  0.00000000000E+00 0. -1.
          4    1    6    6  503    0 -0.15354854477E+02  0.73769316197E+02 -0.10863019176E+02  0.76129421079E+02  0.00000000000E+00 0. -1.
         -4    1    6    6    0  503  0.79822356370E+02  0.43420265021E+03 -0.21864338666E+03  0.49265452454E+03  0.00000000000E+00 0.  1.
<mgrwt>
<rscale>  0 0.18842610E+04</rscale>
<asrwt>0</asrwt>
<pdfrwt beam="1">  1        2 0.10372580E+00 0.18842610E+04</pdfrwt>
<pdfrwt beam="2">  1       -1 0.20253899E+00 0.18842610E+04</pdfrwt>
<totfact> 0.66485357E+00</totfact>
</mgrwt>
</event>
<event>
12    6  0.1586493E-007  0.1309971E+04  0.7818608E-02  0.9021695E-01
          2   -1    0    0  501    0  0.00000000000E+00  0.00000000000E+00  0.13191882172E+04  0.13191882172E+04  0.00000000000E+00 0. -1.
         -1   -1    0    0    0  501 -0.00000000000E+00 -0.00000000000E+00 -0.32520445320E+03  0.32520445320E+03  0.00000000000E+00 0.  1.
         24    2    1    2    0    0  0.47245920561E+02 -0.29892562047E+02  0.67234530586E+03  0.67989175493E+03  0.84135877226E+02 0.  0.
        254    2    1    2    0    0 -0.47245920561E+02  0.29892562047E+02  0.32163845820E+03  0.96450091552E+03  0.90757092063E+03 0.  0.
         23    2    4    4    0    0 -0.36991299866E+03 -0.12776577039E+03  0.41796630423E+03  0.58045737562E+03  0.95263921668E+02 0.  0.
         23    2    4    4    0    0  0.32266707810E+03  0.15765833244E+03 -0.96327846033E+02  0.38404353990E+03  0.96125925421E+02 0.  0.
          2    1    3    3  502    0 -0.14058156089E+02 -0.35164160024E+02  0.31759646377E+03  0.31984631262E+03  0.00000000000E+00 0. -1.
         -1    1    3    3    0  502  0.61304076649E+02  0.52715979764E+01  0.35474884209E+03  0.36004544230E+03  0.00000000000E+00 0.  1.
         11    1    5    5    0    0 -0.11424355758E+03 -0.42819390498E+02  0.70944532478E+02  0.14113191468E+03  0.00000000000E+00 0.  1.
        -11    1    5    5    0    0 -0.25566944108E+03 -0.84946379897E+02  0.34702177175E+03  0.43932546094E+03  0.00000000000E+00 0. -1.
          3    1    6    6  503    0  0.70577514551E+02  0.27472892655E+02 -0.62728639688E+02  0.98340366219E+02  0.00000000000E+00 0. -1.
         -3    1    6    6    0  503  0.25208956355E+03  0.13018543979E+03 -0.33599206344E+02  0.28570317368E+03  0.00000000000E+00 0.  1.
<mgrwt>
<rscale>  0 0.13099708E+04</rscale>
<asrwt>0</asrwt>
<pdfrwt beam="1">  1        2 0.20295203E+00 0.13099708E+04</pdfrwt>
<pdfrwt beam="2">  1       -1 0.50031455E-01 0.13099708E+04</pdfrwt>
<totfact> 0.72096013E+01</totfact>
</mgrwt>
</event>
<event>
12    6  0.1586493E-007  0.1535807E+04  0.7818608E-02  0.8860985E-01
          2   -1    0    0  501    0  0.00000000000E+00  0.00000000000E+00  0.69176583976E+03  0.69176583976E+03  0.00000000000E+00 0. -1.
         -1   -1    0    0    0  501 -0.00000000000E+00 -0.00000000000E+00 -0.85242092191E+03  0.85242092191E+03  0.00000000000E+00 0.  1.
         24    2    1    2    0    0  0.46990891913E+03 -0.49133191457E+02 -0.21658530383E+03  0.52944484981E+03  0.10086720169E+03 0.  0.
        254    2    1    2    0    0 -0.46990891913E+03  0.49133191457E+02  0.55930221672E+02  0.10147419118E+04  0.89629487067E+03 0.  0.
         23    2    4    4    0    0 -0.27954391363E+03  0.34621572675E+03 -0.26728828131E+03  0.52744038498E+03  0.93489065064E+02 0.  0.
         23    2    4    4    0    0 -0.19036500551E+03 -0.29708253529E+03  0.32321850298E+03  0.48730152687E+03  0.92172172180E+02 0.  0.
          4    1    3    3  502    0  0.27245777101E+03  0.19323868678E+02 -0.10582408212E+03  0.29292556262E+03  0.00000000000E+00 0. -1.
         -3    1    3    3    0  502  0.19745114813E+03 -0.68457060135E+02 -0.11076122170E+03  0.23651928719E+03  0.00000000000E+00 0.  1.
         11    1    5    5    0    0 -0.22935310273E+03  0.27355779996E+03 -0.25403286328E+03  0.43814314016E+03  0.00000000000E+00 0.  1.
        -11    1    5    5    0    0 -0.50190810900E+02  0.72657926789E+02 -0.13255418034E+02  0.89297244814E+02  0.00000000000E+00 0. -1.
          2    1    6    6  503    0 -0.10855171041E+03 -0.23138967730E+03  0.19414974369E+03  0.32096538687E+03  0.00000000000E+00 0. -1.
         -2    1    6    6    0  503 -0.81813295097E+02 -0.65692857995E+02  0.12906875929E+03  0.16633614000E+03  0.00000000000E+00 0.  1.
<mgrwt>
<rscale>  0 0.15358069E+04</rscale>
<asrwt>0</asrwt>
<pdfrwt beam="1">  1        2 0.10642551E+00 0.15358069E+04</pdfrwt>
<pdfrwt beam="2">  1       -1 0.13114168E+00 0.15358069E+04</pdfrwt>
<totfact> 0.22711176E+01</totfact>
</mgrwt>
</event>
<event>
12    6  0.1586493E-007  0.1189038E+04  0.7818608E-02  0.9122506E-01
          2   -1    0    0  501    0  0.00000000000E+00  0.00000000000E+00  0.99310522764E+03  0.99310522764E+03  0.00000000000E+00 0. -1.
         -1   -1    0    0    0  501 -0.00000000000E+00 -0.00000000000E+00 -0.35590662383E+03  0.35590662383E+03  0.00000000000E+00 0.  1.
         24    2    1    2    0    0 -0.17962018454E+01 -0.22650365156E+03  0.23471337469E+03  0.33577460727E+03  0.79668614375E+02 0.  0.
        254    2    1    2    0    0  0.17962018454E+01  0.22650365156E+03  0.40248522911E+03  0.10132372442E+04  0.90185820552E+03 0.  0.
         23    2    4    4    0    0  0.13285487702E+03  0.39848342487E+02 -0.25876743878E+03  0.30765812201E+03  0.91949028902E+02 0.  0.
         23    2    4    4    0    0 -0.13105867517E+03  0.18665530908E+03  0.66125266789E+03  0.70557912219E+03  0.92575515825E+02 0.  0.
          2    1    3    3  502    0  0.16300890701E+02 -0.20440062474E+03  0.17497798435E+03  0.26956006647E+03  0.00000000000E+00 0. -1.
         -1    1    3    3    0  502 -0.18097092546E+02 -0.22103026828E+02  0.59735390349E+02  0.66214540803E+02  0.00000000000E+00 0.  1.
         11    1    5    5    0    0  0.13938296258E+03  0.53763980706E+02 -0.24535549193E+03  0.28725858264E+03  0.00000000000E+00 0. -1.
        -11    1    5    5    0    0 -0.65280855593E+01 -0.13915638219E+02 -0.13411946850E+02  0.20399539368E+02  0.00000000000E+00 0.  1.
          2    1    6    6  503    0 -0.12485898595E+03  0.13185451661E+03  0.57683646090E+03  0.60474431172E+03  0.00000000000E+00 0. -1.
         -2    1    6    6    0  503 -0.61996892224E+01  0.54800792462E+02  0.84416206987E+02  0.10083481047E+03  0.00000000000E+00 0.  1.
<mgrwt>
<rscale>  0 0.11890378E+04</rscale>
<asrwt>0</asrwt>
<pdfrwt beam="1">  1        2 0.15278542E+00 0.11890378E+04</pdfrwt>
<pdfrwt beam="2">  1       -1 0.54754866E-01 0.11890378E+04</pdfrwt>
<totfact> 0.96588021E+01</totfact>
</mgrwt>
</event>
<event>
12    6  0.1586493E-007  0.1622916E+04  0.7818608E-02  0.8806592E-01
         -1   -1    0    0    0  501 -0.00000000000E+00  0.00000000000E+00  0.36484596632E+03  0.36484596632E+03  0.00000000000E+00 0.  1.
          2   -1    0    0  501    0  0.00000000000E+00 -0.00000000000E+00 -0.18047734162E+04  0.18047734162E+04  0.00000000000E+00 0. -1.
         24    2    1    2    0    0  0.21877299349E+03 -0.28453122388E+02 -0.11956363745E+04  0.12181614426E+04  0.75496736974E+02 0.  0.
        254    2    1    2    0    0 -0.21877299349E+03  0.28453122388E+02 -0.24429107541E+03  0.95145793998E+03  0.89270537087E+03 0.  0.
         23    2    4    4    0    0 -0.41991320858E+03  0.32903069928E+03 -0.19416902715E+03  0.57522093336E+03  0.92677976132E+02 0.  0.
         23    2    4    4    0    0  0.20114021509E+03 -0.30057757689E+03 -0.50122048257E+02  0.37623700662E+03  0.90762324636E+02 0.  0.
          2    1    3    3  502    0  0.20293662680E+03 -0.69653295144E+01 -0.11113914304E+04  0.11297887864E+04  0.00000000000E+00 0. -1.
         -3    1    3    3    0  502  0.15836366688E+02 -0.21487792874E+02 -0.84244944073E+02  0.88372656147E+02  0.00000000000E+00 0.  1.
         11    1    5    5    0    0 -0.28222914038E+03  0.26918130406E+03 -0.12203946263E+03  0.40866305507E+03  0.00000000000E+00 0.  1.
        -11    1    5    5    0    0 -0.13768406820E+03  0.59849395222E+02 -0.72129564518E+02  0.16655787829E+03  0.00000000000E+00 0. -1.
          1    1    6    6  503    0  0.15288653655E+02  0.10501390065E+01  0.78806993045E+01  0.17232270426E+02  0.00000000000E+00 0. -1.
         -1    1    6    6    0  503  0.18585156144E+03 -0.30162771590E+03 -0.58002747561E+02  0.35900473620E+03  0.00000000000E+00 0.  1.
<mgrwt>
<rscale>  0 0.16229163E+04</rscale>
<asrwt>0</asrwt>
<pdfrwt beam="1">  1        2 0.27765745E+00 0.16229163E+04</pdfrwt>
<pdfrwt beam="2">  1       -1 0.56130149E-01 0.16229163E+04</pdfrwt>
<totfact> 0.30031278E+01</totfact>
</mgrwt>
</event>
<event>
12    6  0.1586493E-007  0.2113433E+04  0.7818608E-02  0.8555349E-01
         -1   -1    0    0    0  501 -0.00000000000E+00  0.00000000000E+00  0.14021277389E+04  0.14021277389E+04  0.00000000000E+00 0.  1.
          2   -1    0    0  501    0  0.00000000000E+00 -0.00000000000E+00 -0.79639661751E+03  0.79639661751E+03  0.00000000000E+00 0. -1.
         24    2    1    2    0    0 -0.25177804619E+03  0.62765762479E+03 -0.31007329478E+03  0.74832002530E+03  0.80567571837E+02 0.  0.
        254    2    1    2    0    0  0.25177804619E+03 -0.62765762479E+03  0.91580441615E+03  0.14502043311E+04  0.89835883408E+03 0.  0.
         23    2    4    4    0    0  0.34220692608E+03 -0.81290145042E+03  0.80983098597E+03  0.12010458716E+04  0.93651542763E+02 0.  0.
         23    2    4    4    0    0 -0.90428879889E+02  0.18524382563E+03  0.10597343018E+03  0.24915845950E+03  0.91416151675E+02 0.  0.
          4    1    3    3  502    0 -0.11764346943E+03  0.28327628566E+03 -0.18471273931E+03  0.35805619110E+03  0.00000000000E+00 0. -1.
         -3    1    3    3    0  502 -0.13413457676E+03  0.34438133913E+03 -0.12536055547E+03  0.39026383420E+03  0.00000000000E+00 0.  1.
         11    1    5    5    0    0  0.22155293051E+03 -0.62940683223E+03  0.61633608113E+03  0.90835501120E+03  0.00000000000E+00 0. -1.
        -11    1    5    5    0    0  0.12065399557E+03 -0.18349461819E+03  0.19349490484E+03  0.29269086038E+03  0.00000000000E+00 0.  1.
          1    1    6    6  503    0 -0.44649764089E+02  0.15111535199E+03  0.41322658152E+02  0.16290185118E+03  0.00000000000E+00 0. -1.
         -1    1    6    6    0  503 -0.45779115800E+02  0.34128473637E+02  0.64650772025E+02  0.86256608325E+02  0.00000000000E+00 0.  1.
<mgrwt>
<rscale>  0 0.21134330E+04</rscale>
<asrwt>0</asrwt>
<pdfrwt beam="1">  1        2 0.12252256E+00 0.21134330E+04</pdfrwt>
<pdfrwt beam="2">  1       -1 0.21571196E+00 0.21134330E+04</pdfrwt>
<totfact> 0.42805899E+00</totfact>
</mgrwt>
</event>
<event>
12    6  0.1586493E-007  0.1716214E+04  0.7818608E-02  0.8752171E-01
          2   -1    0    0  501    0  0.00000000000E+00  0.00000000000E+00  0.21879210042E+04  0.21879210042E+04  0.00000000000E+00 0. -1.
         -1   -1    0    0    0  501 -0.00000000000E+00 -0.00000000000E+00 -0.33655128984E+03  0.33655128984E+03  0.00000000000E+00 0.  1.
         24    2    1    2    0    0  0.31366256134E+03 -0.15637249603E+03  0.14284402079E+04  0.14728427673E+04  0.77381068202E+02 0.  0.
        254    2    1    2    0    0 -0.31366256134E+03  0.15637249603E+03  0.42292950646E+03  0.10516295267E+04  0.89678243413E+03 0.  0.
         23    2    4    4    0    0 -0.97562867968E+02 -0.29591247173E+03  0.43262729991E+03  0.54202472136E+03  0.97681696362E+02 0.  0.
         23    2    4    4    0    0 -0.21609969338E+03  0.45228496777E+03 -0.96977934558E+01  0.50960480537E+03  0.91335868732E+02 0.  0.
          4    1    3    3  502    0  0.28463688769E+03 -0.11386835747E+03  0.11842693402E+04  0.12233061885E+04  0.00000000000E+00 0. -1.
         -3    1    3    3    0  502  0.29025673655E+02 -0.42504138566E+02  0.24417086763E+03  0.24953657873E+03  0.00000000000E+00 0.  1.
         11    1    5    5    0    0 -0.74891502734E+01 -0.38736019562E+02  0.12726123114E+02  0.41455045445E+02  0.00000000000E+00 0.  1.
        -11    1    5    5    0    0 -0.90073717695E+02 -0.25717645217E+03  0.41990117680E+03  0.50056967592E+03  0.00000000000E+00 0. -1.
          3    1    6    6  503    0 -0.94502699780E+02  0.24984177756E+03 -0.44823500474E+02  0.27085202653E+03  0.00000000000E+00 0. -1.
         -3    1    6    6    0  503 -0.12159699360E+03  0.20244319021E+03  0.35125707018E+02  0.23875277885E+03  0.00000000000E+00 0.  1.
<mgrwt>
<rscale>  0 0.17162140E+04</rscale>
<asrwt>0</asrwt>
<pdfrwt beam="1">  1        2 0.33660322E+00 0.17162140E+04</pdfrwt>
<pdfrwt beam="2">  1       -1 0.51777123E-01 0.17162140E+04</pdfrwt>
<totfact> 0.21322725E+01</totfact>
</mgrwt>
</event>
<event>
12    6  0.1586493E-007  0.2097264E+04  0.7818608E-02  0.8562450E-01
         -1   -1    0    0    0  501 -0.00000000000E+00  0.00000000000E+00  0.80465867654E+03  0.80465867654E+03  0.00000000000E+00 0.  1.
          2   -1    0    0  501    0  0.00000000000E+00 -0.00000000000E+00 -0.13665776360E+04  0.13665776360E+04  0.00000000000E+00 0. -1.
         24    2    1    2    0    0 -0.25176888693E+02 -0.44720269231E+03 -0.97980374715E+03  0.10805739884E+04  0.83669813530E+02 0.  0.
        254    2    1    2    0    0  0.25176888693E+02  0.44720269231E+03  0.41788478771E+03  0.10906623242E+04  0.90238156331E+03 0.  0.
         23    2    4    4    0    0  0.58279672931E+00  0.70969261527E+03  0.22105119864E+03  0.74942376272E+03  0.95437916347E+02 0.  0.
         23    2    4    4    0    0  0.24594091963E+02 -0.26248992296E+03  0.19683358906E+03  0.34123856144E+03  0.90523284372E+02 0.  0.
          2    1    3    3  502    0 -0.15312704936E+02 -0.43983297795E+03 -0.96872969539E+03  0.10640135103E+04  0.00000000000E+00 0. -1.
         -1    1    3    3    0  502 -0.98641837569E+01 -0.73697143572E+01 -0.11074051759E+02  0.16560478051E+02  0.00000000000E+00 0.  1.
         11    1    5    5    0    0  0.18606636029E+02  0.60183506867E+02 -0.30301678991E+00  0.62994866635E+02  0.00000000000E+00 0. -1.
        -11    1    5    5    0    0 -0.18023839300E+02  0.64950910840E+03  0.22135421543E+03  0.68642889608E+03  0.00000000000E+00 0.  1.
          1    1    6    6  503    0  0.70180414329E+01 -0.26338581673E+02  0.64369364074E+02  0.69902709685E+02  0.00000000000E+00 0. -1.
         -1    1    6    6    0  503  0.17576050531E+02 -0.23615134129E+03  0.13246422499E+03  0.27133585175E+03  0.00000000000E+00 0.  1.
<mgrwt>
<rscale>  0 0.20972635E+04</rscale>
<asrwt>0</asrwt>
<pdfrwt beam="1">  1        2 0.21024271E+00 0.20972635E+04</pdfrwt>
<pdfrwt beam="2">  1       -1 0.12379364E+00 0.20972635E+04</pdfrwt>
<totfact> 0.91092336E+00</totfact>
</mgrwt>
</event>
<event>
12    6  0.1586493E-007  0.1192709E+04  0.7818608E-02  0.9119262E-01
          2   -1    0    0  501    0  0.00000000000E+00  0.00000000000E+00  0.10198044481E+04  0.10198044481E+04  0.00000000000E+00 0. -1.
         -1   -1    0    0    0  501 -0.00000000000E+00 -0.00000000000E+00 -0.34873221821E+03  0.34873221821E+03  0.00000000000E+00 0.  1.
         24    2    1    2    0    0 -0.31598138314E+03  0.12114408705E+02  0.38647166334E+03  0.50523836401E+03  0.76905555777E+02 0.  0.
        254    2    1    2    0    0  0.31598138314E+03 -0.12114408705E+02  0.28460056657E+03  0.86329830232E+03  0.75119603494E+03 0.  0.
         23    2    4    4    0    0 -0.19330162245E+03 -0.87350451190E+02 -0.58744742698E+02  0.23795592700E+03  0.90423779142E+02 0.  0.
         23    2    4    4    0    0  0.50928300559E+03  0.75236042485E+02  0.34334530927E+03  0.62534237532E+03  0.90207777414E+02 0.  0.
          2    1    3    3  502    0 -0.31155886175E+03  0.15048023127E+02  0.35182419839E+03  0.47018680746E+03  0.00000000000E+00 0. -1.
         -1    1    3    3    0  502 -0.44225213918E+01 -0.29336144223E+01  0.34647464951E+02  0.35051556550E+02  0.00000000000E+00 0.  1.
         11    1    5    5    0    0 -0.13846226132E+03 -0.40725094574E+02  0.11238298854E+01  0.14433154240E+03  0.00000000000E+00 0. -1.
        -11    1    5    5    0    0 -0.54839361135E+02 -0.46625356616E+02 -0.59868572583E+02  0.93624384604E+02  0.00000000000E+00 0.  1.
          1    1    6    6  503    0  0.45507116492E+03  0.75283638208E+02  0.27112315639E+03  0.53503752883E+03  0.00000000000E+00 0. -1.
         -1    1    6    6    0  503  0.54211840670E+02 -0.47595722519E-01  0.72222152876E+02  0.90304846494E+02  0.00000000000E+00 0.  1.
<mgrwt>
<rscale>  0 0.11927090E+04</rscale>
<asrwt>0</asrwt>
<pdfrwt beam="1">  1        2 0.15689299E+00 0.11927090E+04</pdfrwt>
<pdfrwt beam="2">  1       -1 0.53651111E-01 0.11927090E+04</pdfrwt>
<totfact> 0.96553353E+01</totfact>
</mgrwt>
</event>
<event>
12    6  0.1586493E-007  0.1628574E+04  0.7818608E-02  0.8803184E-01
          2   -1    0    0  501    0  0.00000000000E+00  0.00000000000E+00  0.83712461126E+03  0.83712461126E+03  0.00000000000E+00 0. -1.
         -1   -1    0    0    0  501 -0.00000000000E+00 -0.00000000000E+00 -0.79207213588E+03  0.79207213588E+03  0.00000000000E+00 0.  1.
         24    2    1    2    0    0  0.32455274125E+03  0.13988283237E+02  0.47449960001E+03  0.58069662252E+03  0.80799400216E+02 0.  0.
        254    2    1    2    0    0 -0.32455274125E+03 -0.13988283237E+02 -0.42944712463E+03  0.10485001246E+04  0.89966522916E+03 0.  0.
         23    2    4    4    0    0  0.56703406863E+02  0.13967421079E+03  0.21602875882E+03  0.27885368929E+03  0.91470180313E+02 0.  0.
         23    2    4    4    0    0 -0.38125614812E+03 -0.15366249403E+03 -0.64547588345E+03  0.76964643533E+03  0.82146860907E+02 0.  0.
          4    1    3    3  502    0  0.19436508329E+03  0.47958838720E+02  0.28152433080E+03  0.34544722411E+03  0.00000000000E+00 0. -1.
         -3    1    3    3    0  502  0.13018765796E+03 -0.33970555482E+02  0.19297526921E+03  0.23524939841E+03  0.00000000000E+00 0.  1.
         11    1    5    5    0    0 -0.11982901622E+02  0.54548537247E+02  0.30903463457E+02  0.63829122669E+02  0.00000000000E+00 0.  1.
        -11    1    5    5    0    0  0.68686308485E+02  0.85125673544E+02  0.18512529536E+03  0.21502456663E+03  0.00000000000E+00 0. -1.
          3    1    6    6  503    0 -0.33454574935E+03 -0.10342165780E+03 -0.55203686293E+03  0.65372899259E+03  0.00000000000E+00 0. -1.
         -3    1    6    6    0  503 -0.46710398767E+02 -0.50240836227E+02 -0.93439020512E+02  0.11591744274E+03  0.00000000000E+00 0.  1.
<mgrwt>
<rscale>  0 0.16285737E+04</rscale>
<asrwt>0</asrwt>
<pdfrwt beam="1">  1        2 0.12878840E+00 0.16285737E+04</pdfrwt>
<pdfrwt beam="2">  1       -1 0.12185725E+00 0.16285737E+04</pdfrwt>
<totfact> 0.21104260E+01</totfact>
</mgrwt>
</event>
<event>
12    6  0.1586493E-007  0.1637624E+04  0.7818608E-02  0.8797762E-01
          2   -1    0    0  501    0  0.00000000000E+00  0.00000000000E+00  0.35422769981E+03  0.35422769981E+03  0.00000000000E+00 0. -1.
         -1   -1    0    0    0  501 -0.00000000000E+00 -0.00000000000E+00 -0.18927179435E+04  0.18927179435E+04  0.00000000000E+00 0.  1.
         24    2    1    2    0    0  0.20262604999E+03  0.23621354105E+03 -0.11896018725E+04  0.12321049448E+04  0.77947589769E+02 0.  0.
        254    2    1    2    0    0 -0.20262604999E+03 -0.23621354105E+03 -0.34888837117E+03  0.10148406985E+04  0.90073547434E+03 0.  0.
         23    2    4    4    0    0 -0.19936210840E+03 -0.50363832802E+03  0.20968418248E+02  0.54912867291E+03  0.87782738254E+02 0.  0.
         23    2    4    4    0    0 -0.32639415894E+01  0.26742478696E+03 -0.36985678941E+03  0.46571202561E+03  0.92557960915E+02 0.  0.
          4    1    3    3  502    0  0.52493558618E+02  0.17198892349E+02 -0.19631095411E+03  0.20393471087E+03  0.00000000000E+00 0. -1.
         -3    1    3    3    0  502  0.15013249138E+03  0.21901464870E+03 -0.99329091839E+03  0.10281702339E+04  0.00000000000E+00 0.  1.
         11    1    5    5    0    0 -0.28448600998E+02 -0.43746307760E+02  0.26385854663E+02  0.58474572830E+02  0.00000000000E+00 0. -1.
        -11    1    5    5    0    0 -0.17091350741E+03 -0.45989202026E+03 -0.54174364153E+01  0.49065410008E+03  0.00000000000E+00 0.  1.
          3    1    6    6  503    0 -0.21919361486E+02  0.41037770122E+02 -0.11643537976E+03  0.12538642129E+03  0.00000000000E+00 0. -1.
         -3    1    6    6    0  503  0.18655419897E+02  0.22638701684E+03 -0.25342140965E+03  0.34032560432E+03  0.00000000000E+00 0.  1.
<mgrwt>
<rscale>  0 0.16376240E+04</rscale>
<asrwt>0</asrwt>
<pdfrwt beam="1">  1        2 0.54496570E-01 0.16376240E+04</pdfrwt>
<pdfrwt beam="2">  1       -1 0.29118737E+00 0.16376240E+04</pdfrwt>
<totfact> 0.37626606E+00</totfact>
</mgrwt>
</event>
<event>
12    6  0.1586493E-007  0.1038660E+04  0.7818608E-02  0.9267130E-01
         -1   -1    0    0    0  501 -0.00000000000E+00  0.00000000000E+00  0.38867224602E+03  0.38867224602E+03  0.00000000000E+00 0.  1.
          4   -1    0    0  501    0  0.00000000000E+00 -0.00000000000E+00 -0.69391059957E+03  0.69391059957E+03  0.00000000000E+00 0. -1.
         24    2    1    2    0    0  0.10539704580E+03  0.73817218957E+02  0.26886244209E+01  0.15191559786E+03  0.80706883813E+02 0.  0.
        254    2    1    2    0    0 -0.10539704580E+03 -0.73817218957E+02 -0.30792697797E+03  0.93066724774E+03  0.86877211233E+03 0.  0.
         23    2    4    4    0    0 -0.62899830739E+02  0.83282399190E+02 -0.58264770993E+03  0.59881497365E+03  0.90601722158E+02 0.  0.
         23    2    4    4    0    0 -0.42497215056E+02 -0.15709961815E+03  0.27472073196E+03  0.33185227409E+03  0.90377806686E+02 0.  0.
          4    1    3    3  502    0  0.83524266636E+02  0.70177919936E+02 -0.29331844842E+02  0.11296725493E+03  0.00000000000E+00 0. -1.
         -3    1    3    3    0  502  0.21872779159E+02  0.36392990210E+01  0.32020469262E+02  0.38948342934E+02  0.00000000000E+00 0.  1.
         11    1    5    5    0    0 -0.42601161247E+02  0.83509000795E+02 -0.56234094112E+03  0.57010169813E+03  0.00000000000E+00 0.  1.
        -11    1    5    5    0    0 -0.20298669492E+02 -0.22660160517E+00 -0.20306768810E+02  0.28713275517E+02  0.00000000000E+00 0. -1.
          1    1    6    6  503    0  0.21897453137E+02 -0.72173278067E+02  0.14925543784E+03  0.16722938212E+03  0.00000000000E+00 0. -1.
         -1    1    6    6    0  503 -0.64394668193E+02 -0.84926340080E+02  0.12546529412E+03  0.16462289197E+03  0.00000000000E+00 0.  1.
<mgrwt>
<rscale>  0 0.10386603E+04</rscale>
<asrwt>0</asrwt>
<pdfrwt beam="1">  1        4 0.10675547E+00 0.10386603E+04</pdfrwt>
<pdfrwt beam="2">  1       -1 0.59795731E-01 0.10386603E+04</pdfrwt>
<totfact> 0.81892166E+00</totfact>
</mgrwt>
</event>
<event>
12    6  0.1586493E-007  0.2211487E+04  0.7818608E-02  0.8513662E-01
         -1   -1    0    0    0  501 -0.00000000000E+00  0.00000000000E+00  0.26653871762E+03  0.26653871762E+03  0.00000000000E+00 0.  1.
          2   -1    0    0  501    0  0.00000000000E+00 -0.00000000000E+00 -0.45872067552E+04  0.45872067552E+04  0.00000000000E+00 0. -1.
         24    2    1    2    0    0 -0.26539653322E+03 -0.79747232265E+03 -0.26341050409E+04  0.27660922858E+04  0.79747991503E+02 0.  0.
        254    2    1    2    0    0  0.26539653322E+03  0.79747232265E+03 -0.16865629967E+04  0.20876531869E+04  0.89855643228E+03 0.  0.
         23    2    4    4    0    0 -0.31777579517E+03  0.39436672976E+03 -0.72245853435E+03  0.88755783582E+03  0.96467634601E+02 0.  0.
         23    2    4    4    0    0  0.58317232839E+03  0.40310559289E+03 -0.96410446231E+03  0.12000953511E+04  0.90262693980E+02 0.  0.
          2    1    3    3  502    0 -0.24385619918E+03 -0.77144873554E+03 -0.24930745430E+04  0.26210722375E+04  0.00000000000E+00 0. -1.
         -1    1    3    3    0  502 -0.21540334043E+02 -0.26023587117E+02 -0.14103049788E+03  0.14502004830E+03  0.00000000000E+00 0.  1.
         11    1    5    5    0    0 -0.53869701111E+02  0.20009915525E+02 -0.75812489247E+02  0.95130830665E+02  0.00000000000E+00 0. -1.
        -11    1    5    5    0    0 -0.26390609405E+03  0.37435681424E+03 -0.64664604511E+03  0.79242700516E+03  0.00000000000E+00 0.  1.
          1    1    6    6  503    0  0.20133898337E+03  0.15324245127E+03 -0.41594652705E+03  0.48685947506E+03  0.00000000000E+00 0. -1.
         -1    1    6    6    0  503  0.38183334502E+03  0.24986314162E+03 -0.54815793526E+03  0.71323587606E+03  0.00000000000E+00 0.  1.
<mgrwt>
<rscale>  0 0.22114866E+04</rscale>
<asrwt>0</asrwt>
<pdfrwt beam="1">  1        2 0.70572412E+00 0.22114866E+04</pdfrwt>
<pdfrwt beam="2">  1       -1 0.41005956E-01 0.22114866E+04</pdfrwt>
<totfact> 0.61650173E-01</totfact>
</mgrwt>
</event>
<event>
12    6  0.1586493E-007  0.1517949E+04  0.7818608E-02  0.8872604E-01
          2   -1    0    0  501    0  0.00000000000E+00  0.00000000000E+00  0.11059664149E+04  0.11059664149E+04  0.00000000000E+00 0. -1.
         -3   -1    0    0    0  501 -0.00000000000E+00 -0.00000000000E+00 -0.52084998094E+03  0.52084998094E+03  0.00000000000E+00 0.  1.
         24    2    1    2    0    0  0.49552252799E+01 -0.37406125539E+03  0.53772699505E+03  0.66044359827E+03  0.84196485941E+02 0.  0.
        254    2    1    2    0    0 -0.49552252799E+01  0.37406125539E+03  0.47389438898E+02  0.96637279757E+03  0.88976640076E+03 0.  0.
         23    2    4    4    0    0 -0.10472861566E+03 -0.26604074831E+03 -0.53574339026E+02  0.30435833684E+03  0.89543423575E+02 0.  0.
         23    2    4    4    0    0  0.99773390378E+02  0.64010200370E+03  0.10096377792E+03  0.66201446073E+03  0.91565043465E+02 0.  0.
          4    1    3    3  502    0 -0.17636422349E+02 -0.34470624724E+03  0.50007551644E+03  0.60762567624E+03  0.00000000000E+00 0. -1.
         -3    1    3    3    0  502  0.22591647629E+02 -0.29355008153E+02  0.37651478610E+02  0.52817922032E+02  0.00000000000E+00 0.  1.
         11    1    5    5    0    0 -0.63298842412E+02 -0.54090695011E+02 -0.80421239549E+01  0.83649402240E+02  0.00000000000E+00 0. -1.
        -11    1    5    5    0    0 -0.41429773246E+02 -0.21195005330E+03 -0.45532215071E+02  0.22070893460E+03  0.00000000000E+00 0.  1.
          1    1    6    6  503    0  0.12896579664E+02  0.34941586869E+03  0.74244437085E+02  0.35744930760E+03  0.00000000000E+00 0. -1.
         -1    1    6    6    0  503  0.86876810714E+02  0.29068613501E+03  0.26719340838E+02  0.30456515313E+03  0.00000000000E+00 0.  1.
<mgrwt>
<rscale>  0 0.15179494E+04</rscale>
<asrwt>0</asrwt>
<pdfrwt beam="1">  1        2 0.17014868E+00 0.15179494E+04</pdfrwt>
<pdfrwt beam="2">  1       -3 0.80130767E-01 0.15179494E+04</pdfrwt>
<totfact> 0.19199541E+01</totfact>
</mgrwt>
</event>
<event>
12    6  0.1586493E-007  0.2502663E+04  0.7818608E-02  0.8402037E-01
         -1   -1    0    0    0  501 -0.00000000000E+00  0.00000000000E+00  0.88244883924E+03  0.88244883924E+03  0.00000000000E+00 0.  1.
          2   -1    0    0  501    0  0.00000000000E+00 -0.00000000000E+00 -0.17744153215E+04  0.17744153215E+04  0.00000000000E+00 0. -1.
         24    2    1    2    0    0  0.99948259474E+03  0.13014225039E+03  0.29718972986E+02  0.10116454500E+04  0.81491328245E+02 0.  0.
        254    2    1    2    0    0 -0.99948259474E+03 -0.13014225039E+03 -0.92168545527E+03  0.16452187108E+04  0.91724482303E+03 0.  0.
         23    2    4    4    0    0 -0.10427118346E+04 -0.32100140224E+03 -0.92352427787E+03  0.14323491880E+04  0.91854418721E+02 0.  0.
         23    2    4    4    0    0  0.43229239848E+02  0.19085915185E+03  0.18388225975E+01  0.21286952283E+03  0.83750041537E+02 0.  0.
          2    1    3    3  502    0  0.85019668234E+03  0.89110009208E+02  0.50402620373E+01  0.85486864292E+03  0.00000000000E+00 0. -1.
         -1    1    3    3    0  502  0.14928591239E+03  0.41032241180E+02  0.24678710949E+02  0.15677680705E+03  0.00000000000E+00 0.  1.
         11    1    5    5    0    0 -0.10372953283E+04 -0.31011192610E+03 -0.91455430123E+03  0.14172369508E+04  0.00000000000E+00 0.  1.
        -11    1    5    5    0    0 -0.54165062542E+01 -0.10889476138E+02 -0.89699766358E+01  0.15112237141E+02  0.00000000000E+00 0. -1.
          2    1    6    6  503    0  0.36227473099E+01 -0.75731761944E+01 -0.60843651545E+01  0.10368066120E+02  0.00000000000E+00 0. -1.
         -2    1    6    6    0  503  0.39606492538E+02  0.19843232804E+03  0.79231877520E+01  0.20250145671E+03  0.00000000000E+00 0.  1.
<mgrwt>
<rscale>  0 0.25026632E+04</rscale>
<asrwt>0</asrwt>
<pdfrwt beam="1">  1        2 0.27298697E+00 0.25026632E+04</pdfrwt>
<pdfrwt beam="2">  1       -1 0.13576136E+00 0.25026632E+04</pdfrwt>
<totfact> 0.41089374E+00</totfact>
</mgrwt>
</event>
<event>
12    6  0.1586493E-007  0.1796642E+04  0.7818608E-02  0.8708087E-01
         -1   -1    0    0    0  501 -0.00000000000E+00  0.00000000000E+00  0.15744466427E+04  0.15744466427E+04  0.00000000000E+00 0.  1.
          2   -1    0    0  501    0  0.00000000000E+00 -0.00000000000E+00 -0.51254855548E+03  0.51254855548E+03  0.00000000000E+00 0. -1.
         24    2    1    2    0    0 -0.52695905859E+03 -0.72381354985E+02 -0.75889029174E+02  0.54254179559E+03  0.75283100545E+02 0.  0.
        254    2    1    2    0    0  0.52695905859E+03  0.72381354985E+02  0.11377871164E+04  0.15444534026E+04  0.89880580806E+03 0.  0.
         23    2    4    4    0    0 -0.10203616088E+03 -0.28379228371E+03  0.32601034546E+03  0.45357227638E+03  0.92171720905E+02 0.  0.
         23    2    4    4    0    0  0.62899521947E+03  0.35617363869E+03  0.81177677096E+03  0.10908811262E+04  0.92441650257E+02 0.  0.
          4    1    3    3  502    0 -0.38030549620E+03 -0.51846833528E+02 -0.88588426254E+02  0.39391404374E+03  0.00000000000E+00 0. -1.
         -3    1    3    3    0  502 -0.14665356239E+03 -0.20534521457E+02  0.12699397080E+02  0.14862775185E+03  0.00000000000E+00 0.  1.
         11    1    5    5    0    0 -0.48677559098E+02 -0.36368351882E+02  0.81398628480E+02  0.10157705694E+03  0.00000000000E+00 0.  1.
        -11    1    5    5    0    0 -0.53358601784E+02 -0.24742393182E+03  0.24461171698E+03  0.35199521944E+03  0.00000000000E+00 0. -1.
          3    1    6    6  503    0  0.60745226302E+03  0.32813413680E+03  0.79075429606E+03  0.10497440737E+04  0.00000000000E+00 0. -1.
         -3    1    6    6    0  503  0.21542956453E+02  0.28039501890E+02  0.21022474904E+02  0.41137052520E+02  0.00000000000E+00 0.  1.
<mgrwt>
<rscale>  0 0.17966417E+04</rscale>
<asrwt>0</asrwt>
<pdfrwt beam="1">  1        2 0.78853625E-01 0.17966417E+04</pdfrwt>
<pdfrwt beam="2">  1       -1 0.24222256E+00 0.17966417E+04</pdfrwt>
<totfact> 0.50607118E+00</totfact>
</mgrwt>
</event>
<event>
12    6  0.1586493E-007  0.1387592E+04  0.7818608E-02  0.8962849E-01
         -1   -1    0    0    0  501 -0.00000000000E+00  0.00000000000E+00  0.16653465611E+03  0.16653465611E+03  0.00000000000E+00 0.  1.
          2   -1    0    0  501    0  0.00000000000E+00 -0.00000000000E+00 -0.28904072625E+04  0.28904072625E+04  0.00000000000E+00 0. -1.
         24    2    1    2    0    0 -0.47794624135E+02 -0.31864159577E+03 -0.37821613547E+03  0.50326416289E+03  0.80066096847E+02 0.  0.
        254    2    1    2    0    0  0.47794624135E+02  0.31864159577E+03 -0.23456564709E+04  0.25536777557E+04  0.95673873542E+03 0.  0.
         23    2    4    4    0    0 -0.42861227621E+03  0.16310163132E+03 -0.14568799386E+04  0.15300083234E+04  0.90087116134E+02 0.  0.
         23    2    4    4    0    0  0.47640690034E+03  0.15553996445E+03 -0.88877653230E+03  0.10236694324E+04  0.82578248870E+02 0.  0.
          2    1    3    3  502    0  0.10066865970E+02 -0.50270233030E+01 -0.48845567012E+01  0.12266688547E+02  0.00000000000E+00 0. -1.
         -1    1    3    3    0  502 -0.57861490105E+02 -0.31361457247E+03 -0.37333157877E+03  0.49099747434E+03  0.00000000000E+00 0.  1.
         11    1    5    5    0    0 -0.40939679182E+03  0.17383884279E+03 -0.14027086260E+04  0.14715356489E+04  0.00000000000E+00 0. -1.
        -11    1    5    5    0    0 -0.19215484389E+02 -0.10737211466E+02 -0.54171312654E+02  0.58472674516E+02  0.00000000000E+00 0.  1.
          2    1    6    6  503    0  0.36050071453E+03  0.79248170393E+02 -0.63996668660E+03  0.73878169823E+03  0.00000000000E+00 0. -1.
         -2    1    6    6    0  503  0.11590618582E+03  0.76291794053E+02 -0.24880984570E+03  0.28488773414E+03  0.00000000000E+00 0.  1.
<mgrwt>
<rscale>  0 0.13875921E+04</rscale>
<asrwt>0</asrwt>
<pdfrwt beam="1">  1        2 0.44467804E+00 0.13875921E+04</pdfrwt>
<pdfrwt beam="2">  1       -1 0.25620716E-01 0.13875921E+04</pdfrwt>
<totfact> 0.30583388E+01</totfact>
</mgrwt>
</event>
<event>
12    6  0.1586493E-007  0.2744604E+04  0.7818608E-02  0.8320676E-01
         -1   -1    0    0    0  501 -0.00000000000E+00  0.00000000000E+00  0.56162106405E+03  0.56162106405E+03  0.00000000000E+00 0.  1.
          2   -1    0    0  501    0  0.00000000000E+00 -0.00000000000E+00 -0.33531739732E+04  0.33531739732E+04  0.00000000000E+00 0. -1.
         24    2    1    2    0    0  0.13617875315E+03  0.50111301934E+02  0.48760652660E+03  0.51453647785E+03  0.77018613768E+02 0.  0.
        254    2    1    2    0    0 -0.13617875315E+03 -0.50111301934E+02 -0.32791594358E+04  0.34002585594E+04  0.88758992238E+03 0.  0.
         23    2    4    4    0    0  0.23870243879E+03 -0.14949526374E+03 -0.42193844756E+03  0.51544855491E+03  0.91254978301E+02 0.  0.
         23    2    4    4    0    0 -0.37488119194E+03  0.99383961810E+02 -0.28572209882E+04  0.28848100045E+04  0.89464555547E+02 0.  0.
          4    1    3    3  502    0 -0.12263237780E+01  0.24381511235E+02  0.67166052626E+02  0.71464960543E+02  0.00000000000E+00 0. -1.
         -3    1    3    3    0  502  0.13740507693E+03  0.25729790699E+02  0.42044047397E+03  0.44307151731E+03  0.00000000000E+00 0.  1.
         11    1    5    5    0    0  0.44549194483E+02 -0.46797713239E+02 -0.16631101717E+03  0.17842088198E+03  0.00000000000E+00 0. -1.
        -11    1    5    5    0    0  0.19415324431E+03 -0.10269755050E+03 -0.25562743038E+03  0.33702767293E+03  0.00000000000E+00 0.  1.
          1    1    6    6  503    0 -0.67343592037E+01  0.71934682414E+01 -0.24146082524E+03  0.24166180440E+03  0.00000000000E+00 0. -1.
         -1    1    6    6    0  503 -0.36814683273E+03  0.92190493569E+02 -0.26157601630E+04  0.26431482001E+04  0.00000000000E+00 0.  1.
<mgrwt>
<rscale>  0 0.27446043E+04</rscale>
<asrwt>0</asrwt>
<pdfrwt beam="1">  1        2 0.51587292E+00 0.27446043E+04</pdfrwt>
<pdfrwt beam="2">  1       -1 0.86403241E-01 0.27446043E+04</pdfrwt>
<totfact> 0.13464179E+00</totfact>
</mgrwt>
</event>
<event>
12    6  0.1586493E-007  0.2570324E+04  0.7818608E-02  0.8378352E-01
          2   -1    0    0  501    0  0.00000000000E+00  0.00000000000E+00  0.13008909230E+04  0.13008909230E+04  0.00000000000E+00 0. -1.
         -1   -1    0    0    0  501 -0.00000000000E+00 -0.00000000000E+00 -0.12696231272E+04  0.12696231272E+04  0.00000000000E+00 0.  1.
         24    2    1    2    0    0  0.36693855197E+03  0.58671151670E+03  0.90241563289E+03  0.11396976766E+04  0.75382457298E+02 0.  0.
        254    2    1    2    0    0 -0.36693855197E+03 -0.58671151670E+03 -0.87114783716E+03  0.14308163736E+04  0.89970141486E+03 0.  0.
         23    2    4    4    0    0  0.19509199750E+03  0.30758657626E+02 -0.43051018773E+03  0.48227928341E+03  0.90814662672E+02 0.  0.
         23    2    4    4    0    0 -0.56203054947E+03 -0.61747017432E+03 -0.44063764943E+03  0.94853709015E+03  0.91724143919E+02 0.  0.
          2    1    3    3  502    0  0.35744516567E+03  0.58077867747E+03  0.89815300715E+03  0.11277188226E+04  0.00000000000E+00 0. -1.
         -1    1    3    3    0  502  0.94933862950E+01  0.59328392296E+01  0.42626257334E+01  0.11978853986E+02  0.00000000000E+00 0.  1.
         11    1    5    5    0    0  0.12409911924E+03  0.63097764924E+02 -0.28441550064E+03  0.31666085382E+03  0.00000000000E+00 0. -1.
        -11    1    5    5    0    0  0.70992878257E+02 -0.32339107298E+02 -0.14609468709E+03  0.16561842959E+03  0.00000000000E+00 0.  1.
          3    1    6    6  503    0 -0.54647812078E+03 -0.56867126782E+03 -0.41072606036E+03  0.88922508062E+03  0.00000000000E+00 0. -1.
         -3    1    6    6    0  503 -0.15552428682E+02 -0.48798906504E+02 -0.29911589064E+02  0.59312009527E+02  0.00000000000E+00 0.  1.
<mgrwt>
<rscale>  0 0.25703239E+04</rscale>
<asrwt>0</asrwt>
<pdfrwt beam="1">  1        2 0.20013707E+00 0.25703239E+04</pdfrwt>
<pdfrwt beam="2">  1       -1 0.19532663E+00 0.25703239E+04</pdfrwt>
<totfact> 0.27053658E+00</totfact>
</mgrwt>
</event>
<event>
12    6  0.1586493E-007  0.1844531E+04  0.7818608E-02  0.8682971E-01
          2   -1    0    0  501    0  0.00000000000E+00  0.00000000000E+00  0.60776953401E+03  0.60776953401E+03  0.00000000000E+00 0. -1.
         -1   -1    0    0    0  501 -0.00000000000E+00 -0.00000000000E+00 -0.13994996334E+04  0.13994996334E+04  0.00000000000E+00 0.  1.
         24    2    1    2    0    0 -0.51034163163E+03  0.17828897682E+03  0.19016189403E+03  0.57896643906E+03  0.82492735373E+02 0.  0.
        254    2    1    2    0    0  0.51034163163E+03 -0.17828897682E+03 -0.98189199346E+03  0.14283027284E+04  0.88526903077E+03 0.  0.
         23    2    4    4    0    0 -0.10752379151E+03 -0.26780170236E+03 -0.56558731177E+02  0.30730686591E+03  0.89216042471E+02 0.  0.
         23    2    4    4    0    0  0.61786542314E+03  0.89512725543E+02 -0.92533326228E+03  0.11209958625E+04  0.10305274502E+03 0.  0.
          4    1    3    3  502    0 -0.34828497029E+03  0.14755699454E+03  0.16265887583E+03  0.41174433457E+03  0.00000000000E+00 0. -1.
         -3    1    3    3    0  502 -0.16205666134E+03  0.30731982279E+02  0.27503018202E+02  0.16722210449E+03  0.00000000000E+00 0.  1.
         11    1    5    5    0    0 -0.56939065850E+02 -0.17572126763E+03 -0.77266897040E+02  0.20022535927E+03  0.00000000000E+00 0.  1.
        -11    1    5    5    0    0 -0.50584725656E+02 -0.92080434730E+02  0.20708165863E+02  0.10708150663E+03  0.00000000000E+00 0. -1.
          1    1    6    6  503    0  0.53616915100E+02  0.20460097598E+02 -0.14179972829E+03  0.15297239006E+03  0.00000000000E+00 0. -1.
         -1    1    6    6    0  503  0.56424850804E+03  0.69052627945E+02 -0.78353353399E+03  0.96802347241E+03  0.00000000000E+00 0.  1.
<mgrwt>
<rscale>  0 0.18445306E+04</rscale>
<asrwt>0</asrwt>
<pdfrwt beam="1">  1        2 0.93503006E-01 0.18445306E+04</pdfrwt>
<pdfrwt beam="2">  1       -1 0.21530763E+00 0.18445306E+04</pdfrwt>
<totfact> 0.62077070E+00</totfact>
</mgrwt>
</event>
<event>
12    6  0.1586493E-007  0.1688696E+04  0.7818608E-02  0.8767838E-01
         -1   -1    0    0    0  501 -0.00000000000E+00  0.00000000000E+00  0.29159508560E+03  0.29159508560E+03  0.00000000000E+00 0.  1.
          2   -1    0    0  501    0  0.00000000000E+00 -0.00000000000E+00 -0.24449085554E+04  0.24449085554E+04  0.00000000000E+00 0. -1.
         24    2    1    2    0    0  0.96601361647E+02 -0.29000428888E+03 -0.16853143009E+04  0.17147297094E+04  0.81113334030E+02 0.  0.
        254    2    1    2    0    0 -0.96601361647E+02  0.29000428888E+03 -0.46799916893E+03  0.10217739316E+04  0.85531540062E+03 0.  0.
         23    2    4    4    0    0 -0.14158654537E+03  0.57682873108E+03 -0.27947796730E+03  0.66405444454E+03  0.10041033955E+03 0.  0.
         23    2    4    4    0    0  0.44985183725E+02 -0.28682444220E+03 -0.18852120163E+03  0.35771948705E+03  0.90172393546E+02 0.  0.
          4    1    3    3  502    0  0.10256413438E+03 -0.26107856061E+03 -0.16011344839E+04  0.16255193176E+04  0.00000000000E+00 0. -1.
         -3    1    3    3    0  502 -0.59627727292E+01 -0.28925728271E+02 -0.84179816965E+02  0.89210391765E+02  0.00000000000E+00 0.  1.
         11    1    5    5    0    0 -0.13027821332E+02  0.19710861962E+03 -0.57151501297E+02  0.20564004026E+03  0.00000000000E+00 0.  1.
        -11    1    5    5    0    0 -0.12855872404E+03  0.37972011145E+03 -0.22232646600E+03  0.45841440428E+03  0.00000000000E+00 0. -1.
          3    1    6    6  503    0  0.71166282753E+02 -0.17666700227E+03 -0.12615877166E+03  0.22845547741E+03  0.00000000000E+00 0. -1.
         -3    1    6    6    0  503 -0.26181099028E+02 -0.11015743992E+03 -0.62362429976E+02  0.12926400964E+03  0.00000000000E+00 0.  1.
<mgrwt>
<rscale>  0 0.16886957E+04</rscale>
<asrwt>0</asrwt>
<pdfrwt beam="1">  1        2 0.37613978E+00 0.16886957E+04</pdfrwt>
<pdfrwt beam="2">  1       -1 0.44860783E-01 0.16886957E+04</pdfrwt>
<totfact> 0.20040963E+01</totfact>
</mgrwt>
</event>
<event>
12    6  0.1586493E-007  0.1610013E+04  0.7818608E-02  0.8814420E-01
         -1   -1    0    0    0  501 -0.00000000000E+00  0.00000000000E+00  0.40217307379E+03  0.40217307379E+03  0.00000000000E+00 0.  1.
          2   -1    0    0  501    0  0.00000000000E+00 -0.00000000000E+00 -0.16113344929E+04  0.16113344929E+04  0.00000000000E+00 0. -1.
         24    2    1    2    0    0 -0.92043742365E+02  0.10801555303E+03 -0.91939945513E+03  0.93354477026E+03  0.77917069836E+02 0.  0.
        254    2    1    2    0    0  0.92043742365E+02 -0.10801555303E+03 -0.28976196395E+03  0.10799627964E+04  0.10306397216E+04 0.  0.
         23    2    4    4    0    0 -0.14937817471E+03  0.41434100269E+03 -0.19315579337E+03  0.48971812982E+03  0.92316740477E+02 0.  0.
         23    2    4    4    0    0  0.24142191708E+03 -0.52235655572E+03 -0.96606170584E+02  0.59024466659E+03  0.88966852749E+02 0.  0.
          4    1    3    3  502    0 -0.40994128348E+02  0.89661655246E+02 -0.72662052978E+03  0.73327834093E+03  0.00000000000E+00 0. -1.
         -3    1    3    3    0  502 -0.51049614017E+02  0.18353897785E+02 -0.19277892535E+03  0.20026642933E+03  0.00000000000E+00 0.  1.
         11    1    5    5    0    0 -0.85395633099E+02  0.34600337002E+03 -0.15131979693E+03  0.38718009654E+03  0.00000000000E+00 0. -1.
        -11    1    5    5    0    0 -0.63982541615E+02  0.68337632678E+02 -0.41835996433E+02  0.10253803328E+03  0.00000000000E+00 0.  1.
          1    1    6    6  503    0  0.17829335045E+03 -0.41070997759E+03 -0.11067834515E+03  0.46121676097E+03  0.00000000000E+00 0. -1.
         -1    1    6    6    0  503  0.63128566624E+02 -0.11164657813E+03  0.14072174567E+02  0.12902790562E+03  0.00000000000E+00 0.  1.
<mgrwt>
<rscale>  0 0.16100129E+04</rscale>
<asrwt>0</asrwt>
<pdfrwt beam="1">  1        2 0.24789761E+00 0.16100129E+04</pdfrwt>
<pdfrwt beam="2">  1       -1 0.61872781E-01 0.16100129E+04</pdfrwt>
<totfact> 0.31786657E+01</totfact>
</mgrwt>
</event>
<event>
12    6  0.1586493E-007  0.1672535E+04  0.7818608E-02  0.8777186E-01
         -1   -1    0    0    0  501 -0.00000000000E+00  0.00000000000E+00  0.79535071964E+03  0.79535071964E+03  0.00000000000E+00 0.  1.
          2   -1    0    0  501    0  0.00000000000E+00 -0.00000000000E+00 -0.87928879378E+03  0.87928879378E+03  0.00000000000E+00 0. -1.
         24    2    1    2    0    0  0.87280092682E+01  0.49768938758E+03  0.28951992010E+03  0.58199030380E+03  0.84380240127E+02 0.  0.
        254    2    1    2    0    0 -0.87280092682E+01 -0.49768938758E+03 -0.37345799424E+03  0.10926492096E+04  0.89813168142E+03 0.  0.
         23    2    4    4    0    0  0.12598016097E+03 -0.48340882513E+03  0.16202841240E+03  0.53278099493E+03  0.89706682939E+02 0.  0.
         23    2    4    4    0    0 -0.13470817024E+03 -0.14280562449E+02 -0.53548640664E+03  0.55986821469E+03  0.91413896807E+02 0.  0.
          4    1    3    3  502    0  0.16252461073E+02  0.20739447382E+03  0.75720206647E+02  0.22138238403E+03  0.00000000000E+00 0. -1.
         -3    1    3    3    0  502 -0.75244518043E+01  0.29029491376E+03  0.21379971345E+03  0.36060791977E+03  0.00000000000E+00 0.  1.
         11    1    5    5    0    0  0.13413601289E+03 -0.36720556140E+03  0.11996971750E+03  0.40893169038E+03  0.00000000000E+00 0.  1.
        -11    1    5    5    0    0 -0.81558519204E+01 -0.11620326373E+03  0.42058694896E+02  0.12384930456E+03  0.00000000000E+00 0. -1.
          4    1    6    6  503    0 -0.18500802163E+02  0.11563290215E+02 -0.24450386250E+03  0.24547531065E+03  0.00000000000E+00 0. -1.
         -4    1    6    6    0  503 -0.11620736808E+03 -0.25843852664E+02 -0.29098254414E+03  0.31439290404E+03  0.00000000000E+00 0.  1.
<mgrwt>
<rscale>  0 0.16725346E+04</rscale>
<asrwt>0</asrwt>
<pdfrwt beam="1">  1        2 0.13527520E+00 0.16725346E+04</pdfrwt>
<pdfrwt beam="2">  1       -1 0.12236165E+00 0.16725346E+04</pdfrwt>
<totfact> 0.19456550E+01</totfact>
</mgrwt>
</event>
<event>
12    6  0.1586493E-007  0.1843787E+04  0.7818608E-02  0.8683354E-01
          2   -1    0    0  501    0  0.00000000000E+00  0.00000000000E+00  0.18114514488E+04  0.18114514488E+04  0.00000000000E+00 0. -1.
         -1   -1    0    0    0  501 -0.00000000000E+00 -0.00000000000E+00 -0.46917497369E+03  0.46917497369E+03  0.00000000000E+00 0.  1.
         24    2    1    2    0    0 -0.32173504623E+03 -0.62755584075E+02 -0.25167500893E+03  0.42152929537E+03  0.83035735859E+02 0.  0.
        254    2    1    2    0    0  0.32173504623E+03  0.62755584075E+02  0.15939514840E+04  0.18590971271E+04  0.89894888135E+03 0.  0.
         23    2    4    4    0    0 -0.23177633571E+03  0.20390599101E+03  0.29575046318E+03  0.43787722281E+03  0.94711154683E+02 0.  0.
         23    2    4    4    0    0  0.55351138194E+03 -0.14115040693E+03  0.12982010208E+04  0.14212199043E+04  0.90784572109E+02 0.  0.
          4    1    3    3  502    0 -0.15036362720E+03 -0.44722824106E+02 -0.72095025799E+02  0.17264716658E+03  0.00000000000E+00 0. -1.
         -3    1    3    3    0  502 -0.17137141902E+03 -0.18032759969E+02 -0.17957998313E+03  0.24888212879E+03  0.00000000000E+00 0.  1.
         11    1    5    5    0    0 -0.15703188850E+03  0.75938736298E+02  0.16894891517E+03  0.24283624444E+03  0.00000000000E+00 0. -1.
        -11    1    5    5    0    0 -0.74744447216E+02  0.12796725471E+03  0.12680154801E+03  0.19504097838E+03  0.00000000000E+00 0.  1.
          2    1    6    6  503    0  0.44317722115E+03 -0.94486168359E+02  0.10992682530E+04  0.11890014203E+04  0.00000000000E+00 0. -1.
         -2    1    6    6    0  503  0.11033416079E+03 -0.46664238575E+02  0.19893276780E+03  0.23221848398E+03  0.00000000000E+00 0.  1.
<mgrwt>
<rscale>  0 0.18437871E+04</rscale>
<asrwt>0</asrwt>
<pdfrwt beam="1">  1        2 0.27868483E+00 0.18437871E+04</pdfrwt>
<pdfrwt beam="2">  1       -1 0.72180766E-01 0.18437871E+04</pdfrwt>
<totfact> 0.17642996E+01</totfact>
</mgrwt>
</event>
<event>
12    6  0.1586493E-007  0.1421774E+04  0.7818608E-02  0.8938207E-01
         -1   -1    0    0    0  501 -0.00000000000E+00  0.00000000000E+00  0.45465057545E+03  0.45465057545E+03  0.00000000000E+00 0.  1.
          2   -1    0    0  501    0  0.00000000000E+00 -0.00000000000E+00 -0.11115353245E+04  0.11115353245E+04  0.00000000000E+00 0. -1.
         24    2    1    2    0    0  0.16914508071E+03 -0.12746921987E+03 -0.58931001457E+03  0.63130386743E+03  0.79998871403E+02 0.  0.
        254    2    1    2    0    0 -0.16914508071E+03  0.12746921987E+03 -0.67574734521E+02  0.93488203255E+03  0.90806365949E+03 0.  0.
         23    2    4    4    0    0 -0.20052658026E+03  0.37263707542E+03 -0.34357935280E+03  0.55277506553E+03  0.91892339343E+02 0.  0.
         23    2    4    4    0    0  0.31381499553E+02 -0.24516785555E+03  0.27600461828E+03  0.38210696702E+03  0.93461805175E+02 0.  0.
          4    1    3    3  502    0  0.72375827776E+02 -0.85575462819E+01 -0.17731222502E+03  0.19170580895E+03  0.00000000000E+00 0. -1.
         -1    1    3    3    0  502  0.96769252933E+02 -0.11891167359E+03 -0.41199778954E+03  0.43959805848E+03  0.00000000000E+00 0.  1.
         11    1    5    5    0    0 -0.12093853821E+03  0.28595632978E+03 -0.21039523309E+03  0.37505107209E+03  0.00000000000E+00 0.  1.
        -11    1    5    5    0    0 -0.79588042053E+02  0.86680745641E+02 -0.13318411971E+03  0.17772399344E+03  0.00000000000E+00 0. -1.
          1    1    6    6  503    0  0.42532461255E+02 -0.10922952300E+03  0.74875278641E+02  0.13909135957E+03  0.00000000000E+00 0. -1.
         -1    1    6    6    0  503 -0.11150961702E+02 -0.13593833255E+03  0.20112933963E+03  0.24301560745E+03  0.00000000000E+00 0.  1.
<mgrwt>
<rscale>  0 0.14217738E+04</rscale>
<asrwt>0</asrwt>
<pdfrwt beam="1">  1        2 0.17100544E+00 0.14217738E+04</pdfrwt>
<pdfrwt beam="2">  1       -1 0.69946242E-01 0.14217738E+04</pdfrwt>
<totfact> 0.49092334E+01</totfact>
</mgrwt>
</event>
<event>
12    6  0.1586493E-007  0.1474008E+04  0.7818608E-02  0.8901924E-01
          2   -1    0    0  501    0  0.00000000000E+00  0.00000000000E+00  0.62152949182E+03  0.62152949182E+03  0.00000000000E+00 0. -1.
         -1   -1    0    0    0  501 -0.00000000000E+00 -0.00000000000E+00 -0.87393242692E+03  0.87393242692E+03  0.00000000000E+00 0.  1.
         24    2    1    2    0    0 -0.17664007664E+03 -0.19172906094E+03 -0.44017393024E+03  0.51784385604E+03  0.80295833553E+02 0.  0.
        254    2    1    2    0    0  0.17664007664E+03  0.19172906094E+03  0.18777099515E+03  0.97761806270E+03  0.92331867761E+03 0.  0.
         23    2    4    4    0    0  0.35492664352E+03 -0.39088938115E+02 -0.24801132312E+03  0.44470041643E+03  0.93530618621E+02 0.  0.
         23    2    4    4    0    0 -0.17828656688E+03  0.23081799906E+03  0.43578231826E+03  0.53291764627E+03  0.95036520215E+02 0.  0.
          2    1    3    3  502    0 -0.14281500797E+02  0.15707303316E+01 -0.59033165154E+01  0.15533113167E+02  0.00000000000E+00 0. -1.
         -1    1    3    3    0  502 -0.16235857584E+03 -0.19329979127E+03 -0.43427061373E+03  0.50231074287E+03  0.00000000000E+00 0.  1.
         11    1    5    5    0    0  0.12267929612E+03 -0.53777494122E+02 -0.66358697585E+02  0.14948479962E+03  0.00000000000E+00 0. -1.
        -11    1    5    5    0    0  0.23224734740E+03  0.14688556007E+02 -0.18165262553E+03  0.29521561682E+03  0.00000000000E+00 0.  1.
          2    1    6    6  503    0 -0.12853599564E+03  0.93487836747E+02  0.25535240467E+03  0.30077620977E+03  0.00000000000E+00 0. -1.
         -2    1    6    6    0  503 -0.49750571244E+02  0.13733016231E+03  0.18042991359E+03  0.23214143650E+03  0.00000000000E+00 0.  1.
<mgrwt>
<rscale>  0 0.14740078E+04</rscale>
<asrwt>0</asrwt>
<pdfrwt beam="1">  1        2 0.95619923E-01 0.14740078E+04</pdfrwt>
<pdfrwt beam="2">  1       -1 0.13445114E+00 0.14740078E+04</pdfrwt>
<totfact> 0.24467456E+01</totfact>
</mgrwt>
</event>
<event>
12    6  0.1586493E-007  0.1236619E+04  0.7818608E-02  0.9081394E-01
          2   -1    0    0  501    0  0.00000000000E+00  0.00000000000E+00  0.10755473308E+04  0.10755473308E+04  0.00000000000E+00 0. -1.
         -3   -1    0    0    0  501 -0.00000000000E+00 -0.00000000000E+00 -0.35545335899E+03  0.35545335899E+03  0.00000000000E+00 0.  1.
         24    2    1    2    0    0  0.15384317543E+03  0.10748299758E+03  0.42664596510E+03  0.46920673613E+03  0.53924616799E+02 0.  0.
        254    2    1    2    0    0 -0.15384317543E+03 -0.10748299758E+03  0.29344800674E+03  0.96179395369E+03  0.89650184568E+03 0.  0.
         23    2    4    4    0    0 -0.35504761316E+03 -0.26570176890E+03  0.45763888375E+03  0.64387306979E+03  0.92102901568E+02 0.  0.
         23    2    4    4    0    0  0.20120443773E+03  0.15821877131E+03 -0.16419087701E+03  0.31792088390E+03  0.92728846480E+02 0.  0.
          2    1    3    3  502    0  0.12090302838E+03  0.10762900689E+03  0.36586800833E+03  0.40007617389E+03  0.00000000000E+00 0. -1.
         -1    1    3    3    0  502  0.32940147046E+02 -0.14600930753E+00  0.60777956777E+02  0.69130562243E+02  0.00000000000E+00 0.  1.
         11    1    5    5    0    0 -0.97246880670E+02 -0.47535949590E+02  0.66209281742E+02  0.12688692325E+03  0.00000000000E+00 0.  1.
        -11    1    5    5    0    0 -0.25780073249E+03 -0.21816581931E+03  0.39142960201E+03  0.51698614654E+03  0.00000000000E+00 0. -1.
          4    1    6    6  503    0  0.40129997348E+02  0.24454556238E+02  0.69443018914E+01  0.47504371764E+02  0.00000000000E+00 0. -1.
         -4    1    6    6    0  503  0.16107444038E+03  0.13376421508E+03 -0.17113517890E+03  0.27041651214E+03  0.00000000000E+00 0.  1.
<mgrwt>
<rscale>  0 0.12366194E+04</rscale>
<asrwt>0</asrwt>
<pdfrwt beam="1">  1        2 0.16546882E+00 0.12366194E+04</pdfrwt>
<pdfrwt beam="2">  1       -3 0.54685133E-01 0.12366194E+04</pdfrwt>
<totfact> 0.46691419E+01</totfact>
</mgrwt>
</event>
<event>
12    6  0.1586493E-007  0.2381463E+04  0.7818608E-02  0.8446476E-01
          2   -1    0    0  501    0  0.00000000000E+00  0.00000000000E+00  0.51703229995E+04  0.51703229995E+04  0.00000000000E+00 0. -1.
         -1   -1    0    0    0  501 -0.00000000000E+00 -0.00000000000E+00 -0.27422689245E+03  0.27422689245E+03  0.00000000000E+00 0.  1.
         24    2    1    2    0    0 -0.15371328075E+03  0.65134463932E+03  0.38357328891E+04  0.38945029528E+04  0.80180051036E+02 0.  0.
        254    2    1    2    0    0  0.15371328075E+03 -0.65134463932E+03  0.10603632179E+04  0.15500469392E+04  0.91126162429E+03 0.  0.
         23    2    4    4    0    0  0.33782914482E+03 -0.32356640484E+03  0.63484805662E+02  0.48074164332E+03  0.90876056482E+02 0.  0.
         23    2    4    4    0    0 -0.18411586408E+03 -0.32777823447E+03  0.99687841229E+03  0.10693052959E+04  0.91159335852E+02 0.  0.
          2    1    3    3  502    0 -0.11124464728E+03  0.41292822469E+03  0.26510737657E+04  0.26853448943E+04  0.00000000000E+00 0. -1.
         -1    1    3    3    0  502 -0.42468633468E+02  0.23841641462E+03  0.11846591234E+04  0.12091580584E+04  0.00000000000E+00 0.  1.
         11    1    5    5    0    0  0.17363757691E+02 -0.44185745577E-01  0.14722450381E+02  0.22765161514E+02  0.00000000000E+00 0.  1.
        -11    1    5    5    0    0  0.32046538713E+03 -0.32352221910E+03  0.48762355281E+02  0.45797648181E+03  0.00000000000E+00 0. -1.
          1    1    6    6  503    0 -0.13566841529E+03 -0.30057347074E+03  0.88362744874E+03  0.94315841638E+03  0.00000000000E+00 0. -1.
         -1    1    6    6    0  503 -0.48447448781E+02 -0.27204763736E+02  0.11325096354E+03  0.12614687949E+03  0.00000000000E+00 0.  1.
<mgrwt>
<rscale>  0 0.23814631E+04</rscale>
<asrwt>0</asrwt>
<pdfrwt beam="1">  1        2 0.79543423E+00 0.23814631E+04</pdfrwt>
<pdfrwt beam="2">  1       -1 0.42188757E-01 0.23814631E+04</pdfrwt>
<totfact> 0.11675946E-01</totfact>
</mgrwt>
</event>
<event>
12    6  0.1586493E-007  0.1376278E+04  0.7818608E-02  0.8971171E-01
         -1   -1    0    0    0  501 -0.00000000000E+00  0.00000000000E+00  0.13351451075E+04  0.13351451075E+04  0.00000000000E+00 0.  1.
          2   -1    0    0  501    0  0.00000000000E+00 -0.00000000000E+00 -0.35466943247E+03  0.35466943247E+03  0.00000000000E+00 0. -1.
         24    2    1    2    0    0 -0.50645824046E+02 -0.25713377819E+02 -0.18728203481E+03  0.21269515133E+03  0.83297596278E+02 0.  0.
        254    2    1    2    0    0  0.50645824046E+02  0.25713377819E+02  0.11677577099E+04  0.14771193887E+04  0.90277208760E+03 0.  0.
         23    2    4    4    0    0 -0.31049573775E+03 -0.17272157138E+03  0.91276654649E+03  0.98388914470E+03  0.93030835119E+02 0.  0.
         23    2    4    4    0    0  0.36114156179E+03  0.19843494919E+03  0.25499116339E+03  0.49323024399E+03  0.91956095286E+02 0.  0.
          4    1    3    3  502    0 -0.38539800291E+02 -0.15176753092E+02 -0.19163973561E+03  0.19606488290E+03  0.00000000000E+00 0. -1.
         -3    1    3    3    0  502 -0.12106023755E+02 -0.10536624727E+02  0.43577008046E+01  0.16630268431E+02  0.00000000000E+00 0.  1.
         11    1    5    5    0    0  0.21122907509E+01 -0.60081410958E+00 -0.13547194427E+01  0.25803128839E+01  0.00000000000E+00 0.  1.
        -11    1    5    5    0    0 -0.31260802850E+03 -0.17212075727E+03  0.91412126594E+03  0.98130883182E+03  0.00000000000E+00 0. -1.
          1    1    6    6  503    0  0.11565498124E+03  0.55425805959E+02  0.13074518130E+03  0.18314583556E+03  0.00000000000E+00 0.  1.
         -1    1    6    6    0  503  0.24548658056E+03  0.14300914324E+03  0.12424598209E+03  0.31008440842E+03  0.00000000000E+00 0. -1.
<mgrwt>
<rscale>  0 0.13762778E+04</rscale>
<asrwt>0</asrwt>
<pdfrwt beam="1">  1        2 0.54564529E-01 0.13762778E+04</pdfrwt>
<pdfrwt beam="2">  1       -1 0.20540694E+00 0.13762778E+04</pdfrwt>
<totfact> 0.14039785E+01</totfact>
</mgrwt>
</event>
<event>
12    6  0.1586493E-007  0.1631906E+04  0.7818608E-02  0.8801183E-01
          2   -1    0    0  501    0  0.00000000000E+00  0.00000000000E+00  0.24803443772E+04  0.24803443772E+04  0.00000000000E+00 0. -1.
         -1   -1    0    0    0  501 -0.00000000000E+00 -0.00000000000E+00 -0.26842228074E+03  0.26842228074E+03  0.00000000000E+00 0.  1.
         24    2    1    2    0    0 -0.32644381787E+03 -0.14279232179E+03  0.38438616000E+02  0.36729382842E+03  0.80448839712E+02 0.  0.
        254    2    1    2    0    0  0.32644381787E+03  0.14279232179E+03  0.21734834805E+04  0.23814728295E+04  0.90577435631E+03 0.  0.
         23    2    4    4    0    0  0.61435048205E+02  0.47658598642E+03  0.15121459492E+04  0.15892930108E+04  0.91424476118E+02 0.  0.
         23    2    4    4    0    0  0.26500876967E+03 -0.33379366463E+03  0.66133753126E+03  0.79217981875E+03  0.92377900106E+02 0.  0.
          2    1    3    3  502    0 -0.80980168400E+02 -0.17654409041E+02  0.39401158612E+02  0.91771003768E+02  0.00000000000E+00 0. -1.
         -1    1    3    3    0  502 -0.24546364947E+03 -0.12513791275E+03 -0.96254261223E+00  0.27552282466E+03  0.00000000000E+00 0.  1.
         11    1    5    5    0    0 -0.12923226799E+02  0.25242562630E+03  0.80558577479E+03  0.84430690341E+03  0.00000000000E+00 0. -1.
        -11    1    5    5    0    0  0.74358275004E+02  0.22416036012E+03  0.70656017441E+03  0.74498610737E+03  0.00000000000E+00 0.  1.
          4    1    6    6  503    0  0.26941383666E+03 -0.31273155813E+03  0.61021966720E+03  0.73671764271E+03  0.00000000000E+00 0. -1.
         -4    1    6    6    0  503 -0.44050669899E+01 -0.21062106500E+02  0.51117864055E+02  0.55462176039E+02  0.00000000000E+00 0.  1.
<mgrwt>
<rscale>  0 0.16319065E+04</rscale>
<asrwt>0</asrwt>
<pdfrwt beam="1">  1        2 0.38159143E+00 0.16319065E+04</pdfrwt>
<pdfrwt beam="2">  1       -1 0.41295737E-01 0.16319065E+04</pdfrwt>
<totfact> 0.22403569E+01</totfact>
</mgrwt>
</event>
<event>
12    6  0.1586493E-007  0.1878866E+04  0.7818608E-02  0.8665448E-01
          2   -1    0    0  501    0  0.00000000000E+00  0.00000000000E+00  0.12797973937E+04  0.12797973937E+04  0.00000000000E+00 0. -1.
         -1   -1    0    0    0  501 -0.00000000000E+00 -0.00000000000E+00 -0.68958918568E+03  0.68958918568E+03  0.00000000000E+00 0.  1.
         24    2    1    2    0    0 -0.59616150558E+03  0.10449617685E+03 -0.18113631586E+03  0.63691036751E+03  0.80724591037E+02 0.  0.
        254    2    1    2    0    0  0.59616150558E+03 -0.10449617685E+03  0.77134452391E+03  0.13324762119E+04  0.90232615446E+03 0.  0.
         23    2    4    4    0    0 -0.22234621653E+03  0.56843063395E+02  0.16315086323E+03  0.29602144927E+03  0.91331924289E+02 0.  0.
         23    2    4    4    0    0  0.81850772212E+03 -0.16133924025E+03  0.60819366068E+03  0.10364547626E+04  0.91398602217E+02 0.  0.
          4    1    3    3  502    0 -0.13224673457E+03 -0.10093609797E+02 -0.34141992177E+02  0.13695530436E+03  0.00000000000E+00 0. -1.
         -3    1    3    3    0  502 -0.46391477102E+03  0.11458978665E+03 -0.14699432368E+03  0.49995506315E+03  0.00000000000E+00 0.  1.
         11    1    5    5    0    0 -0.50546767760E+02 -0.76992981163E+01  0.79053767626E+02  0.94147507128E+02  0.00000000000E+00 0.  1.
        -11    1    5    5    0    0 -0.17179944877E+03  0.64542361511E+02  0.84097095600E+02  0.20187394214E+03  0.00000000000E+00 0. -1.
          3    1    6    6  503    0  0.41433227441E+03 -0.96086892191E+02  0.36348980343E+03  0.55948973330E+03  0.00000000000E+00 0. -1.
         -3    1    6    6    0  503  0.40417544771E+03 -0.65252348057E+02  0.24470385725E+03  0.47696502934E+03  0.00000000000E+00 0.  1.
<mgrwt>
<rscale>  0 0.18788661E+04</rscale>
<asrwt>0</asrwt>
<pdfrwt beam="1">  1        2 0.19689191E+00 0.18788661E+04</pdfrwt>
<pdfrwt beam="2">  1       -1 0.10609064E+00 0.18788661E+04</pdfrwt>
<totfact> 0.15099740E+01</totfact>
</mgrwt>
</event>
<event>
12    6  0.1586493E-007  0.2249812E+04  0.7818608E-02  0.8497977E-01
          2   -1    0    0  501    0  0.00000000000E+00  0.00000000000E+00  0.16912109759E+04  0.16912109759E+04  0.00000000000E+00 0. -1.
         -1   -1    0    0    0  501 -0.00000000000E+00 -0.00000000000E+00 -0.74822942436E+03  0.74822942436E+03  0.00000000000E+00 0.  1.
         24    2    1    2    0    0 -0.63393602375E+03 -0.69670363504E+03  0.47211632519E+03  0.10569502135E+04  0.83540960443E+02 0.  0.
        254    2    1    2    0    0  0.63393602375E+03  0.69670363504E+03  0.47086522630E+03  0.13824901867E+04  0.89570877950E+03 0.  0.
         23    2    4    4    0    0  0.50777347120E+03  0.84980937747E+03  0.56659454137E+03  0.11442169316E+04  0.90515944266E+02 0.  0.
         23    2    4    4    0    0  0.12616255256E+03 -0.15310574244E+03 -0.95729315068E+02  0.23827325509E+03  0.90838781863E+02 0.  0.
          2    1    3    3  502    0 -0.49810455672E+03 -0.55660305936E+03  0.33600347598E+03  0.81903202073E+03  0.00000000000E+00 0. -1.
         -1    1    3    3    0  502 -0.13583146704E+03 -0.14010057568E+03  0.13611284921E+03  0.23791819280E+03  0.00000000000E+00 0.  1.
         11    1    5    5    0    0  0.24500473499E+03  0.32531830718E+03  0.24326762093E+03  0.47438218405E+03  0.00000000000E+00 0.  1.
        -11    1    5    5    0    0  0.26276873621E+03  0.52449107030E+03  0.32332692044E+03  0.66983474755E+03  0.00000000000E+00 0. -1.
          1    1    6    6  503    0  0.86454541892E+02 -0.41620413325E+02 -0.20733263543E+02  0.98165751850E+02  0.00000000000E+00 0. -1.
         -1    1    6    6    0  503  0.39708010664E+02 -0.11148532911E+03 -0.74996051525E+02  0.14010750324E+03  0.00000000000E+00 0.  1.
<mgrwt>
<rscale>  0 0.22498123E+04</rscale>
<asrwt>0</asrwt>
<pdfrwt beam="1">  1        2 0.26018630E+00 0.22498123E+04</pdfrwt>
<pdfrwt beam="2">  1       -1 0.11511222E+00 0.22498123E+04</pdfrwt>
<totfact> 0.70405144E+00</totfact>
</mgrwt>
</event>
<event>
12    6  0.1586493E-007  0.1585066E+04  0.7818608E-02  0.8829775E-01
         -1   -1    0    0    0  501 -0.00000000000E+00  0.00000000000E+00  0.84517259308E+03  0.84517259308E+03  0.00000000000E+00 0.  1.
          2   -1    0    0  501    0  0.00000000000E+00 -0.00000000000E+00 -0.74317194644E+03  0.74317194644E+03  0.00000000000E+00 0. -1.
         24    2    1    2    0    0 -0.47016367474E+03 -0.16472056413E+02  0.27507919389E+03  0.55077944546E+03  0.79776092561E+02 0.  0.
        254    2    1    2    0    0  0.47016367474E+03  0.16472056413E+02 -0.17307854725E+03  0.10375650941E+04  0.90843818239E+03 0.  0.
         23    2    4    4    0    0  0.65368587808E+03 -0.16887864428E+03 -0.28605668474E+03  0.73880116734E+03  0.90407490221E+02 0.  0.
         23    2    4    4    0    0 -0.18352220334E+03  0.18535070069E+03  0.11297813749E+03  0.29876392673E+03  0.91981210025E+02 0.  0.
          4    1    3    3  502    0 -0.42326813147E+03 -0.26018251608E+02  0.21974198071E+03  0.47761846553E+03  0.00000000000E+00 0. -1.
         -3    1    3    3    0  502 -0.46895543273E+02  0.95461951952E+01  0.55337213179E+02  0.73160979928E+02  0.00000000000E+00 0.  1.
         11    1    5    5    0    0  0.16189259275E+03 -0.13259687840E+02 -0.39971008570E+02  0.16728034085E+03  0.00000000000E+00 0.  1.
        -11    1    5    5    0    0  0.49179328533E+03 -0.15561895644E+03 -0.24608567617E+03  0.57152082649E+03  0.00000000000E+00 0. -1.
          2    1    6    6  503    0 -0.21911632073E+01  0.48595699166E+02  0.28899312704E+02  0.56581918034E+02  0.00000000000E+00 0. -1.
         -2    1    6    6    0  503 -0.18133104013E+03  0.13675500153E+03  0.84078824783E+02  0.24218200869E+03  0.00000000000E+00 0.  1.
<mgrwt>
<rscale>  0 0.15850660E+04</rscale>
<asrwt>0</asrwt>
<pdfrwt beam="1">  1        2 0.11433414E+00 0.15850660E+04</pdfrwt>
<pdfrwt beam="2">  1       -1 0.13002655E+00 0.15850660E+04</pdfrwt>
<totfact> 0.21090967E+01</totfact>
</mgrwt>
</event>
<event>
12    6  0.1586493E-007  0.1486385E+04  0.7818608E-02  0.8893558E-01
         -1   -1    0    0    0  501 -0.00000000000E+00  0.00000000000E+00  0.97686482400E+03  0.97686482400E+03  0.00000000000E+00 0.  1.
          2   -1    0    0  501    0  0.00000000000E+00 -0.00000000000E+00 -0.56541592617E+03  0.56541592617E+03  0.00000000000E+00 0. -1.
         24    2    1    2    0    0  0.16411924369E+03  0.24434799583E+03 -0.24217859357E+03  0.39000928463E+03  0.82557263172E+02 0.  0.
        254    2    1    2    0    0 -0.16411924369E+03 -0.24434799583E+03  0.65362749140E+03  0.11522714655E+04  0.90214165383E+03 0.  0.
         23    2    4    4    0    0 -0.33895132016E+03 -0.48098715453E+03  0.58763581586E+03  0.83660323846E+03  0.91391937596E+02 0.  0.
         23    2    4    4    0    0  0.17483207648E+03  0.23663915870E+03  0.65991675540E+02  0.31566822709E+03  0.93419387468E+02 0.  0.
          2    1    3    3  502    0  0.14300549896E+03  0.14899475083E+03 -0.14581082235E+03  0.25280586311E+03  0.00000000000E+00 0. -1.
         -1    1    3    3    0  502  0.21113744728E+02  0.95353244993E+02 -0.96367771225E+02  0.13720342152E+03  0.00000000000E+00 0.  1.
         11    1    5    5    0    0 -0.11722862189E+03 -0.16305858306E+03  0.14184431649E+03  0.24586675542E+03  0.00000000000E+00 0.  1.
        -11    1    5    5    0    0 -0.22172269828E+03 -0.31792857147E+03  0.44579149937E+03  0.59073648304E+03  0.00000000000E+00 0. -1.
          3    1    6    6  503    0 -0.49227098119E+01  0.19573948700E+02 -0.11693053615E+02  0.23325952123E+02  0.00000000000E+00 0. -1.
         -3    1    6    6    0  503  0.17975478629E+03  0.21706521000E+03  0.77684729154E+02  0.29234227496E+03  0.00000000000E+00 0.  1.
<mgrwt>
<rscale>  0 0.14863848E+04</rscale>
<asrwt>0</asrwt>
<pdfrwt beam="1">  1        2 0.86987066E-01 0.14863848E+04</pdfrwt>
<pdfrwt beam="2">  1       -1 0.15028690E+00 0.14863848E+04</pdfrwt>
<totfact> 0.20439605E+01</totfact>
</mgrwt>
</event>
<event>
12    6  0.1586493E-007  0.1294987E+04  0.7818608E-02  0.9033550E-01
         -1   -1    0    0    0  501 -0.00000000000E+00  0.00000000000E+00  0.28039039851E+03  0.28039039851E+03  0.00000000000E+00 0.  1.
          2   -1    0    0  501    0  0.00000000000E+00 -0.00000000000E+00 -0.14952282100E+04  0.14952282100E+04  0.00000000000E+00 0. -1.
         24    2    1    2    0    0  0.68266956621E+02 -0.30231922299E+03 -0.17863217246E+03  0.36660743763E+03  0.80213903616E+02 0.  0.
        254    2    1    2    0    0 -0.68266956621E+02  0.30231922299E+03 -0.10362056390E+04  0.14090111709E+04  0.90306869248E+03 0.  0.
         23    2    4    4    0    0  0.21111796801E+03 -0.21574583845E+03 -0.57540135523E+03  0.65625350331E+03  0.92004770394E+02 0.  0.
         23    2    4    4    0    0 -0.27938492463E+03  0.51806506144E+03 -0.46080428378E+03  0.75275766755E+03  0.88635061402E+02 0.  0.
          4    1    3    3  502    0  0.21052647571E+02 -0.96899625870E+01 -0.18833482252E+02  0.29863177970E+02  0.00000000000E+00 0. -1.
         -3    1    3    3    0  502  0.47214309050E+02 -0.29262926040E+03 -0.15979869021E+03  0.33674425966E+03  0.00000000000E+00 0.  1.
         11    1    5    5    0    0  0.15435194201E+03 -0.95431696195E+02 -0.30513797725E+03  0.35502241591E+03  0.00000000000E+00 0. -1.
        -11    1    5    5    0    0  0.56766026001E+02 -0.12031414226E+03 -0.27026337798E+03  0.30123108740E+03  0.00000000000E+00 0.  1.
          1    1    6    6  503    0 -0.24855731642E+03  0.38675328029E+03 -0.34169208044E+03  0.57281089130E+03  0.00000000000E+00 0. -1.
         -1    1    6    6    0  503 -0.30827608211E+02  0.13131178116E+03 -0.11911220334E+03  0.17994677625E+03  0.00000000000E+00 0.  1.
<mgrwt>
<rscale>  0 0.12949867E+04</rscale>
<asrwt>0</asrwt>
<pdfrwt beam="1">  1        2 0.23003511E+00 0.12949867E+04</pdfrwt>
<pdfrwt beam="2">  1       -1 0.43136984E-01 0.12949867E+04</pdfrwt>
<totfact> 0.75596630E+01</totfact>
</mgrwt>
</event>
<event>
12    6  0.1586493E-007  0.1506690E+04  0.7818608E-02  0.8880016E-01
          2   -1    0    0  501    0  0.00000000000E+00  0.00000000000E+00  0.67101335666E+03  0.67101335666E+03  0.00000000000E+00 0. -1.
         -1   -1    0    0    0  501 -0.00000000000E+00 -0.00000000000E+00 -0.84577891152E+03  0.84577891152E+03  0.00000000000E+00 0.  1.
         24    2    1    2    0    0  0.31087194315E+03  0.30879892140E+02  0.31035625862E+03  0.44738036654E+03  0.78950948838E+02 0.  0.
        254    2    1    2    0    0 -0.31087194315E+03 -0.30879892140E+02 -0.48512181348E+03  0.10694119016E+04  0.90039086439E+03 0.  0.
         23    2    4    4    0    0 -0.58269999803E+03  0.56887753916E+02 -0.49153232167E+03  0.76941708566E+03  0.87310504526E+02 0.  0.
         23    2    4    4    0    0  0.27182805489E+03 -0.87767646056E+02  0.64105081874E+01  0.29999481598E+03  0.91444758635E+02 0.  0.
          2    1    3    3  502    0  0.19286730763E+03  0.51539650055E+02  0.22174621472E+03  0.29837144237E+03  0.00000000000E+00 0. -1.
         -1    1    3    3    0  502  0.11800463552E+03 -0.20659757916E+02  0.88610043902E+02  0.14900892416E+03  0.00000000000E+00 0.  1.
         11    1    5    5    0    0 -0.16793057788E+03  0.20120761736E+02 -0.19554804203E+03  0.25854315071E+03  0.00000000000E+00 0.  1.
        -11    1    5    5    0    0 -0.41476942016E+03  0.36766992180E+02 -0.29598427964E+03  0.51087393495E+03  0.00000000000E+00 0. -1.
          2    1    6    6  503    0  0.13303485489E+03 -0.90757933208E+02  0.63480838127E+01  0.16116939295E+03  0.00000000000E+00 0.  1.
         -2    1    6    6    0  503  0.13879320000E+03  0.29902871521E+01  0.62424374701E-01  0.13882542303E+03  0.00000000000E+00 0. -1.
<mgrwt>
<rscale>  0 0.15066903E+04</rscale>
<asrwt>0</asrwt>
<pdfrwt beam="1">  1        2 0.10323282E+00 0.15066903E+04</pdfrwt>
<pdfrwt beam="2">  1       -1 0.13011983E+00 0.15066903E+04</pdfrwt>
<totfact> 0.24126187E+01</totfact>
</mgrwt>
</event>
<event>
12    6  0.1586493E-007  0.3058697E+04  0.7818608E-02  0.8227165E-01
         -1   -1    0    0    0  501 -0.00000000000E+00  0.00000000000E+00  0.14213752662E+04  0.14213752662E+04  0.00000000000E+00 0.  1.
          2   -1    0    0  501    0  0.00000000000E+00 -0.00000000000E+00 -0.16455240364E+04  0.16455240364E+04  0.00000000000E+00 0. -1.
         24    2    1    2    0    0 -0.55071517501E+02  0.13943438095E+04 -0.15894044239E+03  0.14067457210E+04  0.80274080206E+02 0.  0.
        254    2    1    2    0    0  0.55071517501E+02 -0.13943438095E+04 -0.65208327799E+02  0.16601535817E+04  0.89701184922E+03 0.  0.
         23    2    4    4    0    0 -0.35264050288E+03 -0.41773862690E+03  0.15647208532E+03  0.57562770924E+03  0.89458713890E+02 0.  0.
         23    2    4    4    0    0  0.40771202038E+03 -0.97660518264E+03 -0.22168041312E+03  0.10845258725E+04  0.84067759584E+02 0.  0.
          4    1    3    3  502    0 -0.56652913410E+02  0.10301990456E+04 -0.85730796393E+02  0.10353112554E+04  0.00000000000E+00 0. -1.
         -3    1    3    3    0  502  0.15813959093E+01  0.36414476393E+03 -0.73209645999E+02  0.37143446552E+03  0.00000000000E+00 0.  1.
         11    1    5    5    0    0 -0.26786153533E+03 -0.36849803910E+03  0.12093838289E+03  0.47134562625E+03  0.00000000000E+00 0. -1.
        -11    1    5    5    0    0 -0.84778967547E+02 -0.49240587806E+02  0.35533702430E+02  0.10428208300E+03  0.00000000000E+00 0.  1.
          2    1    6    6  503    0  0.40356390823E+03 -0.96491122746E+03 -0.22819842441E+03  0.10705101708E+04  0.00000000000E+00 0. -1.
         -2    1    6    6    0  503  0.41481121451E+01 -0.11693955181E+02  0.65180112917E+01  0.14015701671E+02  0.00000000000E+00 0.  1.
<mgrwt>
<rscale>  0 0.30586972E+04</rscale>
<asrwt>0</asrwt>
<pdfrwt beam="1">  1        2 0.25315755E+00 0.30586972E+04</pdfrwt>
<pdfrwt beam="2">  1       -1 0.21867312E+00 0.30586972E+04</pdfrwt>
<totfact> 0.11456541E+00</totfact>
</mgrwt>
</event>
<event>
12    6  0.1586493E-007  0.2125300E+04  0.7818608E-02  0.8550180E-01
         -1   -1    0    0    0  501 -0.00000000000E+00  0.00000000000E+00  0.11937361918E+04  0.11937361918E+04  0.00000000000E+00 0.  1.
          2   -1    0    0  501    0  0.00000000000E+00 -0.00000000000E+00 -0.94595824459E+03  0.94595824459E+03  0.00000000000E+00 0. -1.
         24    2    1    2    0    0 -0.17312224853E+03  0.35548961446E+03  0.84562785439E+03  0.93677383089E+03  0.78195672493E+02 0.  0.
        254    2    1    2    0    0  0.17312224853E+03 -0.35548961446E+03 -0.59784990715E+03  0.12029206055E+04  0.96604828700E+03 0.  0.
         23    2    4    4    0    0  0.32233956447E+03 -0.24504263176E+03 -0.80557870051E+03  0.90615597373E+03  0.90625160981E+02 0.  0.
         23    2    4    4    0    0 -0.14921731594E+03 -0.11044698269E+03  0.20772879336E+03  0.29676463180E+03  0.10224310115E+03 0.  0.
          2    1    3    3  502    0 -0.92939151536E+02  0.19376596024E+03  0.36771805033E+03  0.42591019919E+03  0.00000000000E+00 0. -1.
         -1    1    3    3    0  502 -0.80183096990E+02  0.16172365422E+03  0.47790980406E+03  0.51086363170E+03  0.00000000000E+00 0.  1.
         11    1    5    5    0    0  0.19983782952E+03 -0.14738258103E+03 -0.39342658725E+03  0.46523248258E+03  0.00000000000E+00 0. -1.
        -11    1    5    5    0    0  0.12250173495E+03 -0.97660050736E+02 -0.41215211327E+03  0.44092349115E+03  0.00000000000E+00 0.  1.
          2    1    6    6  503    0 -0.62009111272E+02 -0.54094183159E+02  0.16520257605E+03  0.18456218915E+03  0.00000000000E+00 0. -1.
         -2    1    6    6    0  503 -0.87208204671E+02 -0.56352799533E+02  0.42526217315E+02  0.11220244265E+03  0.00000000000E+00 0.  1.
<mgrwt>
<rscale>  0 0.21252996E+04</rscale>
<asrwt>0</asrwt>
<pdfrwt beam="1">  1        2 0.14553204E+00 0.21252996E+04</pdfrwt>
<pdfrwt beam="2">  1       -1 0.18365172E+00 0.21252996E+04</pdfrwt>
<totfact> 0.56152586E+00</totfact>
</mgrwt>
</event>
<event>
12    6  0.1586493E-007  0.2048010E+04  0.7818608E-02  0.8584498E-01
         -1   -1    0    0    0  501 -0.00000000000E+00  0.00000000000E+00  0.40799364456E+03  0.40799364456E+03  0.00000000000E+00 0.  1.
          2   -1    0    0  501    0  0.00000000000E+00 -0.00000000000E+00 -0.25701047404E+04  0.25701047404E+04  0.00000000000E+00 0. -1.
         24    2    1    2    0    0  0.92952753585E+02 -0.68597545968E+03 -0.15223530679E+04  0.16743194278E+04  0.81142696967E+02 0.  0.
        254    2    1    2    0    0 -0.92952753585E+02  0.68597545968E+03 -0.63975802793E+03  0.13037789572E+04  0.90074784991E+03 0.  0.
         23    2    4    4    0    0 -0.42871024081E+03  0.65087966929E+03 -0.41385261620E+03  0.88717588159E+03  0.91489029181E+02 0.  0.
         23    2    4    4    0    0  0.33575748722E+03  0.35095790392E+02 -0.22590541173E+03  0.41660307557E+03  0.92520607405E+02 0.  0.
          2    1    3    3  502    0  0.95365775280E+02 -0.54172340720E+03 -0.11432507384E+04  0.12686926862E+04  0.00000000000E+00 0. -1.
         -1    1    3    3    0  502 -0.24130216943E+01 -0.14425205249E+03 -0.37910232951E+03  0.40562674167E+03  0.00000000000E+00 0.  1.
         11    1    5    5    0    0 -0.14060159047E+02  0.51300997965E+01 -0.18847872433E+02  0.24067577602E+02  0.00000000000E+00 0. -1.
        -11    1    5    5    0    0 -0.41465008176E+03  0.64574956950E+03 -0.39500474377E+03  0.86310830398E+03  0.00000000000E+00 0.  1.
          1    1    6    6  503    0  0.18295852654E+03  0.64916651101E+02 -0.11801670640E+03  0.22719141052E+03  0.00000000000E+00 0. -1.
         -1    1    6    6    0  503  0.15279896068E+03 -0.29820860709E+02 -0.10788870533E+03  0.18941166505E+03  0.00000000000E+00 0.  1.
<mgrwt>
<rscale>  0 0.20480102E+04</rscale>
<asrwt>0</asrwt>
<pdfrwt beam="1">  1        2 0.39540072E+00 0.20480102E+04</pdfrwt>
<pdfrwt beam="2">  1       -1 0.62768254E-01 0.20480102E+04</pdfrwt>
<totfact> 0.85977663E+00</totfact>
</mgrwt>
</event>
<event>
12    6  0.1586493E-007  0.1744732E+04  0.7818608E-02  0.8736255E-01
          2   -1    0    0  501    0  0.00000000000E+00  0.00000000000E+00  0.21465999574E+04  0.21465999574E+04  0.00000000000E+00 0. -1.
         -1   -1    0    0    0  501 -0.00000000000E+00 -0.00000000000E+00 -0.35452472758E+03  0.35452472758E+03  0.00000000000E+00 0.  1.
         24    2    1    2    0    0  0.34906889573E+03 -0.25835196877E+03 -0.78240376752E+01  0.44158802710E+03  0.79648831645E+02 0.  0.
        254    2    1    2    0    0 -0.34906889573E+03  0.25835196877E+03  0.17998992675E+04  0.20595366579E+04  0.90191964071E+03 0.  0.
         23    2    4    4    0    0  0.20127228032E+03  0.34690800755E+03  0.53886047538E+03  0.67794268087E+03  0.91542176508E+02 0.  0.
         23    2    4    4    0    0 -0.55034117605E+03 -0.88556038777E+02  0.12610387922E+04  0.13815939771E+04  0.88687654471E+02 0.  0.
          2    1    3    3  502    0  0.30234326194E+02 -0.53597812678E+02 -0.11747291806E+02  0.62648534453E+02  0.00000000000E+00 0. -1.
         -1    1    3    3    0  502  0.31883456953E+03 -0.20475415610E+03  0.39232541304E+01  0.37893949265E+03  0.00000000000E+00 0.  1.
         11    1    5    5    0    0  0.16876162924E+03  0.31006579799E+03  0.51211647064E+03  0.62200045505E+03  0.00000000000E+00 0. -1.
        -11    1    5    5    0    0  0.32510651081E+02  0.36842209562E+02  0.26744004746E+02  0.55942225814E+02  0.00000000000E+00 0.  1.
          3    1    6    6  503    0 -0.53701170323E+03 -0.88406330831E+02  0.11799267636E+04  0.12993938649E+04  0.00000000000E+00 0. -1.
         -3    1    6    6    0  503 -0.13329472821E+02 -0.14970794582E+00  0.81112028582E+02  0.82200112159E+02  0.00000000000E+00 0.  1.
<mgrwt>
<rscale>  0 0.17447324E+04</rscale>
<asrwt>0</asrwt>
<pdfrwt beam="1">  1        2 0.33024614E+00 0.17447324E+04</pdfrwt>
<pdfrwt beam="2">  1       -1 0.54542267E-01 0.17447324E+04</pdfrwt>
<totfact> 0.20295504E+01</totfact>
</mgrwt>
</event>
<event>
12    6  0.1586493E-007  0.1849243E+04  0.7818608E-02  0.8680542E-01
          2   -1    0    0  501    0  0.00000000000E+00  0.00000000000E+00  0.26144914227E+04  0.26144914227E+04  0.00000000000E+00 0. -1.
         -1   -1    0    0    0  501 -0.00000000000E+00 -0.00000000000E+00 -0.32699466082E+03  0.32699466082E+03  0.00000000000E+00 0.  1.
         24    2    1    2    0    0 -0.48422641163E+03 -0.25756321033E+03  0.17829032200E+03  0.58307632790E+03  0.85886787106E+02 0.  0.
        254    2    1    2    0    0  0.48422641163E+03  0.25756321033E+03  0.21092064398E+04  0.23584097556E+04  0.90140487261E+03 0.  0.
         23    2    4    4    0    0  0.70354589518E+03  0.34431677450E+03  0.14223258457E+04  0.16262841342E+04  0.90875771694E+02 0.  0.
         23    2    4    4    0    0 -0.21931948355E+03 -0.86753564169E+02  0.68688059411E+03  0.73212562139E+03  0.92605389583E+02 0.  0.
          2    1    3    3  502    0 -0.99012275239E+02 -0.51729581185E+02  0.74131124163E+02  0.13407014503E+03  0.00000000000E+00 0. -1.
         -1    1    3    3    0  502 -0.38521413639E+03 -0.20583362915E+03  0.10415919784E+03  0.44900618287E+03  0.00000000000E+00 0.  1.
         11    1    5    5    0    0  0.19500184171E+03  0.53552635761E+02  0.39112600075E+03  0.44031029006E+03  0.00000000000E+00 0.  1.
        -11    1    5    5    0    0  0.50854405346E+03  0.29076413874E+03  0.10311998450E+04  0.11859738441E+04  0.00000000000E+00 0. -1.
          1    1    6    6  503    0 -0.10529008685E+03 -0.87005789115E+02  0.42741167612E+03  0.44870563915E+03  0.00000000000E+00 0. -1.
         -1    1    6    6    0  503 -0.11402939670E+03  0.25222494609E+00  0.25946891799E+03  0.28341998224E+03  0.00000000000E+00 0.  1.
<mgrwt>
<rscale>  0 0.18492428E+04</rscale>
<asrwt>0</asrwt>
<pdfrwt beam="1">  1        2 0.40222944E+00 0.18492428E+04</pdfrwt>
<pdfrwt beam="2">  1       -1 0.50306873E-01 0.18492428E+04</pdfrwt>
<totfact> 0.12692536E+01</totfact>
</mgrwt>
</event>
<event>
12    6  0.1586493E-007  0.1235527E+04  0.7818608E-02  0.9082316E-01
         -1   -1    0    0    0  501 -0.00000000000E+00  0.00000000000E+00  0.46371592212E+03  0.46371592212E+03  0.00000000000E+00 0.  1.
          2   -1    0    0  501    0  0.00000000000E+00 -0.00000000000E+00 -0.82298645211E+03  0.82298645211E+03  0.00000000000E+00 0. -1.
         24    2    1    2    0    0 -0.21540593789E+03  0.10181654995E+02 -0.27869945653E+03  0.36114163171E+03  0.79034846124E+02 0.  0.
        254    2    1    2    0    0  0.21540593789E+03 -0.10181654995E+02 -0.80571073457E+02  0.92556074252E+03  0.89647510062E+03 0.  0.
         23    2    4    4    0    0  0.39923438240E+03  0.18155038977E+03  0.23282016135E+03  0.50474249910E+03  0.90615267761E+02 0.  0.
         23    2    4    4    0    0 -0.18382844450E+03 -0.19173204477E+03 -0.31339123481E+03  0.42081824342E+03  0.91213233333E+02 0.  0.
          2    1    3    3  502    0 -0.19482023505E+03 -0.71194669369E+01 -0.26970686545E+03  0.33278732557E+03  0.00000000000E+00 0. -1.
         -1    1    3    3    0  502 -0.20585702848E+02  0.17301121932E+02 -0.89925910842E+01  0.28354306133E+02  0.00000000000E+00 0.  1.
         11    1    5    5    0    0  0.15662797235E+03  0.25139303357E+02  0.94622756350E+02  0.18470996810E+03  0.00000000000E+00 0.  1.
        -11    1    5    5    0    0  0.24260641005E+03  0.15641108642E+03  0.13819740500E+03  0.32003253100E+03  0.00000000000E+00 0. -1.
          4    1    6    6  503    0 -0.11130332707E+02 -0.10389313802E+02  0.47443901966E+01  0.15947770558E+02  0.00000000000E+00 0.  1.
         -4    1    6    6    0  503 -0.17269811180E+03 -0.18134273097E+03 -0.31813562501E+03  0.40487047286E+03  0.00000000000E+00 0. -1.
<mgrwt>
<rscale>  0 0.12355273E+04</rscale>
<asrwt>0</asrwt>
<pdfrwt beam="1">  1        2 0.12661330E+00 0.12355273E+04</pdfrwt>
<pdfrwt beam="2">  1       -1 0.71340912E-01 0.12355273E+04</pdfrwt>
<totfact> 0.73963170E+01</totfact>
</mgrwt>
</event>
<event>
12    6  0.1586493E-007  0.2095929E+04  0.7818608E-02  0.8563039E-01
         -1   -1    0    0    0  501 -0.00000000000E+00  0.00000000000E+00  0.40677389400E+03  0.40677389400E+03  0.00000000000E+00 0.  1.
          2   -1    0    0  501    0  0.00000000000E+00 -0.00000000000E+00 -0.26998521663E+04  0.26998521663E+04  0.00000000000E+00 0. -1.
         24    2    1    2    0    0 -0.47174422160E+03 -0.86782320844E+02  0.10951087638E+03  0.49760198529E+03  0.74440055667E+02 0.  0.
        254    2    1    2    0    0  0.47174422160E+03  0.86782320844E+02 -0.24025891487E+04  0.26090240750E+04  0.89693825027E+03 0.  0.
         23    2    4    4    0    0 -0.94020027039E+02  0.20588335716E+03 -0.16104160019E+03  0.29233977327E+03  0.91106661697E+02 0.  0.
         23    2    4    4    0    0  0.56576424864E+03 -0.11910103632E+03 -0.22415475485E+04  0.23166843017E+04  0.90644910875E+02 0.  0.
          2    1    3    3  502    0 -0.41075190324E+02  0.93031096118E+01 -0.30130184208E+01  0.42223185439E+02  0.00000000000E+00 0. -1.
         -1    1    3    3    0  502 -0.43066903128E+03 -0.96085430455E+02  0.11252389480E+03  0.45537879985E+03  0.00000000000E+00 0.  1.
         11    1    5    5    0    0 -0.87095008001E+02  0.21205081992E+03 -0.13817135663E+03  0.26766100657E+03  0.00000000000E+00 0.  1.
        -11    1    5    5    0    0 -0.69250190381E+01 -0.61674627540E+01 -0.22870243560E+02  0.24678766703E+02  0.00000000000E+00 0. -1.
          1    1    6    6  503    0  0.52196752251E+03 -0.12299910883E+03 -0.21371719250E+04  0.22034252228E+04  0.00000000000E+00 0. -1.
         -1    1    6    6    0  503  0.43796726134E+02  0.38980725072E+01 -0.10437562350E+03  0.11325907897E+03  0.00000000000E+00 0.  1.
<mgrwt>
<rscale>  0 0.20959288E+04</rscale>
<asrwt>0</asrwt>
<pdfrwt beam="1">  1        2 0.41536186E+00 0.20959288E+04</pdfrwt>
<pdfrwt beam="2">  1       -1 0.62580600E-01 0.20959288E+04</pdfrwt>
<totfact> 0.72227037E+00</totfact>
</mgrwt>
</event>
<event>
12    6  0.1586493E-007  0.1303667E+04  0.7818608E-02  0.9026662E-01
          2   -1    0    0  501    0  0.00000000000E+00  0.00000000000E+00  0.21481535103E+04  0.21481535103E+04  0.00000000000E+00 0. -1.
         -1   -1    0    0    0  501 -0.00000000000E+00 -0.00000000000E+00 -0.19779177574E+03  0.19779177574E+03  0.00000000000E+00 0.  1.
         24    2    1    2    0    0 -0.27703767719E+03 -0.16696232892E+03  0.35125937446E+03  0.48385973605E+03  0.78171619931E+02 0.  0.
        254    2    1    2    0    0  0.27703767719E+03  0.16696232892E+03  0.15991023601E+04  0.18620855499E+04  0.89755665199E+03 0.  0.
         23    2    4    4    0    0 -0.69328523302E+02 -0.28848326648E+03  0.26751887299E+03  0.40987152888E+03  0.91647605529E+02 0.  0.
         23    2    4    4    0    0  0.34636620050E+03  0.45544559540E+03  0.13315834871E+04  0.14522140211E+04  0.91710112552E+02 0.  0.
          4    1    3    3  502    0 -0.45119121997E+02 -0.65066311107E+01  0.82684455535E+02  0.94418168830E+02  0.00000000000E+00 0. -1.
         -3    1    3    3    0  502 -0.23191855520E+03 -0.16045569781E+03  0.26857491892E+03  0.38944156722E+03  0.00000000000E+00 0.  1.
         11    1    5    5    0    0 -0.23294042401E+02 -0.18666446725E+03  0.21716079175E+03  0.28730653529E+03  0.00000000000E+00 0. -1.
        -11    1    5    5    0    0 -0.46034480901E+02 -0.10181879923E+03  0.50358081242E+02  0.12256499360E+03  0.00000000000E+00 0.  1.
          1    1    6    6  503    0  0.33251437025E+03  0.39606440197E+03  0.12195014755E+04  0.13246194418E+04  0.00000000000E+00 0. -1.
         -1    1    6    6    0  503  0.13851830247E+02  0.59381193429E+02  0.11208201160E+03  0.12759457926E+03  0.00000000000E+00 0.  1.
<mgrwt>
<rscale>  0 0.13036673E+04</rscale>
<asrwt>0</asrwt>
<pdfrwt beam="1">  1        2 0.33048514E+00 0.13036673E+04</pdfrwt>
<pdfrwt beam="2">  1       -1 0.30429506E-01 0.13036673E+04</pdfrwt>
<totfact> 0.61447022E+01</totfact>
</mgrwt>
</event>
<event>
12    6  0.1586493E-007  0.3376243E+04  0.7818608E-02  0.8143762E-01
          2   -1    0    0  501    0  0.00000000000E+00  0.00000000000E+00  0.15110547168E+04  0.15110547168E+04  0.00000000000E+00 0. -1.
         -1   -1    0    0    0  501 -0.00000000000E+00 -0.00000000000E+00 -0.18859375979E+04  0.18859375979E+04  0.00000000000E+00 0.  1.
         24    2    1    2    0    0  0.13376142128E+04 -0.33637072046E+03  0.57500581763E+03  0.14963672952E+04  0.78270989441E+02 0.  0.
        254    2    1    2    0    0 -0.13376142128E+04  0.33637072046E+03 -0.94988869877E+03  0.19006250195E+04  0.89873793778E+03 0.  0.
         23    2    4    4    0    0 -0.88601879933E+02  0.35049206917E+02 -0.53114161463E+03  0.54628337761E+03  0.85061000667E+02 0.  0.
         23    2    4    4    0    0 -0.12490123329E+04  0.30132151355E+03 -0.41874708415E+03  0.13543416419E+04  0.89809243702E+02 0.  0.
          4    1    3    3  502    0  0.10185807147E+04 -0.22940033243E+03  0.41152970510E+03  0.11222690778E+04  0.00000000000E+00 0. -1.
         -3    1    3    3    0  502  0.31903349812E+03 -0.10697038804E+03  0.16347611253E+03  0.37409821733E+03  0.00000000000E+00 0.  1.
         11    1    5    5    0    0 -0.58603486238E+02  0.96256090380E+01 -0.12662855456E+03  0.13986354700E+03  0.00000000000E+00 0.  1.
        -11    1    5    5    0    0 -0.29998393695E+02  0.25423597879E+02 -0.40451306007E+03  0.40641983062E+03  0.00000000000E+00 0. -1.
          1    1    6    6  503    0 -0.10967798714E+04  0.29324534217E+03 -0.37734721659E+03  0.11963736201E+04  0.00000000000E+00 0. -1.
         -1    1    6    6    0  503 -0.15223246146E+03  0.80761713734E+01 -0.41399867559E+02  0.15796802176E+03  0.00000000000E+00 0.  1.
<mgrwt>
<rscale>  0 0.33762434E+04</rscale>
<asrwt>0</asrwt>
<pdfrwt beam="1">  1        2 0.23246996E+00 0.33762434E+04</pdfrwt>
<pdfrwt beam="2">  1       -1 0.29014425E+00 0.33762434E+04</pdfrwt>
<totfact> 0.45233779E-01</totfact>
</mgrwt>
</event>
<event>
12    6  0.1586493E-007  0.1480302E+04  0.7818608E-02  0.8897659E-01
         -1   -1    0    0    0  501 -0.00000000000E+00  0.00000000000E+00  0.73969788931E+03  0.73969788931E+03  0.00000000000E+00 0.  1.
          2   -1    0    0  501    0  0.00000000000E+00 -0.00000000000E+00 -0.74060424161E+03  0.74060424161E+03  0.00000000000E+00 0. -1.
         24    2    1    2    0    0 -0.29286020256E+03  0.15239327064E+03  0.32930834241E+03  0.47304184784E+03  0.79585163470E+02 0.  0.
        254    2    1    2    0    0  0.29286020256E+03 -0.15239327064E+03 -0.33021469472E+03  0.10072602831E+04  0.89249130309E+03 0.  0.
         23    2    4    4    0    0 -0.22779478676E+03  0.13387490296E+02  0.13738760515E+03  0.28138074922E+03  0.90719800567E+02 0.  0.
         23    2    4    4    0    0  0.52065498932E+03 -0.16578076094E+03 -0.46760229987E+03  0.72587953386E+03  0.98408882889E+02 0.  0.
          4    1    3    3  502    0 -0.13212921738E+03  0.84790501046E+02  0.20812313056E+03  0.26069675224E+03  0.00000000000E+00 0. -1.
         -3    1    3    3    0  502 -0.16073098518E+03  0.67602769599E+02  0.12118521185E+03  0.21234509560E+03  0.00000000000E+00 0.  1.
         11    1    5    5    0    0 -0.75961894663E+01 -0.11508003340E+02 -0.83791826229E+01  0.16135269961E+02  0.00000000000E+00 0. -1.
        -11    1    5    5    0    0 -0.22019859729E+03  0.24895493635E+02  0.14576678777E+03  0.26524547926E+03  0.00000000000E+00 0.  1.
          3    1    6    6  503    0  0.33944266184E+03 -0.94526876895E+02 -0.23989390146E+03  0.42626955684E+03  0.00000000000E+00 0. -1.
         -3    1    6    6    0  503  0.18121232748E+03 -0.71253884046E+02 -0.22770839841E+03  0.29960997702E+03  0.00000000000E+00 0.  1.
<mgrwt>
<rscale>  0 0.14803019E+04</rscale>
<asrwt>0</asrwt>
<pdfrwt beam="1">  1        2 0.11393912E+00 0.14803019E+04</pdfrwt>
<pdfrwt beam="2">  1       -1 0.11379967E+00 0.14803019E+04</pdfrwt>
<totfact> 0.29658583E+01</totfact>
</mgrwt>
</event>
<event>
12    6  0.1586493E-007  0.2116949E+04  0.7818608E-02  0.8553814E-01
         -1   -1    0    0    0  501 -0.00000000000E+00  0.00000000000E+00  0.39577608489E+03  0.39577608489E+03  0.00000000000E+00 0.  1.
          2   -1    0    0  501    0  0.00000000000E+00 -0.00000000000E+00 -0.28308127784E+04  0.28308127784E+04  0.00000000000E+00 0. -1.
         24    2    1    2    0    0 -0.42657454983E+03 -0.38619752680E+03 -0.19849934837E+04  0.20683064410E+04  0.81105036449E+02 0.  0.
        254    2    1    2    0    0  0.42657454983E+03  0.38619752680E+03 -0.45004320976E+03  0.11582824223E+04  0.89886867949E+03 0.  0.
         23    2    4    4    0    0 -0.14927536977E+03  0.12030226052E+02 -0.43111014873E+03  0.46538920560E+03  0.91122390216E+02 0.  0.
         23    2    4    4    0    0  0.57584991960E+03  0.37416730075E+03 -0.18933061033E+02  0.69289321673E+03  0.90212250460E+02 0.  0.
          2    1    3    3  502    0 -0.29217889135E+03 -0.31156673188E+03 -0.14322968215E+04  0.14946292242E+04  0.00000000000E+00 0. -1.
         -1    1    3    3    0  502 -0.13439565848E+03 -0.74630794923E+02 -0.55269666224E+03  0.57367721675E+03  0.00000000000E+00 0.  1.
         11    1    5    5    0    0 -0.15136730209E+02 -0.11387994730E+02 -0.16863441068E+03  0.16969493655E+03  0.00000000000E+00 0. -1.
        -11    1    5    5    0    0 -0.13413863956E+03  0.23418220782E+02 -0.26247573804E+03  0.29569426905E+03  0.00000000000E+00 0.  1.
          1    1    6    6  503    0  0.16288453232E+03  0.72058212838E+02  0.22583455861E+02  0.17953765450E+03  0.00000000000E+00 0. -1.
         -1    1    6    6    0  503  0.41296538729E+03  0.30210908791E+03 -0.41516516894E+02  0.51335556223E+03  0.00000000000E+00 0.  1.
<mgrwt>
<rscale>  0 0.21169487E+04</rscale>
<asrwt>0</asrwt>
<pdfrwt beam="1">  1        2 0.43550968E+00 0.21169487E+04</pdfrwt>
<pdfrwt beam="2">  1       -1 0.60888625E-01 0.21169487E+04</pdfrwt>
<totfact> 0.63524128E+00</totfact>
</mgrwt>
</event>
<event>
12    6  0.1586493E-007  0.1899434E+04  0.7818608E-02  0.8655138E-01
          2   -1    0    0  501    0  0.00000000000E+00  0.00000000000E+00  0.45969536977E+03  0.45969536977E+03  0.00000000000E+00 0. -1.
         -1   -1    0    0    0  501 -0.00000000000E+00 -0.00000000000E+00 -0.19620867735E+04  0.19620867735E+04  0.00000000000E+00 0.  1.
         24    2    1    2    0    0 -0.14651624567E+03 -0.34528130512E+03  0.16432087196E+03  0.41672308258E+03  0.77269584480E+02 0.  0.
        254    2    1    2    0    0  0.14651624567E+03  0.34528130512E+03 -0.16667122757E+04  0.20050590606E+04  0.10495931769E+04 0.  0.
         23    2    4    4    0    0 -0.44508245498E+03  0.19703476230E+03 -0.80538487176E+03  0.94559038255E+03  0.92602865158E+02 0.  0.
         23    2    4    4    0    0  0.59159870064E+03  0.14824654282E+03 -0.86132740390E+03  0.10594686781E+04  0.92859695706E+02 0.  0.
          2    1    3    3  502    0 -0.13729891799E+03 -0.32030853981E+03  0.17253351409E+03  0.38886548708E+03  0.00000000000E+00 0. -1.
         -1    1    3    3    0  502 -0.92173276714E+01 -0.24972765314E+02 -0.82126421240E+01  0.27857595508E+02  0.00000000000E+00 0.  1.
         11    1    5    5    0    0 -0.41170886926E+03  0.16475624187E+03 -0.67933351965E+03  0.81126003426E+03  0.00000000000E+00 0. -1.
        -11    1    5    5    0    0 -0.33373585715E+02  0.32278520432E+02 -0.12605135211E+03  0.13433034829E+03  0.00000000000E+00 0.  1.
          1    1    6    6  503    0  0.52188779893E+03  0.12998643847E+03 -0.80437833155E+03  0.96761968207E+03  0.00000000000E+00 0. -1.
         -1    1    6    6    0  503  0.69710901718E+02  0.18260104345E+02 -0.56949072342E+02  0.91848996019E+02  0.00000000000E+00 0.  1.
<mgrwt>
<rscale>  0 0.18994338E+04</rscale>
<asrwt>0</asrwt>
<pdfrwt beam="1">  1        2 0.70722365E-01 0.18994338E+04</pdfrwt>
<pdfrwt beam="2">  1       -1 0.30185950E+00 0.18994338E+04</pdfrwt>
<totfact> 0.23354677E+00</totfact>
</mgrwt>
</event>
<event>
12    6  0.1586493E-007  0.3162246E+04  0.7818608E-02  0.8198860E-01
         -1   -1    0    0    0  501 -0.00000000000E+00  0.00000000000E+00  0.13121645006E+04  0.13121645006E+04  0.00000000000E+00 0.  1.
          2   -1    0    0  501    0  0.00000000000E+00 -0.00000000000E+00 -0.19052108462E+04  0.19052108462E+04  0.00000000000E+00 0. -1.
         24    2    1    2    0    0  0.23165129323E+03  0.89530330477E+03 -0.14117083016E+04  0.16894083824E+04  0.77136402623E+02 0.  0.
        254    2    1    2    0    0 -0.23165129323E+03 -0.89530330477E+03  0.81866195593E+03  0.15279669644E+04  0.89958063393E+03 0.  0.
         23    2    4    4    0    0 -0.16173552047E+03  0.43637520387E+02 -0.94481662862E+02  0.21314354708E+03  0.91873691967E+02 0.  0.
         23    2    4    4    0    0 -0.69915772763E+02 -0.93894082515E+03  0.91314361879E+03  0.13148234173E+04  0.91821902158E+02 0.  0.
          4    1    3    3  502    0  0.18922409487E+03  0.80266999752E+03 -0.12252825938E+04  0.14769571144E+04  0.00000000000E+00 0. -1.
         -3    1    3    3    0  502  0.42427198361E+02  0.92633307246E+02 -0.18642570774E+03  0.21245126801E+03  0.00000000000E+00 0.  1.
         11    1    5    5    0    0 -0.20423552770E+02  0.42536272614E+02 -0.39399536189E+02  0.61471777651E+02  0.00000000000E+00 0.  1.
        -11    1    5    5    0    0 -0.14131196770E+03  0.11012477738E+01 -0.55082126673E+02  0.15167176942E+03  0.00000000000E+00 0. -1.
          3    1    6    6  503    0 -0.92184674910E+02 -0.78073872413E+03  0.75233338433E+03  0.10881435984E+04  0.00000000000E+00 0. -1.
         -3    1    6    6    0  503  0.22268902147E+02 -0.15820210102E+03  0.16081023446E+03  0.22667981886E+03  0.00000000000E+00 0.  1.
<mgrwt>
<rscale>  0 0.31622461E+04</rscale>
<asrwt>0</asrwt>
<pdfrwt beam="1">  1        2 0.29310936E+00 0.31622461E+04</pdfrwt>
<pdfrwt beam="2">  1       -1 0.20187146E+00 0.31622461E+04</pdfrwt>
<totfact> 0.10590606E+00</totfact>
</mgrwt>
</event>
<event>
12    6  0.1586493E-007  0.2179291E+04  0.7818608E-02  0.8527097E-01
          2   -1    0    0  501    0  0.00000000000E+00  0.00000000000E+00  0.14171486775E+04  0.14171486775E+04  0.00000000000E+00 0. -1.
         -1   -1    0    0    0  501 -0.00000000000E+00 -0.00000000000E+00 -0.83782841325E+03  0.83782841325E+03  0.00000000000E+00 0.  1.
         24    2    1    2    0    0  0.75808781086E+03  0.17106083832E+03 -0.23446237514E+03  0.81546097857E+03  0.77750002116E+02 0.  0.
        254    2    1    2    0    0 -0.75808781086E+03 -0.17106083832E+03  0.81378263943E+03  0.14395161122E+04  0.89777809829E+03 0.  0.
         23    2    4    4    0    0 -0.72391985607E+02 -0.35521710609E+03  0.57315712811E+03  0.68418550720E+03  0.90448453412E+02 0.  0.
         23    2    4    4    0    0 -0.68569582526E+03  0.18415626778E+03  0.24062551132E+03  0.75533060503E+03  0.92365526387E+02 0.  0.
          2    1    3    3  502    0  0.70408063201E+01 -0.37574600029E+01 -0.90491239133E+01  0.12065575117E+02  0.00000000000E+00 0. -1.
         -1    1    3    3    0  502  0.75104700454E+03  0.17481829832E+03 -0.22541325122E+03  0.80339540345E+03  0.00000000000E+00 0.  1.
         11    1    5    5    0    0 -0.52827026739E+02 -0.25124846544E+03  0.47461643857E+03  0.53960842275E+03  0.00000000000E+00 0.  1.
        -11    1    5    5    0    0 -0.19564958868E+02 -0.10396864065E+03  0.98540689533E+02  0.14457708445E+03  0.00000000000E+00 0. -1.
          4    1    6    6  503    0 -0.11336546924E+03 -0.10523439370E+01  0.53395383846E+02  0.12531521879E+03  0.00000000000E+00 0. -1.
         -4    1    6    6    0  503 -0.57233035601E+03  0.18520861171E+03  0.18723012748E+03  0.63001538624E+03  0.00000000000E+00 0.  1.
<mgrwt>
<rscale>  0 0.21792911E+04</rscale>
<asrwt>0</asrwt>
<pdfrwt beam="1">  1        2 0.21802287E+00 0.21792911E+04</pdfrwt>
<pdfrwt beam="2">  1       -1 0.12889668E+00 0.21792911E+04</pdfrwt>
<totfact> 0.76484403E+00</totfact>
</mgrwt>
</event>
<event>
12    6  0.1586493E-007  0.2812332E+04  0.7818608E-02  0.8299450E-01
          2   -1    0    0  501    0  0.00000000000E+00  0.00000000000E+00  0.35682676674E+04  0.35682676674E+04  0.00000000000E+00 0. -1.
         -1   -1    0    0    0  501 -0.00000000000E+00 -0.00000000000E+00 -0.55413521910E+03  0.55413521910E+03  0.00000000000E+00 0.  1.
         24    2    1    2    0    0 -0.73296816429E+02  0.12607757639E+04  0.12199325501E+04  0.17576877851E+04  0.79391265685E+02 0.  0.
        254    2    1    2    0    0  0.73296816429E+02 -0.12607757639E+04  0.17941998982E+04  0.23647151014E+04  0.88192759688E+03 0.  0.
         23    2    4    4    0    0  0.26231150267E+02 -0.19806294457E+03 -0.57418177320E+02  0.22737585516E+03  0.92119103160E+02 0.  0.
         23    2    4    4    0    0  0.47065666162E+02 -0.10627128193E+04  0.18516180755E+04  0.21373392462E+04  0.90309704883E+02 0.  0.
          4    1    3    3  502    0 -0.37759732233E+02  0.88056711074E+03  0.89744720376E+03  0.12578695153E+04  0.00000000000E+00 0. -1.
         -3    1    3    3    0  502 -0.35537084196E+02  0.38020865311E+03  0.32248534636E+03  0.49981826985E+03  0.00000000000E+00 0.  1.
         11    1    5    5    0    0 -0.69408432989E+01 -0.11501694119E+03 -0.73279756015E+02  0.13655399924E+03  0.00000000000E+00 0. -1.
        -11    1    5    5    0    0  0.33171993566E+02 -0.83046003373E+02  0.15861578694E+02  0.90821855916E+02  0.00000000000E+00 0.  1.
          3    1    6    6  503    0  0.74009498155E+02 -0.71264439465E+03  0.12433846893E+04  0.14350417849E+04  0.00000000000E+00 0. -1.
         -3    1    6    6    0  503 -0.26943831993E+02 -0.35006842464E+03  0.60823338623E+03  0.70229746129E+03  0.00000000000E+00 0.  1.
<mgrwt>
<rscale>  0 0.28123320E+04</rscale>
<asrwt>0</asrwt>
<pdfrwt beam="1">  1        2 0.54896424E+00 0.28123320E+04</pdfrwt>
<pdfrwt beam="2">  1       -1 0.85251574E-01 0.28123320E+04</pdfrwt>
<totfact> 0.97752875E-01</totfact>
</mgrwt>
</event>
<event>
12    6  0.1586493E-007  0.1842754E+04  0.7818608E-02  0.8683888E-01
          2   -1    0    0  501    0  0.00000000000E+00  0.00000000000E+00  0.59113641263E+03  0.59113641263E+03  0.00000000000E+00 0. -1.
         -1   -1    0    0    0  501 -0.00000000000E+00 -0.00000000000E+00 -0.14361078483E+04  0.14361078483E+04  0.00000000000E+00 0.  1.
         24    2    1    2    0    0 -0.58422486424E+03  0.21944761960E+03  0.22200519752E+02  0.62937631803E+03  0.78394750318E+02 0.  0.
        254    2    1    2    0    0  0.58422486424E+03 -0.21944761960E+03 -0.86717195545E+03  0.13978679429E+04  0.90142755439E+03 0.  0.
         23    2    4    4    0    0  0.68845376985E+03 -0.22600336956E+03 -0.97862193586E+03  0.12210743034E+04  0.90969471817E+02 0.  0.
         23    2    4    4    0    0 -0.10422890561E+03  0.65557499585E+01  0.11144998041E+03  0.17679363953E+03  0.89040722265E+02 0.  0.
          4    1    3    3  502    0 -0.37611294332E+03  0.16787481409E+03  0.42226497042E+02  0.41403620179E+03  0.00000000000E+00 0. -1.
         -3    1    3    3    0  502 -0.20811192091E+03  0.51572805505E+02 -0.20025977290E+02  0.21534011623E+03  0.00000000000E+00 0.  1.
         11    1    5    5    0    0  0.22268314848E+03 -0.81941693449E+02 -0.25283534094E+03  0.34673900180E+03  0.00000000000E+00 0.  1.
        -11    1    5    5    0    0  0.46577062137E+03 -0.14406167611E+03 -0.72578659492E+03  0.87433530159E+03  0.00000000000E+00 0. -1.
          1    1    6    6  503    0 -0.10641805619E+03  0.36139593590E+01  0.12416002111E+03  0.16356519870E+03  0.00000000000E+00 0. -1.
         -1    1    6    6    0  503  0.21891505823E+01  0.29417905995E+01 -0.12710040694E+02  0.13228440824E+02  0.00000000000E+00 0.  1.
<mgrwt>
<rscale>  0 0.18427541E+04</rscale>
<asrwt>0</asrwt>
<pdfrwt beam="1">  1        2 0.90944064E-01 0.18427541E+04</pdfrwt>
<pdfrwt beam="2">  1       -1 0.22093967E+00 0.18427541E+04</pdfrwt>
<totfact> 0.58853685E+00</totfact>
</mgrwt>
</event>
<event>
12    6  0.1586493E-007  0.1387132E+04  0.7818608E-02  0.8963186E-01
          2   -1    0    0  501    0  0.00000000000E+00  0.00000000000E+00  0.10214565787E+04  0.10214565787E+04  0.00000000000E+00 0. -1.
         -1   -1    0    0    0  501 -0.00000000000E+00 -0.00000000000E+00 -0.47092941468E+03  0.47092941468E+03  0.00000000000E+00 0.  1.
         24    2    1    2    0    0  0.31269263910E+03  0.22855433232E+03  0.23870316093E+03  0.46186500806E+03  0.79538149702E+02 0.  0.
        254    2    1    2    0    0 -0.31269263910E+03 -0.22855433232E+03  0.31182400309E+03  0.10305209853E+04  0.90262147267E+03 0.  0.
         23    2    4    4    0    0 -0.78021275403E+02 -0.54140917870E+03  0.62551013453E+02  0.55806480532E+03  0.91172800034E+02 0.  0.
         23    2    4    4    0    0 -0.23467136370E+03  0.31285484637E+03  0.24927298964E+03  0.47245618001E+03  0.90161049368E+02 0.  0.
          2    1    3    3  502    0  0.24926055428E+03  0.13874221149E+03  0.16613301870E+03  0.33012180339E+03  0.00000000000E+00 0. -1.
         -1    1    3    3    0  502  0.63432084820E+02  0.89812120833E+02  0.72570142232E+02  0.13174320467E+03  0.00000000000E+00 0.  1.
         11    1    5    5    0    0 -0.43907312747E+02 -0.33699577494E+03  0.82955564905E+02  0.34982228372E+03  0.00000000000E+00 0. -1.
        -11    1    5    5    0    0 -0.34113962656E+02 -0.20441340376E+03 -0.20404551452E+02  0.20824252160E+03  0.00000000000E+00 0.  1.
          4    1    6    6  503    0 -0.18025801057E+03  0.28784324387E+03  0.22727575472E+03  0.40865749975E+03  0.00000000000E+00 0.  1.
         -4    1    6    6    0  503 -0.54413353132E+02  0.25011602502E+02  0.21997234920E+02  0.63798680260E+02  0.00000000000E+00 0. -1.
<mgrwt>
<rscale>  0 0.13871322E+04</rscale>
<asrwt>0</asrwt>
<pdfrwt beam="1">  1        2 0.15714717E+00 0.13871322E+04</pdfrwt>
<pdfrwt beam="2">  1       -1 0.72450679E-01 0.13871322E+04</pdfrwt>
<totfact> 0.52127087E+01</totfact>
</mgrwt>
</event>
<event>
12    6  0.1586493E-007  0.1497043E+04  0.7818608E-02  0.8886421E-01
          2   -1    0    0  501    0  0.00000000000E+00  0.00000000000E+00  0.13862353869E+04  0.13862353869E+04  0.00000000000E+00 0. -1.
         -1   -1    0    0    0  501 -0.00000000000E+00 -0.00000000000E+00 -0.40417717170E+03  0.40417717170E+03  0.00000000000E+00 0.  1.
         24    2    1    2    0    0  0.27391986106E+03 -0.35145668770E+03  0.11328402484E+03  0.46596032821E+03  0.75709071945E+02 0.  0.
        254    2    1    2    0    0 -0.27391986106E+03  0.35145668770E+03  0.86877419037E+03  0.13244522304E+04  0.89490291271E+03 0.  0.
         23    2    4    4    0    0  0.16070495055E+03 -0.11886967903E+03 -0.25188211973E+02  0.22105637437E+03  0.90969186541E+02 0.  0.
         23    2    4    4    0    0 -0.43462481161E+03  0.47032636673E+03  0.89396240234E+03  0.11033958560E+04  0.90598124806E+02 0.  0.
          2    1    3    3  502    0  0.75593657093E+02 -0.14648189130E+03  0.62334365554E+02  0.17622973246E+03  0.00000000000E+00 0. -1.
         -1    1    3    3    0  502  0.19832620397E+03 -0.20497479639E+03  0.50949659286E+02  0.28973059575E+03  0.00000000000E+00 0.  1.
         11    1    5    5    0    0  0.15414791138E+03 -0.10375273981E+03  0.58620787675E+01  0.18590474326E+03  0.00000000000E+00 0.  1.
        -11    1    5    5    0    0  0.65570391760E+01 -0.15116939224E+02 -0.31050290740E+02  0.35151631105E+02  0.00000000000E+00 0. -1.
          2    1    6    6  503    0 -0.13495089633E+03  0.15609321448E+03  0.21962899080E+03  0.30135316429E+03  0.00000000000E+00 0.  1.
         -2    1    6    6    0  503 -0.29967391528E+03  0.31423315225E+03  0.67433341154E+03  0.80204269176E+03  0.00000000000E+00 0. -1.
<mgrwt>
<rscale>  0 0.14970434E+04</rscale>
<asrwt>0</asrwt>
<pdfrwt beam="1">  1        2 0.21326698E+00 0.14970434E+04</pdfrwt>
<pdfrwt beam="2">  1       -1 0.62181104E-01 0.14970434E+04</pdfrwt>
<totfact> 0.42577626E+01</totfact>
</mgrwt>
</event>
<event>
12    6  0.1586493E-007  0.1920009E+04  0.7818608E-02  0.8644960E-01
         -1   -1    0    0    0  501 -0.00000000000E+00  0.00000000000E+00  0.91014150235E+03  0.91014150235E+03  0.00000000000E+00 0.  1.
          2   -1    0    0  501    0  0.00000000000E+00 -0.00000000000E+00 -0.10125991117E+04  0.10125991117E+04  0.00000000000E+00 0. -1.
         24    2    1    2    0    0 -0.62523107693E+03  0.17520928539E+03 -0.39839454559E+03  0.76607430166E+03  0.80866732714E+02 0.  0.
        254    2    1    2    0    0  0.62523107693E+03 -0.17520928539E+03  0.29593693626E+03  0.11566663124E+04  0.91032197311E+03 0.  0.
         23    2    4    4    0    0  0.74651364472E+03 -0.39284774063E+03  0.17908400114E+03  0.86703116258E+03  0.89777437895E+02 0.  0.
         23    2    4    4    0    0 -0.12128256779E+03  0.21763845525E+03  0.11685293512E+03  0.28963514980E+03  0.90321387863E+02 0.  0.
          4    1    3    3  502    0 -0.38739566935E+03  0.10398761700E+03 -0.29111245517E+03  0.49561607185E+03  0.00000000000E+00 0. -1.
         -3    1    3    3    0  502 -0.23783540757E+03  0.71221668387E+02 -0.10728209042E+03  0.27045822980E+03  0.00000000000E+00 0.  1.
         11    1    5    5    0    0  0.10303358564E+03 -0.74593070227E+02  0.54659785596E+02  0.13844760040E+03  0.00000000000E+00 0.  1.
        -11    1    5    5    0    0  0.64348005908E+03 -0.31825467041E+03  0.12442421554E+03  0.72858356218E+03  0.00000000000E+00 0. -1.
          4    1    6    6  503    0 -0.13485040606E+03  0.18830840192E+03  0.93545683095E+02  0.24979087468E+03  0.00000000000E+00 0. -1.
         -4    1    6    6    0  503  0.13567838269E+02  0.29330053326E+02  0.23307252021E+02  0.39844275124E+02  0.00000000000E+00 0.  1.
<mgrwt>
<rscale>  0 0.19200088E+04</rscale>
<asrwt>0</asrwt>
<pdfrwt beam="1">  1        2 0.15578448E+00 0.19200088E+04</pdfrwt>
<pdfrwt beam="2">  1       -1 0.14002177E+00 0.19200088E+04</pdfrwt>
<totfact> 0.11050511E+01</totfact>
</mgrwt>
</event>
<event>
12    6  0.1586493E-007  0.4272194E+04  0.7818608E-02  0.7951780E-01
          2   -1    0    0  501    0  0.00000000000E+00  0.00000000000E+00  0.33572027106E+04  0.33572027106E+04  0.00000000000E+00 0. -1.
         -1   -1    0    0    0  501 -0.00000000000E+00 -0.00000000000E+00 -0.13591402673E+04  0.13591402673E+04  0.00000000000E+00 0.  1.
         24    2    1    2    0    0 -0.18738820718E+04 -0.55874438377E+03  0.29868800000E+03  0.19796972400E+04  0.79732901443E+02 0.  0.
        254    2    1    2    0    0  0.18738820718E+04  0.55874438377E+03  0.16993744433E+04  0.27366457379E+04  0.88188836650E+03 0.  0.
         23    2    4    4    0    0  0.17698855623E+04  0.23170085162E+03  0.14664470131E+04  0.23120133599E+04  0.93588172220E+02 0.  0.
         23    2    4    4    0    0  0.10399650951E+03  0.32704353216E+03  0.23292743021E+03  0.42463237801E+03  0.91020452632E+02 0.  0.
          4    1    3    3  502    0 -0.78463100200E+03 -0.22246953029E+03  0.86427123505E+02  0.82012691023E+03  0.00000000000E+00 0. -1.
         -3    1    3    3    0  502 -0.10892510698E+04 -0.33627485349E+03  0.21226087649E+03  0.11595703298E+04  0.00000000000E+00 0.  1.
         11    1    5    5    0    0  0.13417128216E+04  0.16316085840E+03  0.11587188875E+04  0.17802932965E+04  0.00000000000E+00 0.  1.
        -11    1    5    5    0    0  0.42817274068E+03  0.68539993224E+02  0.30772812553E+03  0.53172006336E+03  0.00000000000E+00 0. -1.
          1    1    6    6  503    0  0.67167528200E+02  0.30135850020E+03  0.21524110394E+03  0.37637369105E+03  0.00000000000E+00 0. -1.
         -1    1    6    6    0  503  0.36828981306E+02  0.25685031954E+02  0.17686326273E+02  0.48258686965E+02  0.00000000000E+00 0.  1.
<mgrwt>
<rscale>  0 0.42721935E+04</rscale>
<asrwt>0</asrwt>
<pdfrwt beam="1">  1        2 0.51649272E+00 0.42721935E+04</pdfrwt>
<pdfrwt beam="2">  1       -1 0.20909850E+00 0.42721935E+04</pdfrwt>
<totfact> 0.11629351E-01</totfact>
</mgrwt>
</event>
<event>
12    6  0.1586493E-007  0.1902543E+04  0.7818608E-02  0.8653591E-01
         -1   -1    0    0    0  501 -0.00000000000E+00  0.00000000000E+00  0.46296140145E+03  0.46296140145E+03  0.00000000000E+00 0.  1.
          2   -1    0    0  501    0  0.00000000000E+00 -0.00000000000E+00 -0.19546290945E+04  0.19546290945E+04  0.00000000000E+00 0. -1.
         24    2    1    2    0    0 -0.17512761421E+03 -0.34547689538E+03  0.21208284182E+03  0.44880432509E+03  0.80138779147E+02 0.  0.
        254    2    1    2    0    0  0.17512761421E+03  0.34547689538E+03 -0.17037505349E+04  0.19687861709E+04  0.90737485915E+03 0.  0.
         23    2    4    4    0    0 -0.12760560102E+03  0.39872247101E+02  0.42821867608E+02  0.16782679045E+03  0.91973549165E+02 0.  0.
         23    2    4    4    0    0  0.30273321523E+03  0.30560464828E+03 -0.17465724025E+04  0.18009593804E+04  0.88870310877E+02 0.  0.
          4    1    3    3  502    0 -0.55567190355E+02 -0.86381508835E+02  0.19496164103E+02  0.10454462266E+03  0.00000000000E+00 0. -1.
         -3    1    3    3    0  502 -0.11956042386E+03 -0.25909538654E+03  0.19258667772E+03  0.34425970243E+03  0.00000000000E+00 0.  1.
         11    1    5    5    0    0 -0.39954096218E+01 -0.20267958897E+02 -0.66959206089E+01  0.21716095614E+02  0.00000000000E+00 0. -1.
        -11    1    5    5    0    0 -0.12361019140E+03  0.60140205998E+02  0.49517788217E+02  0.14611069483E+03  0.00000000000E+00 0.  1.
          1    1    6    6  503    0  0.16542624092E+03  0.19098418895E+03 -0.85174034687E+03  0.88842693571E+03  0.00000000000E+00 0. -1.
         -1    1    6    6    0  503  0.13730697432E+03  0.11462045932E+03 -0.89483205560E+03  0.91253244470E+03  0.00000000000E+00 0.  1.
<mgrwt>
<rscale>  0 0.19025434E+04</rscale>
<asrwt>0</asrwt>
<pdfrwt beam="1">  1        2 0.30071216E+00 0.19025434E+04</pdfrwt>
<pdfrwt beam="2">  1       -1 0.71224832E-01 0.19025434E+04</pdfrwt>
<totfact> 0.15029906E+01</totfact>
</mgrwt>
</event>
<event>
12    6  0.1586493E-007  0.1445282E+04  0.7818608E-02  0.8921678E-01
         -1   -1    0    0    0  501 -0.00000000000E+00  0.00000000000E+00  0.53914536561E+03  0.53914536561E+03  0.00000000000E+00 0.  1.
          2   -1    0    0  501    0  0.00000000000E+00 -0.00000000000E+00 -0.96858843931E+03  0.96858843931E+03  0.00000000000E+00 0. -1.
         24    2    1    2    0    0  0.24020444349E+03 -0.16037058879E+03 -0.47922719088E+03  0.56539102284E+03  0.81187485507E+02 0.  0.
        254    2    1    2    0    0 -0.24020444349E+03  0.16037058879E+03  0.49784117187E+02  0.94234278208E+03  0.89560848600E+03 0.  0.
         23    2    4    4    0    0 -0.37639200401E+03  0.16390581926E+03  0.38412696582E+03  0.56944888458E+03  0.90456884798E+02 0.  0.
         23    2    4    4    0    0  0.13618756052E+03 -0.35352304713E+01 -0.33434284863E+03  0.37289389750E+03  0.93301494459E+02 0.  0.
          4    1    3    3  502    0  0.21039748788E+03 -0.10170134623E+03 -0.35969410800E+03  0.42894069294E+03  0.00000000000E+00 0. -1.
         -3    1    3    3    0  502  0.29806955611E+02 -0.58669242562E+02 -0.11953308288E+03  0.13645032990E+03  0.00000000000E+00 0.  1.
         11    1    5    5    0    0 -0.77103684254E+02  0.97689846302E+01  0.37658948555E+02  0.86363230559E+02  0.00000000000E+00 0.  1.
        -11    1    5    5    0    0 -0.29928831976E+03  0.15413683463E+03  0.34646801727E+03  0.48308565402E+03  0.00000000000E+00 0. -1.
          3    1    6    6  503    0  0.12704991673E+03 -0.16634126274E+02 -0.33307607117E+03  0.35687258887E+03  0.00000000000E+00 0. -1.
         -3    1    6    6    0  503  0.91376437935E+01  0.13098895802E+02 -0.12667774625E+01  0.16021308638E+02  0.00000000000E+00 0.  1.
<mgrwt>
<rscale>  0 0.14452819E+04</rscale>
<asrwt>0</asrwt>
<pdfrwt beam="1">  1        2 0.14901361E+00 0.14452819E+04</pdfrwt>
<pdfrwt beam="2">  1       -1 0.82945440E-01 0.14452819E+04</pdfrwt>
<totfact> 0.42191947E+01</totfact>
</mgrwt>
</event>
<event>
12    6  0.1586493E-007  0.1195272E+04  0.7818608E-02  0.9117005E-01
          2   -1    0    0  501    0  0.00000000000E+00  0.00000000000E+00  0.24029529449E+04  0.24029529449E+04  0.00000000000E+00 0. -1.
         -1   -1    0    0    0  501 -0.00000000000E+00 -0.00000000000E+00 -0.14863739246E+03  0.14863739246E+03  0.00000000000E+00 0.  1.
         24    2    1    2    0    0 -0.19764343944E+03 -0.72547325498E+02  0.76497289965E+03  0.79754655658E+03  0.81061267731E+02 0.  0.
        254    2    1    2    0    0  0.19764343944E+03  0.72547325498E+02  0.14893426528E+04  0.17540437808E+04  0.90233142684E+03 0.  0.
         23    2    4    4    0    0  0.20466436988E+03 -0.20359288802E+03  0.77300173293E+02  0.31259732495E+03  0.91674437137E+02 0.  0.
         23    2    4    4    0    0 -0.70209304492E+01  0.27614021352E+03  0.14120424795E+04  0.14414464559E+04  0.87184918957E+02 0.  0.
          2    1    3    3  502    0 -0.10647656125E+03 -0.33140013581E+02  0.26010229252E+03  0.28299950737E+03  0.00000000000E+00 0. -1.
         -1    1    3    3    0  502 -0.91166878184E+02 -0.39407311917E+02  0.50487060713E+03  0.51454704921E+03  0.00000000000E+00 0.  1.
         11    1    5    5    0    0  0.11431653574E+03 -0.15268968046E+03  0.14339643617E+02  0.19127998912E+03  0.00000000000E+00 0. -1.
        -11    1    5    5    0    0  0.90347834149E+02 -0.50903207566E+02  0.62960529676E+02  0.12131733583E+03  0.00000000000E+00 0.  1.
          2    1    6    6  503    0  0.65749818755E+01  0.37827495201E+01  0.15406060031E+03  0.15424723060E+03  0.00000000000E+00 0.  1.
         -2    1    6    6    0  503 -0.13595912325E+02  0.27235746400E+03  0.12579818792E+04  0.12871992252E+04  0.00000000000E+00 0. -1.
<mgrwt>
<rscale>  0 0.11952718E+04</rscale>
<asrwt>0</asrwt>
<pdfrwt beam="1">  1        2 0.36968504E+00 0.11952718E+04</pdfrwt>
<pdfrwt beam="2">  1       -1 0.22867293E-01 0.11952718E+04</pdfrwt>
<totfact> 0.73013376E+01</totfact>
</mgrwt>
</event>
<event>
12    6  0.1586493E-007  0.1872395E+04  0.7818608E-02  0.8668720E-01
          2   -1    0    0  501    0  0.00000000000E+00  0.00000000000E+00  0.25861143439E+04  0.25861143439E+04  0.00000000000E+00 0. -1.
         -1   -1    0    0    0  501 -0.00000000000E+00 -0.00000000000E+00 -0.33891229206E+03  0.33891229206E+03  0.00000000000E+00 0.  1.
         24    2    1    2    0    0  0.14200950404E+03  0.45086790027E+03  0.17014410142E+04  0.17676900070E+04  0.79861588914E+02 0.  0.
        254    2    1    2    0    0 -0.14200950404E+03 -0.45086790027E+03  0.54576103770E+03  0.11573366290E+04  0.90450229398E+03 0.  0.
         23    2    4    4    0    0  0.15663248939E+03  0.18851298804E+03  0.16559306069E+01  0.26162898719E+03  0.91521043691E+02 0.  0.
         23    2    4    4    0    0 -0.29864199343E+03 -0.63938088831E+03  0.54410510709E+03  0.89570764181E+03  0.90812176850E+02 0.  0.
          2    1    3    3  502    0  0.14396492742E+03  0.35461970334E+03  0.13294769058E+04  0.13834702301E+04  0.00000000000E+00 0. -1.
         -1    1    3    3    0  502 -0.19554233751E+01  0.96248196932E+02  0.37196410833E+03  0.38421977692E+03  0.00000000000E+00 0.  1.
         11    1    5    5    0    0  0.11653556810E+02  0.44081859481E+02 -0.29958023817E+02  0.54557299352E+02  0.00000000000E+00 0.  1.
        -11    1    5    5    0    0  0.14497893258E+03  0.14443112856E+03  0.31613954423E+02  0.20707168783E+03  0.00000000000E+00 0. -1.
          4    1    6    6  503    0 -0.31861378852E+02 -0.21623852680E+02  0.26128228802E+02  0.46534103703E+02  0.00000000000E+00 0. -1.
         -4    1    6    6    0  503 -0.26678061458E+03 -0.61775703563E+03  0.51797687829E+03  0.84917353811E+03  0.00000000000E+00 0.  1.
<mgrwt>
<rscale>  0 0.18723952E+04</rscale>
<asrwt>0</asrwt>
<pdfrwt beam="1">  1        2 0.39786373E+00 0.18723952E+04</pdfrwt>
<pdfrwt beam="2">  1       -1 0.52140354E-01 0.18723952E+04</pdfrwt>
<totfact> 0.12289851E+01</totfact>
</mgrwt>
</event>
<event>
12    6  0.1586493E-007  0.1780705E+04  0.7818608E-02  0.8716628E-01
          2   -1    0    0  501    0  0.00000000000E+00  0.00000000000E+00  0.27644864002E+04  0.27644864002E+04  0.00000000000E+00 0. -1.
         -1   -1    0    0    0  501 -0.00000000000E+00 -0.00000000000E+00 -0.28675387317E+03  0.28675387317E+03  0.00000000000E+00 0.  1.
         24    2    1    2    0    0 -0.17000934280E+03 -0.55822800050E+03  0.14611427526E+04  0.15752969294E+04  0.78106307519E+02 0.  0.
        254    2    1    2    0    0  0.17000934280E+03  0.55822800050E+03  0.10165897745E+04  0.14759433439E+04  0.89690150396E+03 0.  0.
         23    2    4    4    0    0  0.49055155178E+03  0.12865552101E+03  0.60067294644E+03  0.79135487062E+03  0.90782567860E+02 0.  0.
         23    2    4    4    0    0 -0.32054220898E+03  0.42957247949E+03  0.41591682803E+03  0.68458847333E+03  0.91622852535E+02 0.  0.
          2    1    3    3  502    0 -0.12824720420E+03 -0.50520697321E+03  0.12979935907E+04  0.13987382860E+04  0.00000000000E+00 0. -1.
         -3    1    3    3    0  502 -0.41762138596E+02 -0.53021027289E+02  0.16314916181E+03  0.17655864339E+03  0.00000000000E+00 0.  1.
         11    1    5    5    0    0  0.15727607757E+03  0.62757583422E+02  0.14470953479E+03  0.22274453599E+03  0.00000000000E+00 0. -1.
        -11    1    5    5    0    0  0.33327547421E+03  0.65897937590E+02  0.45596341164E+03  0.56861033463E+03  0.00000000000E+00 0.  1.
          4    1    6    6  503    0 -0.10035408732E+03  0.74096550507E+02  0.11221533741E+03  0.16779011767E+03  0.00000000000E+00 0. -1.
         -4    1    6    6    0  503 -0.22018812166E+03  0.35547592898E+03  0.30370149062E+03  0.51679835566E+03  0.00000000000E+00 0.  1.
<mgrwt>
<rscale>  0 0.17807046E+04</rscale>
<asrwt>0</asrwt>
<pdfrwt beam="1">  1        2 0.42530558E+00 0.17807046E+04</pdfrwt>
<pdfrwt beam="2">  1       -1 0.44115982E-01 0.17807046E+04</pdfrwt>
<totfact> 0.13325726E+01</totfact>
</mgrwt>
</event>
<event>
12    6  0.1586493E-007  0.2168021E+04  0.7818608E-02  0.8531858E-01
          2   -1    0    0  501    0  0.00000000000E+00  0.00000000000E+00  0.18269007781E+04  0.18269007781E+04  0.00000000000E+00 0. -1.
         -1   -1    0    0    0  501 -0.00000000000E+00 -0.00000000000E+00 -0.64320859811E+03  0.64320859811E+03  0.00000000000E+00 0.  1.
         24    2    1    2    0    0  0.26133540231E+03  0.85083997227E+02  0.14591909885E+04  0.14872898013E+04  0.85188808186E+02 0.  0.
        254    2    1    2    0    0 -0.26133540231E+03 -0.85083997227E+02 -0.27549880850E+03  0.98281957492E+03  0.90249611870E+03 0.  0.
         23    2    4    4    0    0 -0.57338390739E+03  0.30404828985E+02 -0.25462931904E+03  0.63433053975E+03  0.88575305075E+02 0.  0.
         23    2    4    4    0    0  0.31204850508E+03 -0.11548882621E+03 -0.20869489459E+02  0.34848903516E+03  0.10147479261E+03 0.  0.
          4    1    3    3  502    0  0.26036536480E+03  0.67651038414E+02  0.13984641795E+04  0.14241028220E+04  0.00000000000E+00 0. -1.
         -3    1    3    3    0  502  0.97003750643E+00  0.17432958813E+02  0.60726809010E+02  0.63186979341E+02  0.00000000000E+00 0.  1.
         11    1    5    5    0    0 -0.12916143701E+03 -0.71115160413E+01 -0.96220067975E+02  0.16121895655E+03  0.00000000000E+00 0.  1.
        -11    1    5    5    0    0 -0.44422247039E+03  0.37516345026E+02 -0.15840925106E+03  0.47311158320E+03  0.00000000000E+00 0. -1.
          2    1    6    6  503    0 -0.34996148328E+01 -0.76585503796E+01  0.10607313593E+02  0.13543108933E+02  0.00000000000E+00 0.  1.
         -2    1    6    6    0  503  0.31554811992E+03 -0.10783027583E+03 -0.31476803052E+02  0.33494592623E+03  0.00000000000E+00 0. -1.
<mgrwt>
<rscale>  0 0.21680206E+04</rscale>
<asrwt>0</asrwt>
<pdfrwt beam="1">  1        2 0.28106166E+00 0.21680206E+04</pdfrwt>
<pdfrwt beam="2">  1       -1 0.98955170E-01 0.21680206E+04</pdfrwt>
<totfact> 0.84923144E+00</totfact>
</mgrwt>
</event>
<event>
12    6  0.1586493E-007  0.1949543E+04  0.7818608E-02  0.8630581E-01
          2   -1    0    0  501    0  0.00000000000E+00  0.00000000000E+00  0.11072053877E+04  0.11072053877E+04  0.00000000000E+00 0. -1.
         -1   -1    0    0    0  501 -0.00000000000E+00 -0.00000000000E+00 -0.85817849727E+03  0.85817849727E+03  0.00000000000E+00 0.  1.
         24    2    1    2    0    0 -0.11373900700E+03  0.61108387699E+03 -0.34911022415E+03  0.71732759417E+03  0.79503850972E+02 0.  0.
        254    2    1    2    0    0  0.11373900700E+03 -0.61108387699E+03  0.59813711461E+03  0.12480562908E+04  0.90195145700E+03 0.  0.
         23    2    4    4    0    0  0.29691581142E+03 -0.11471698972E+03 -0.11981648011E+03  0.35166180314E+03  0.89392662358E+02 0.  0.
         23    2    4    4    0    0 -0.18317680442E+03 -0.49636688727E+03  0.71795359472E+03  0.89639448769E+03  0.90176964585E+02 0.  0.
          4    1    3    3  502    0 -0.10694153539E+03  0.60419504085E+03 -0.35179784909E+03  0.70728344106E+03  0.00000000000E+00 0. -1.
         -3    1    3    3    0  502 -0.67974716091E+01  0.68888361419E+01  0.26876249486E+01  0.10044153102E+02  0.00000000000E+00 0.  1.
         11    1    5    5    0    0  0.29577816856E+03 -0.96170554163E+02 -0.11917068090E+03  0.33306928960E+03  0.00000000000E+00 0. -1.
        -11    1    5    5    0    0  0.11376428509E+01 -0.18546435561E+02 -0.64579921128E+00  0.18592513544E+02  0.00000000000E+00 0.  1.
          3    1    6    6  503    0 -0.16960733287E+03 -0.49433226951E+03  0.70444502392E+03  0.87713957371E+03  0.00000000000E+00 0. -1.
         -3    1    6    6    0  503 -0.13569471542E+02 -0.20346177569E+01  0.13508570796E+02  0.19254913978E+02  0.00000000000E+00 0.  1.
<mgrwt>
<rscale>  0 0.19495434E+04</rscale>
<asrwt>0</asrwt>
<pdfrwt beam="1">  1        2 0.17033929E+00 0.19495434E+04</pdfrwt>
<pdfrwt beam="2">  1       -1 0.13202746E+00 0.19495434E+04</pdfrwt>
<totfact> 0.11187689E+01</totfact>
</mgrwt>
</event>
<event>
12    6  0.1586493E-007  0.1121517E+04  0.7818608E-02  0.9184470E-01
          2   -1    0    0  501    0  0.00000000000E+00  0.00000000000E+00  0.42739724458E+03  0.42739724458E+03  0.00000000000E+00 0. -1.
         -1   -1    0    0    0  501 -0.00000000000E+00 -0.00000000000E+00 -0.73573217785E+03  0.73573217785E+03  0.00000000000E+00 0.  1.
         24    2    1    2    0    0  0.59924466295E+02  0.54673675867E+02 -0.23248245226E+03  0.25817978586E+03  0.77643793856E+02 0.  0.
        254    2    1    2    0    0 -0.59924466295E+02 -0.54673675867E+02 -0.75852481010E+02  0.90494963657E+03  0.89810917675E+03 0.  0.
         23    2    4    4    0    0  0.29099512432E+03 -0.20936069962E+03  0.20286867752E+03  0.42209624756E+03  0.92192607975E+02 0.  0.
         23    2    4    4    0    0 -0.35091959061E+03  0.15468702375E+03 -0.27872115853E+03  0.48285338901E+03  0.91592994712E+02 0.  0.
          4    1    3    3  502    0 -0.18361729573E+02  0.13209033822E+02 -0.34152157860E+02  0.40963417507E+02  0.00000000000E+00 0. -1.
         -1    1    3    3    0  502  0.78286195868E+02  0.41464642045E+02 -0.19833029440E+03  0.21721636835E+03  0.00000000000E+00 0.  1.
         11    1    5    5    0    0  0.37738028527E+02 -0.55772264826E+02  0.71068300727E+02  0.97905095317E+02  0.00000000000E+00 0.  1.
        -11    1    5    5    0    0  0.25325709579E+03 -0.15358843479E+03  0.13180037679E+03  0.32419115224E+03  0.00000000000E+00 0. -1.
          2    1    6    6  503    0 -0.26399662658E+03  0.70901161926E+02 -0.18609834077E+03  0.33068683984E+03  0.00000000000E+00 0. -1.
         -2    1    6    6    0  503 -0.86922964032E+02  0.83785861823E+02 -0.92622817754E+02  0.15216654917E+03  0.00000000000E+00 0.  1.
<mgrwt>
<rscale>  0 0.11215167E+04</rscale>
<asrwt>0</asrwt>
<pdfrwt beam="1">  1        2 0.65753423E-01 0.11215167E+04</pdfrwt>
<pdfrwt beam="2">  1       -1 0.11318956E+00 0.11215167E+04</pdfrwt>
<totfact> 0.59706892E+01</totfact>
</mgrwt>
</event>
<event>
12    6  0.1586493E-007  0.2276650E+04  0.7818608E-02  0.8487185E-01
          2   -1    0    0  501    0  0.00000000000E+00  0.00000000000E+00  0.54907149015E+03  0.54907149015E+03  0.00000000000E+00 0. -1.
         -1   -1    0    0    0  501 -0.00000000000E+00 -0.00000000000E+00 -0.23599546022E+04  0.23599546022E+04  0.00000000000E+00 0.  1.
         24    2    1    2    0    0  0.41487433922E+03  0.83312121692E+03 -0.46256762428E+03  0.10419949357E+04  0.74652258103E+02 0.  0.
        254    2    1    2    0    0 -0.41487433922E+03 -0.83312121692E+03 -0.13483154878E+04  0.18670311566E+04  0.89534295430E+03 0.  0.
         23    2    4    4    0    0 -0.38775365115E+03 -0.13309156308E+03 -0.98809881495E+03  0.10739120996E+04  0.94242620079E+02 0.  0.
         23    2    4    4    0    0 -0.27120688073E+02 -0.70002965384E+03 -0.36021667285E+03  0.79311905704E+03  0.92221143255E+02 0.  0.
          2    1    3    3  502    0  0.25631389191E+03  0.58568104936E+03 -0.33261380422E+03  0.72066014565E+03  0.00000000000E+00 0. -1.
         -3    1    3    3    0  502  0.15856044731E+03  0.24744016756E+03 -0.12995382006E+03  0.32133479009E+03  0.00000000000E+00 0.  1.
         11    1    5    5    0    0 -0.22147400217E+03 -0.61982886398E+02 -0.43584889494E+03  0.49280510454E+03  0.00000000000E+00 0.  1.
        -11    1    5    5    0    0 -0.16627964898E+03 -0.71108676685E+02 -0.55224992001E+03  0.58110699507E+03  0.00000000000E+00 0. -1.
          3    1    6    6  503    0  0.10110675088E+02 -0.40874187354E+03 -0.25126051670E+03  0.47989998144E+03  0.00000000000E+00 0. -1.
         -3    1    6    6    0  503 -0.37231363161E+02 -0.29128778030E+03 -0.10895615615E+03  0.31321907559E+03  0.00000000000E+00 0.  1.
<mgrwt>
<rscale>  0 0.22766500E+04</rscale>
<asrwt>0</asrwt>
<pdfrwt beam="1">  1        2 0.84472538E-01 0.22766500E+04</pdfrwt>
<pdfrwt beam="2">  1       -1 0.36306993E+00 0.22766500E+04</pdfrwt>
<totfact> 0.72792268E-01</totfact>
</mgrwt>
</event>
<event>
12    6  0.1586493E-007  0.2242041E+04  0.7818608E-02  0.8501131E-01
         -1   -1    0    0    0  501 -0.00000000000E+00  0.00000000000E+00  0.98384333645E+03  0.98384333645E+03  0.00000000000E+00 0.  1.
          2   -1    0    0  501    0  0.00000000000E+00 -0.00000000000E+00 -0.12773241372E+04  0.12773241372E+04  0.00000000000E+00 0. -1.
         24    2    1    2    0    0 -0.47584586316E+03 -0.17785550918E+02  0.68890979038E+03  0.84178667146E+03  0.85220242088E+02 0.  0.
        254    2    1    2    0    0  0.47584586316E+03  0.17785550918E+02 -0.98239059116E+03  0.14193808022E+04  0.90708598092E+03 0.  0.
         23    2    4    4    0    0  0.73696720139E+03  0.22050990050E+02 -0.65246013070E+03  0.98881116008E+03  0.91849801635E+02 0.  0.
         23    2    4    4    0    0 -0.26112133823E+03 -0.42654391323E+01 -0.32993046046E+03  0.43056964213E+03  0.91288338430E+02 0.  0.
          4    1    3    3  502    0 -0.55778366573E+02  0.14383270178E+02  0.48902653943E+02  0.75561724446E+02  0.00000000000E+00 0. -1.
         -3    1    3    3    0  502 -0.42006749659E+03 -0.32168821096E+02  0.64000713644E+03  0.76622494702E+03  0.00000000000E+00 0.  1.
         11    1    5    5    0    0  0.55705444262E+02 -0.74252780407E+01 -0.22746278523E+02  0.60626928514E+02  0.00000000000E+00 0.  1.
        -11    1    5    5    0    0  0.68126175713E+03  0.29476268091E+02 -0.62971385218E+03  0.92818423157E+03  0.00000000000E+00 0. -1.
          1    1    6    6  503    0 -0.21127604563E+03 -0.39572182766E+02 -0.26846842876E+03  0.34391688291E+03  0.00000000000E+00 0. -1.
         -1    1    6    6    0  503 -0.49845292599E+02  0.35306743634E+02 -0.61462031697E+02  0.86652759221E+02  0.00000000000E+00 0.  1.
<mgrwt>
<rscale>  0 0.22420409E+04</rscale>
<asrwt>0</asrwt>
<pdfrwt beam="1">  1        2 0.19651141E+00 0.22420409E+04</pdfrwt>
<pdfrwt beam="2">  1       -1 0.15136051E+00 0.22420409E+04</pdfrwt>
<totfact> 0.60253983E+00</totfact>
</mgrwt>
</event>
<event>
12    6  0.1586493E-007  0.1348376E+04  0.7818608E-02  0.8992059E-01
          2   -1    0    0  501    0  0.00000000000E+00  0.00000000000E+00  0.32080062690E+04  0.32080062690E+04  0.00000000000E+00 0. -1.
         -1   -1    0    0    0  501 -0.00000000000E+00 -0.00000000000E+00 -0.14168591339E+03  0.14168591339E+03  0.00000000000E+00 0.  1.
         24    2    1    2    0    0  0.93375411688E+02 -0.28398919185E+03  0.32832181957E+03  0.45105661703E+03  0.79297074097E+02 0.  0.
        254    2    1    2    0    0 -0.93375411688E+02  0.28398919185E+03  0.27379985360E+04  0.28986355653E+04  0.90337330535E+03 0.  0.
         23    2    4    4    0    0  0.81676573536E+02  0.13551746095E+03  0.26176279037E+04  0.26239485487E+04  0.89967210116E+02 0.  0.
         23    2    4    4    0    0 -0.17505198522E+03  0.14847173090E+03  0.12037063227E+03  0.27468701663E+03  0.90977005803E+02 0.  0.
          4    1    3    3  502    0  0.29898042184E+02 -0.56052808574E+02  0.29892104957E+02  0.70209317146E+02  0.00000000000E+00 0. -1.
         -3    1    3    3    0  502  0.63477369504E+02 -0.22793638328E+03  0.29842971461E+03  0.38084729988E+03  0.00000000000E+00 0.  1.
         11    1    5    5    0    0  0.81378072734E+02  0.14791824711E+03  0.23664211748E+04  0.23724357473E+04  0.00000000000E+00 0. -1.
        -11    1    5    5    0    0  0.29850080191E+00 -0.12400786164E+02  0.25120672895E+03  0.25151280140E+03  0.00000000000E+00 0.  1.
          1    1    6    6  503    0 -0.18135472351E+03  0.13258329676E+03  0.94584371626E+02  0.24375001472E+03  0.00000000000E+00 0. -1.
         -1    1    6    6    0  503  0.63027382878E+01  0.15888434145E+02  0.25786260640E+02  0.30937001912E+02  0.00000000000E+00 0.  1.
<mgrwt>
<rscale>  0 0.13483758E+04</rscale>
<asrwt>0</asrwt>
<pdfrwt beam="1">  1        2 0.49353937E+00 0.13483758E+04</pdfrwt>
<pdfrwt beam="2">  1       -1 0.21797835E-01 0.13483758E+04</pdfrwt>
<totfact> 0.25566160E+01</totfact>
</mgrwt>
</event>
<event>
12    6  0.1586493E-007  0.1275424E+04  0.7818608E-02  0.9049284E-01
          2   -1    0    0  501    0  0.00000000000E+00  0.00000000000E+00  0.21020029345E+03  0.21020029345E+03  0.00000000000E+00 0. -1.
         -1   -1    0    0    0  501 -0.00000000000E+00 -0.00000000000E+00 -0.19347103721E+04  0.19347103721E+04  0.00000000000E+00 0.  1.
         24    2    1    2    0    0  0.19516236843E+03  0.99627061837E+02 -0.82338239299E+03  0.85583214344E+03  0.80474785879E+02 0.  0.
        254    2    1    2    0    0 -0.19516236843E+03 -0.99627061837E+02 -0.90112768562E+03  0.12890785221E+04  0.89536496958E+03 0.  0.
         23    2    4    4    0    0  0.15216632454E+03  0.28327268670E+03 -0.13142633865E+03  0.35741842228E+03  0.84125149282E+02 0.  0.
         23    2    4    4    0    0 -0.34732869297E+03 -0.38289974854E+03 -0.76970134697E+03  0.93166009978E+03  0.91109492449E+02 0.  0.
          4    1    3    3  502    0  0.10032225103E+03  0.78233829982E+02 -0.34593871518E+03  0.36859012584E+03  0.00000000000E+00 0. -1.
         -3    1    3    3    0  502  0.94840117392E+02  0.21393231855E+02 -0.47744367781E+03  0.48724201760E+03  0.00000000000E+00 0.  1.
         11    1    5    5    0    0  0.56930973215E+02  0.14367136957E+03 -0.10384830943E+03  0.18619094907E+03  0.00000000000E+00 0.  1.
        -11    1    5    5    0    0  0.95235351324E+02  0.13960131713E+03 -0.27578029225E+02  0.17122747321E+03  0.00000000000E+00 0. -1.
          3    1    6    6  503    0 -0.35136716629E+03 -0.36945825129E+03 -0.73805935253E+03  0.89704508964E+03  0.00000000000E+00 0. -1.
         -3    1    6    6    0  503  0.40384733224E+01 -0.13441497244E+02 -0.31641994443E+02  0.34615010144E+02  0.00000000000E+00 0.  1.
<mgrwt>
<rscale>  0 0.12754241E+04</rscale>
<asrwt>0</asrwt>
<pdfrwt beam="1">  1        2 0.32338506E-01 0.12754241E+04</pdfrwt>
<pdfrwt beam="2">  1       -1 0.29764775E+00 0.12754241E+04</pdfrwt>
<totfact> 0.63316570E+00</totfact>
</mgrwt>
</event>
<event>
12    6  0.1586493E-007  0.2148108E+04  0.7818608E-02  0.8540343E-01
         -1   -1    0    0    0  501 -0.00000000000E+00  0.00000000000E+00  0.49495448382E+03  0.49495448382E+03  0.00000000000E+00 0.  1.
          2   -1    0    0  501    0  0.00000000000E+00 -0.00000000000E+00 -0.23307026706E+04  0.23307026706E+04  0.00000000000E+00 0. -1.
         24    2    1    2    0    0 -0.62148646285E+03 -0.57407957877E+03 -0.43542540356E+03  0.95477384566E+03  0.78644949172E+02 0.  0.
        254    2    1    2    0    0  0.62148646285E+03  0.57407957877E+03 -0.14003227832E+04  0.18708833088E+04  0.90746221492E+03 0.  0.
         23    2    4    4    0    0  0.40684636627E+03  0.79663772773E+03 -0.88401190764E+03  0.12609610058E+04  0.91596781589E+02 0.  0.
         23    2    4    4    0    0  0.21464009658E+03 -0.22255814896E+03 -0.51631087559E+03  0.60992230293E+03  0.99125146302E+02 0.  0.
          2    1    3    3  502    0 -0.20222312304E+03 -0.15257898983E+03 -0.15944218049E+03  0.29932649156E+03  0.00000000000E+00 0. -1.
         -1    1    3    3    0  502 -0.41926333981E+03 -0.42150058894E+03 -0.27598322307E+03  0.65544735410E+03  0.00000000000E+00 0.  1.
         11    1    5    5    0    0  0.37027166580E+03  0.76726429054E+03 -0.82978433618E+03  0.11892592832E+04  0.00000000000E+00 0. -1.
        -11    1    5    5    0    0  0.36574700476E+02  0.29373437190E+02 -0.54227571456E+02  0.71701722666E+02  0.00000000000E+00 0.  1.
          1    1    6    6  503    0  0.14968448179E+03 -0.19652149731E+03 -0.34031441989E+03  0.42052353963E+03  0.00000000000E+00 0. -1.
         -1    1    6    6    0  503  0.64955614793E+02 -0.26036651647E+02 -0.17599645570E+03  0.18939876330E+03  0.00000000000E+00 0.  1.
<mgrwt>
<rscale>  0 0.21481078E+04</rscale>
<asrwt>0</asrwt>
<pdfrwt beam="1">  1        2 0.35856965E+00 0.21481078E+04</pdfrwt>
<pdfrwt beam="2">  1       -1 0.76146842E-01 0.21481078E+04</pdfrwt>
<totfact> 0.78795157E+00</totfact>
</mgrwt>
</event>
<event>
12    6  0.1586493E-007  0.3428303E+04  0.7818608E-02  0.8130994E-01
          2   -1    0    0  501    0  0.00000000000E+00  0.00000000000E+00  0.16162857861E+04  0.16162857861E+04  0.00000000000E+00 0. -1.
         -1   -1    0    0    0  501 -0.00000000000E+00 -0.00000000000E+00 -0.18179434807E+04  0.18179434807E+04  0.00000000000E+00 0.  1.
         24    2    1    2    0    0  0.54849361211E+03 -0.14915959098E+04 -0.23920021434E+03  0.16091442290E+04  0.80154891706E+02 0.  0.
        254    2    1    2    0    0 -0.54849361211E+03  0.14915959098E+04  0.37542519736E+02  0.18250850377E+04  0.89656140523E+03 0.  0.
         23    2    4    4    0    0 -0.22927009342E+03 -0.15983315626E+02  0.13280256111E+03  0.27848946010E+03  0.84259225229E+02 0.  0.
         23    2    4    4    0    0 -0.31922351870E+03  0.15075792254E+04 -0.95260041377E+02  0.15465955776E+04  0.90468941089E+02 0.  0.
          4    1    3    3  502    0  0.10799071098E+03 -0.24545916201E+03 -0.15211006526E+02  0.26859554835E+03  0.00000000000E+00 0. -1.
         -3    1    3    3    0  502  0.44050290113E+03 -0.12461367478E+04 -0.22398920782E+03  0.13405486807E+04  0.00000000000E+00 0.  1.
         11    1    5    5    0    0 -0.13816736204E+01  0.72739881789E+00  0.26372287130E+02  0.26418471937E+02  0.00000000000E+00 0.  1.
        -11    1    5    5    0    0 -0.22788841980E+03 -0.16710714444E+02  0.10643027398E+03  0.25207098816E+03  0.00000000000E+00 0. -1.
          1    1    6    6  503    0 -0.65115818561E+02  0.49735068935E+03 -0.46763965158E+02  0.50377043031E+03  0.00000000000E+00 0. -1.
         -1    1    6    6    0  503 -0.25410770014E+03  0.10102285361E+04 -0.48496076219E+02  0.10428251473E+04  0.00000000000E+00 0.  1.
<mgrwt>
<rscale>  0 0.34283035E+04</rscale>
<asrwt>0</asrwt>
<pdfrwt beam="1">  1        2 0.24865935E+00 0.34283035E+04</pdfrwt>
<pdfrwt beam="2">  1       -1 0.27968361E+00 0.34283035E+04</pdfrwt>
<totfact> 0.45940617E-01</totfact>
</mgrwt>
</event>
<event>
12    6  0.1586493E-007  0.1279435E+04  0.7818608E-02  0.9046034E-01
         -1   -1    0    0    0  501 -0.00000000000E+00  0.00000000000E+00  0.38868148677E+03  0.38868148677E+03  0.00000000000E+00 0.  1.
          2   -1    0    0  501    0  0.00000000000E+00 -0.00000000000E+00 -0.10528895764E+04  0.10528895764E+04  0.00000000000E+00 0. -1.
         24    2    1    2    0    0  0.19185953207E+03  0.21864920901E+03 -0.30038775329E+03  0.42609505252E+03  0.81894046227E+02 0.  0.
        254    2    1    2    0    0 -0.19185953207E+03 -0.21864920901E+03 -0.36382033635E+03  0.10154760107E+04  0.90233515637E+03 0.  0.
         23    2    4    4    0    0 -0.77240333845E+02  0.22515996941E+03  0.16763193646E+03  0.30641451671E+03  0.95531716896E+02 0.  0.
         23    2    4    4    0    0 -0.11461919823E+03 -0.44380917842E+03 -0.53145227281E+03  0.70906149394E+03  0.10110655990E+03 0.  0.
          2    1    3    3  502    0  0.44133847802E+02  0.24097744257E+02 -0.92697007255E+02  0.10545725653E+03  0.00000000000E+00 0. -1.
         -1    1    3    3    0  502  0.14772568427E+03  0.19455146476E+03 -0.20769074604E+03  0.32063779600E+03  0.00000000000E+00 0.  1.
         11    1    5    5    0    0 -0.38483659569E+01  0.11553457922E+03  0.38584046123E+02  0.12186786915E+03  0.00000000000E+00 0. -1.
        -11    1    5    5    0    0 -0.73391967888E+02  0.10962539018E+03  0.12904789034E+03  0.18454664756E+03  0.00000000000E+00 0.  1.
          3    1    6    6  503    0 -0.59769147815E+02 -0.19265393926E+03 -0.16068876732E+03  0.25789294540E+03  0.00000000000E+00 0. -1.
         -3    1    6    6    0  503 -0.54850050415E+02 -0.25115523917E+03 -0.37076350549E+03  0.45116854855E+03  0.00000000000E+00 0.  1.
<mgrwt>
<rscale>  0 0.12794353E+04</rscale>
<asrwt>0</asrwt>
<pdfrwt beam="1">  1        2 0.16198301E+00 0.12794353E+04</pdfrwt>
<pdfrwt beam="2">  1       -1 0.59797152E-01 0.12794353E+04</pdfrwt>
<totfact> 0.73997844E+01</totfact>
</mgrwt>
</event>
<event>
12    6  0.1586493E-007  0.1160368E+04  0.7818608E-02  0.9148271E-01
         -1   -1    0    0    0  501 -0.00000000000E+00  0.00000000000E+00  0.25973248194E+03  0.25973248194E+03  0.00000000000E+00 0.  1.
          2   -1    0    0  501    0  0.00000000000E+00 -0.00000000000E+00 -0.12960013501E+04  0.12960013501E+04  0.00000000000E+00 0. -1.
         24    2    1    2    0    0  0.51915430180E+02  0.16396725433E+03 -0.22591182131E+02  0.19088161430E+03  0.79655237028E+02 0.  0.
        254    2    1    2    0    0 -0.51915430180E+02 -0.16396725433E+03 -0.10136776860E+04  0.13648522177E+04  0.89760718175E+03 0.  0.
         23    2    4    4    0    0 -0.25019378347E+03  0.22988051559E+03 -0.78741732003E+03  0.86219145998E+03  0.88916236086E+02 0.  0.
         23    2    4    4    0    0  0.19827835329E+03 -0.39384776991E+03 -0.22626036598E+03  0.50266075774E+03  0.83926830739E+02 0.  0.
          2    1    3    3  502    0  0.58925708477E+02  0.86623920663E+02 -0.38485757510E+02  0.11161136269E+03  0.00000000000E+00 0. -1.
         -1    1    3    3    0  502 -0.70102782970E+01  0.77343333662E+02  0.15894575379E+02  0.79270251609E+02  0.00000000000E+00 0.  1.
         11    1    5    5    0    0 -0.12672929360E+03  0.15710926065E+03 -0.37967882562E+03  0.42999958635E+03  0.00000000000E+00 0.  1.
        -11    1    5    5    0    0 -0.12346448987E+03  0.72771254937E+02 -0.40773849441E+03  0.43219187363E+03  0.00000000000E+00 0. -1.
          4    1    6    6  503    0  0.17781537991E+03 -0.29075688522E+03 -0.14772365677E+03  0.37145680019E+03  0.00000000000E+00 0. -1.
         -4    1    6    6    0  503  0.20462973375E+02 -0.10309088469E+03 -0.78536709203E+02  0.13120395755E+03  0.00000000000E+00 0.  1.
<mgrwt>
<rscale>  0 0.11603683E+04</rscale>
<asrwt>0</asrwt>
<pdfrwt beam="1">  1        2 0.19938483E+00 0.11603683E+04</pdfrwt>
<pdfrwt beam="2">  1       -1 0.39958843E-01 0.11603683E+04</pdfrwt>
<totfact> 0.11427731E+02</totfact>
</mgrwt>
</event>
<event>
12    6  0.1586493E-007  0.1359993E+04  0.7818608E-02  0.8983298E-01
          2   -1    0    0  501    0  0.00000000000E+00  0.00000000000E+00  0.60253559748E+03  0.60253559748E+03  0.00000000000E+00 0. -1.
         -1   -1    0    0    0  501 -0.00000000000E+00 -0.00000000000E+00 -0.76741565753E+03  0.76741565753E+03  0.00000000000E+00 0.  1.
         24    2    1    2    0    0 -0.25884884904E+03  0.27687500148E+03 -0.41212076236E+02  0.38967059512E+03  0.80512386478E+02 0.  0.
        254    2    1    2    0    0  0.25884884904E+03 -0.27687500148E+03 -0.12366798382E+03  0.98028065989E+03  0.89554112627E+03 0.  0.
         23    2    4    4    0    0  0.40492619385E+03 -0.18999743836E+03 -0.42436576951E+03  0.62327865773E+03  0.91245437135E+02 0.  0.
         23    2    4    4    0    0 -0.14607734481E+03 -0.86877563123E+02  0.30069778569E+03  0.35700200217E+03  0.90249485253E+02 0.  0.
          4    1    3    3  502    0  0.60881225803E+01  0.56161490993E+01 -0.15643208858E+01  0.84293218643E+01  0.00000000000E+00 0. -1.
         -3    1    3    3    0  502 -0.26493697162E+03  0.27125885239E+03 -0.39647755350E+02  0.38124127325E+03  0.00000000000E+00 0.  1.
         11    1    5    5    0    0  0.36134231067E+03 -0.19791907544E+03 -0.38853738267E+03  0.56630515064E+03  0.00000000000E+00 0.  1.
        -11    1    5    5    0    0  0.43583883174E+02  0.79216370784E+01 -0.35828386838E+02  0.56973507089E+02  0.00000000000E+00 0. -1.
          1    1    6    6  503    0 -0.27615519465E+02 -0.64585797397E+02  0.88859403008E+02  0.11326930583E+03  0.00000000000E+00 0. -1.
         -1    1    6    6    0  503 -0.11846182535E+03 -0.22291765726E+02  0.21183838268E+03  0.24373269633E+03  0.00000000000E+00 0.  1.
<mgrwt>
<rscale>  0 0.13599930E+04</rscale>
<asrwt>0</asrwt>
<pdfrwt beam="1">  1        2 0.92697784E-01 0.13599930E+04</pdfrwt>
<pdfrwt beam="2">  1       -1 0.11806395E+00 0.13599930E+04</pdfrwt>
<totfact> 0.35470070E+01</totfact>
</mgrwt>
</event>
<event>
12    6  0.1586493E-007  0.3326483E+04  0.7818608E-02  0.8156189E-01
         -1   -1    0    0    0  501 -0.00000000000E+00  0.00000000000E+00  0.23237919950E+04  0.23237919950E+04  0.00000000000E+00 0.  1.
          2   -1    0    0  501    0  0.00000000000E+00 -0.00000000000E+00 -0.11904558845E+04  0.11904558845E+04  0.00000000000E+00 0. -1.
         24    2    1    2    0    0  0.25647660107E+03  0.14802585712E+04  0.87692066460E+03  0.17412153802E+04  0.76781922717E+02 0.  0.
        254    2    1    2    0    0 -0.25647660107E+03 -0.14802585712E+04  0.25641544594E+03  0.17730324993E+04  0.90606273406E+03 0.  0.
         23    2    4    4    0    0 -0.78469050574E+02 -0.53091373987E+03  0.53542139037E+03  0.76380013708E+03  0.93208331406E+02 0.  0.
         23    2    4    4    0    0 -0.17800755049E+03 -0.94934483135E+03 -0.27900594444E+03  0.10092323622E+04  0.88109857913E+02 0.  0.
          4    1    3    3  502    0  0.90408688235E+01  0.85324931895E+02  0.31349542442E+02  0.91350288031E+02  0.00000000000E+00 0. -1.
         -3    1    3    3    0  502  0.24743573224E+03  0.13949336393E+04  0.84557112216E+03  0.16498650922E+04  0.00000000000E+00 0.  1.
         11    1    5    5    0    0  0.10387691935E+02 -0.22122780781E+03  0.19488509743E+03  0.29500821733E+03  0.00000000000E+00 0. -1.
        -11    1    5    5    0    0 -0.88856742509E+02 -0.30968593207E+03  0.34053629295E+03  0.46879191975E+03  0.00000000000E+00 0.  1.
          3    1    6    6  503    0 -0.11694364613E+03 -0.51045376028E+03 -0.19124567150E+03  0.55750673953E+03  0.00000000000E+00 0. -1.
         -3    1    6    6    0  503 -0.61063904365E+02 -0.43889107107E+03 -0.87760272935E+02  0.45172562268E+03  0.00000000000E+00 0.  1.
<mgrwt>
<rscale>  0 0.33264827E+04</rscale>
<asrwt>0</asrwt>
<pdfrwt beam="1">  1        2 0.18314706E+00 0.33264827E+04</pdfrwt>
<pdfrwt beam="2">  1       -1 0.35750646E+00 0.33264827E+04</pdfrwt>
<totfact> 0.25226156E-01</totfact>
</mgrwt>
</event>
<event>
12    6  0.1586493E-007  0.1148466E+04  0.7818608E-02  0.9159199E-01
          2   -1    0    0  501    0  0.00000000000E+00  0.00000000000E+00  0.29193118609E+03  0.29193118609E+03  0.00000000000E+00 0. -1.
         -1   -1    0    0    0  501 -0.00000000000E+00 -0.00000000000E+00 -0.11295258494E+04  0.11295258494E+04  0.00000000000E+00 0.  1.
         24    2    1    2    0    0 -0.16714370304E+02  0.18830139402E+03 -0.40531585831E+02  0.20765543726E+03  0.75770614402E+02 0.  0.
        254    2    1    2    0    0  0.16714370304E+02 -0.18830139402E+03 -0.79706307748E+03  0.12138015982E+04  0.89569413597E+03 0.  0.
         23    2    4    4    0    0  0.14737915917E+03 -0.30945649899E+03 -0.91378157779E+03  0.98026923183E+03  0.91907854094E+02 0.  0.
         23    2    4    4    0    0 -0.13066478887E+03  0.12115510496E+03  0.11671850031E+03  0.23353236639E+03  0.95719963068E+02 0.  0.
          2    1    3    3  502    0 -0.35362196877E+02  0.84884907959E+02  0.72023324799E+01  0.92237769706E+02  0.00000000000E+00 0. -1.
         -1    1    3    3    0  502  0.18647826573E+02  0.10341648607E+03 -0.47733918310E+02  0.11541766755E+03  0.00000000000E+00 0.  1.
         11    1    5    5    0    0  0.14595144838E+03 -0.22876621434E+03 -0.75229739787E+03  0.79974194647E+03  0.00000000000E+00 0. -1.
        -11    1    5    5    0    0  0.14277107963E+01 -0.80690284648E+02 -0.16148417992E+03  0.18052728536E+03  0.00000000000E+00 0.  1.
          1    1    6    6  503    0 -0.82814981755E+02  0.12047851180E+03  0.56784198750E+02  0.15683697981E+03  0.00000000000E+00 0. -1.
         -1    1    6    6    0  503 -0.47849807115E+02  0.67659316126E+00  0.59934301563E+02  0.76695386583E+02  0.00000000000E+00 0.  1.
<mgrwt>
<rscale>  0 0.11484665E+04</rscale>
<asrwt>0</asrwt>
<pdfrwt beam="1">  1        2 0.44912490E-01 0.11484665E+04</pdfrwt>
<pdfrwt beam="2">  1       -1 0.17377321E+00 0.11484665E+04</pdfrwt>
<totfact> 0.29651577E+01</totfact>
</mgrwt>
</event>
<event>
12    6  0.1586493E-007  0.2854028E+04  0.7818608E-02  0.8286689E-01
         -1   -1    0    0    0  501 -0.00000000000E+00  0.00000000000E+00  0.15379977551E+04  0.15379977551E+04  0.00000000000E+00 0.  1.
          2   -1    0    0  501    0  0.00000000000E+00 -0.00000000000E+00 -0.13240385594E+04  0.13240385594E+04  0.00000000000E+00 0. -1.
         24    2    1    2    0    0 -0.61411846121E+03  0.71580141001E+03  0.93501188713E+03  0.13306184303E+04  0.82371323893E+02 0.  0.
        254    2    1    2    0    0  0.61411846121E+03 -0.71580141001E+03 -0.72105269149E+03  0.15314178842E+04  0.96737304552E+03 0.  0.
         23    2    4    4    0    0  0.47710781522E+03 -0.58569523450E+03 -0.95139112644E+03  0.12180489791E+04  0.88472961129E+02 0.  0.
         23    2    4    4    0    0  0.13701064599E+03 -0.13010617552E+03  0.23033843494E+03  0.31336890516E+03  0.97184062935E+02 0.  0.
          4    1    3    3  502    0 -0.10581930119E+03  0.16033099439E+03  0.22305602203E+03  0.29437686939E+03  0.00000000000E+00 0. -1.
         -1    1    3    3    0  502 -0.50829916002E+03  0.55547041563E+03  0.71195586510E+03  0.10362415609E+04  0.00000000000E+00 0.  1.
         11    1    5    5    0    0  0.21595777702E+03 -0.29466507735E+03 -0.52389769263E+03  0.63869715954E+03  0.00000000000E+00 0. -1.
        -11    1    5    5    0    0  0.26115003820E+03 -0.29103015715E+03 -0.42749343381E+03  0.57935181951E+03  0.00000000000E+00 0.  1.
          1    1    6    6  503    0  0.82994782175E+02 -0.88583872293E+02  0.72345758479E+02  0.14131222548E+03  0.00000000000E+00 0. -1.
         -1    1    6    6    0  503  0.54015863810E+02 -0.41522303224E+02  0.15799267646E+03  0.17205667969E+03  0.00000000000E+00 0.  1.
<mgrwt>
<rscale>  0 0.28540276E+04</rscale>
<asrwt>0</asrwt>
<pdfrwt beam="1">  1        2 0.20369824E+00 0.28540276E+04</pdfrwt>
<pdfrwt beam="2">  1       -1 0.23661504E+00 0.28540276E+04</pdfrwt>
<totfact> 0.13480959E+00</totfact>
</mgrwt>
</event>
<event>
12    6  0.1586493E-007  0.1653104E+04  0.7818608E-02  0.8788572E-01
          2   -1    0    0  501    0  0.00000000000E+00  0.00000000000E+00  0.11418894600E+04  0.11418894600E+04  0.00000000000E+00 0. -1.
         -1   -1    0    0    0  501 -0.00000000000E+00 -0.00000000000E+00 -0.59829634491E+03  0.59829634491E+03  0.00000000000E+00 0.  1.
         24    2    1    2    0    0  0.52656485327E+03  0.23608691569E+03  0.12439150562E+03  0.59577888247E+03  0.80446588891E+02 0.  0.
        254    2    1    2    0    0 -0.52656485327E+03 -0.23608691569E+03  0.41920160945E+03  0.11444069224E+04  0.89494672370E+03 0.  0.
         23    2    4    4    0    0 -0.35632637485E+03 -0.25608288367E+03  0.68251851802E+03  0.81673182231E+03  0.93125793507E+02 0.  0.
         23    2    4    4    0    0 -0.17023847842E+03  0.19995967977E+02 -0.26331690858E+03  0.32767510011E+03  0.93027945366E+02 0.  0.
          4    1    3    3  502    0  0.38756163671E+03  0.20341763357E+03  0.11564160466E+03  0.45272037355E+03  0.00000000000E+00 0. -1.
         -3    1    3    3    0  502  0.13900321656E+03  0.32669282126E+02  0.87499009653E+01  0.14305850892E+03  0.00000000000E+00 0.  1.
         11    1    5    5    0    0 -0.92378097399E+01 -0.10775862522E+02  0.19201031828E+01  0.14322818791E+02  0.00000000000E+00 0. -1.
        -11    1    5    5    0    0 -0.34708856511E+03 -0.24530702115E+03  0.68059841484E+03  0.80240900352E+03  0.00000000000E+00 0.  1.
          3    1    6    6  503    0 -0.29004146004E+02 -0.18571272452E+02 -0.11351485607E+02  0.36262775285E+02  0.00000000000E+00 0. -1.
         -3    1    6    6    0  503 -0.14123433242E+03  0.38567240429E+02 -0.25196542297E+03  0.29141232482E+03  0.00000000000E+00 0.  1.
<mgrwt>
<rscale>  0 0.16531041E+04</rscale>
<asrwt>0</asrwt>
<pdfrwt beam="1">  1        2 0.17567530E+00 0.16531041E+04</pdfrwt>
<pdfrwt beam="2">  1       -1 0.92045591E-01 0.16531041E+04</pdfrwt>
<totfact> 0.25706052E+01</totfact>
</mgrwt>
</event>
<event>
12    6  0.1586493E-007  0.1118175E+04  0.7818608E-02  0.9187657E-01
          2   -1    0    0  501    0  0.00000000000E+00  0.00000000000E+00  0.15692219372E+04  0.15692219372E+04  0.00000000000E+00 0. -1.
         -1   -1    0    0    0  501 -0.00000000000E+00 -0.00000000000E+00 -0.19919337451E+03  0.19919337451E+03  0.00000000000E+00 0.  1.
         24    2    1    2    0    0  0.52566063274E+02 -0.79325196724E+02  0.48848916495E+03  0.50439063566E+03  0.82052246919E+02 0.  0.
        254    2    1    2    0    0 -0.52566063274E+02  0.79325196724E+02  0.88153939771E+03  0.12640246760E+04  0.90088345197E+03 0.  0.
         23    2    4    4    0    0 -0.26971937839E+02  0.13054364357E+03  0.10506512162E+04  0.10630742221E+04  0.92139542432E+02 0.  0.
         23    2    4    4    0    0 -0.25594125435E+02 -0.51218446849E+02 -0.16911181854E+03  0.20095045388E+03  0.92216534266E+02 0.  0.
          4    1    3    3  502    0 -0.15226846695E+02 -0.30209982900E+02  0.23532440828E+03  0.23774372138E+03  0.00000000000E+00 0. -1.
         -3    1    3    3    0  502  0.67792909969E+02 -0.49115213824E+02  0.25316475668E+03  0.26664691428E+03  0.00000000000E+00 0.  1.
         11    1    5    5    0    0  0.25062382053E+01  0.28612501986E+01 -0.45525442416E+00  0.38308274865E+01  0.00000000000E+00 0.  1.
        -11    1    5    5    0    0 -0.29478176044E+02  0.12768239337E+03  0.10511064707E+04  0.10592433947E+04  0.00000000000E+00 0. -1.
          4    1    6    6  503    0  0.17419161198E+02 -0.90513646238E+01 -0.12438837077E+03  0.12592784108E+03  0.00000000000E+00 0. -1.
         -4    1    6    6    0  503 -0.43013286633E+02 -0.42167082225E+02 -0.44723447770E+02  0.75022612797E+02  0.00000000000E+00 0.  1.
<mgrwt>
<rscale>  0 0.11181746E+04</rscale>
<asrwt>0</asrwt>
<pdfrwt beam="1">  1        2 0.24141875E+00 0.11181746E+04</pdfrwt>
<pdfrwt beam="2">  1       -1 0.30645136E-01 0.11181746E+04</pdfrwt>
<totfact> 0.12881136E+02</totfact>
</mgrwt>
</event>
<event>
12    6  0.1586493E-007  0.2062397E+04  0.7818608E-02  0.8577991E-01
          2   -1    0    0  501    0  0.00000000000E+00  0.00000000000E+00  0.11418060257E+04  0.11418060257E+04  0.00000000000E+00 0. -1.
         -1   -1    0    0    0  501 -0.00000000000E+00 -0.00000000000E+00 -0.93130566059E+03  0.93130566059E+03  0.00000000000E+00 0.  1.
         24    2    1    2    0    0 -0.97001501962E+02 -0.62488731311E+03  0.62718207393E+03  0.89432443554E+03  0.81027135430E+02 0.  0.
        254    2    1    2    0    0  0.97001501962E+02  0.62488731311E+03 -0.41668170878E+03  0.11787872508E+04  0.90333952128E+03 0.  0.
         23    2    4    4    0    0  0.47793810939E+03  0.31730524552E+03 -0.34265787581E+03  0.67445892376E+03  0.91503905602E+02 0.  0.
         23    2    4    4    0    0 -0.38093660743E+03  0.30758206760E+03 -0.74023832975E+02  0.50432832703E+03  0.95645733881E+02 0.  0.
          2    1    3    3  502    0 -0.84982639118E+02 -0.56867101951E+03  0.53324537033E+03  0.78419347253E+03  0.00000000000E+00 0. -1.
         -1    1    3    3    0  502 -0.12018862844E+02 -0.56216293606E+02  0.93936703603E+02  0.11013096302E+03  0.00000000000E+00 0.  1.
         11    1    5    5    0    0  0.33992546643E+03  0.17883361537E+03 -0.24838577122E+03  0.45741258844E+03  0.00000000000E+00 0.  1.
        -11    1    5    5    0    0  0.13801264296E+03  0.13847163015E+03 -0.94272104587E+02  0.21704633532E+03  0.00000000000E+00 0. -1.
          3    1    6    6  503    0 -0.43853347077E+02  0.12430264074E+02  0.14084133749E+02  0.47707340507E+02  0.00000000000E+00 0. -1.
         -3    1    6    6    0  503 -0.33708326035E+03  0.29515180353E+03 -0.88107966725E+02  0.45662098653E+03  0.00000000000E+00 0.  1.
<mgrwt>
<rscale>  0 0.20623971E+04</rscale>
<asrwt>0</asrwt>
<pdfrwt beam="1">  1        2 0.17566246E+00 0.20623971E+04</pdfrwt>
<pdfrwt beam="2">  1       -1 0.14327779E+00 0.20623971E+04</pdfrwt>
<totfact> 0.85376437E+00</totfact>
</mgrwt>
</event>
<event>
12    6  0.1586493E-007  0.1038721E+04  0.7818608E-02  0.9267067E-01
          2   -1    0    0  501    0  0.00000000000E+00  0.00000000000E+00  0.63780512829E+03  0.63780512829E+03  0.00000000000E+00 0. -1.
         -1   -1    0    0    0  501 -0.00000000000E+00 -0.00000000000E+00 -0.42291196186E+03  0.42291196186E+03  0.00000000000E+00 0.  1.
         24    2    1    2    0    0 -0.60801944539E+02  0.98500039267E+02  0.54599989714E+02  0.15040828752E+03  0.79008606374E+02 0.  0.
        254    2    1    2    0    0  0.60801944539E+02 -0.98500039267E+02  0.16029317672E+03  0.91030880263E+03  0.88857699691E+03 0.  0.
         23    2    4    4    0    0  0.16285268767E+03 -0.46711623260E+03  0.81810092469E+02  0.50918411334E+03  0.88639705598E+02 0.  0.
         23    2    4    4    0    0 -0.10205074313E+03  0.36861619333E+03  0.78483084248E+02  0.40112468929E+03  0.91919365130E+02 0.  0.
          4    1    3    3  502    0 -0.35246014889E+02  0.91029221783E+02  0.95529148641E+01  0.98080879719E+02  0.00000000000E+00 0. -1.
         -3    1    3    3    0  502 -0.25555929650E+02  0.74708174837E+01  0.45047074850E+02  0.52327407796E+02  0.00000000000E+00 0.  1.
         11    1    5    5    0    0  0.91175624248E+02 -0.37345353392E+03  0.56425596091E+02  0.38854135475E+03  0.00000000000E+00 0. -1.
        -11    1    5    5    0    0  0.71677063419E+02 -0.93662698680E+02  0.25384496379E+02  0.12064275859E+03  0.00000000000E+00 0.  1.
          4    1    6    6  503    0  0.17472854027E+02  0.43965065238E+02  0.64014118513E+01  0.47741027040E+02  0.00000000000E+00 0.  1.
         -4    1    6    6    0  503 -0.11952359716E+03  0.32465112809E+03  0.72081672397E+02  0.35338366225E+03  0.00000000000E+00 0. -1.
<mgrwt>
<rscale>  0 0.10387212E+04</rscale>
<asrwt>0</asrwt>
<pdfrwt beam="1">  1        2 0.98123866E-01 0.10387212E+04</pdfrwt>
<pdfrwt beam="2">  1       -1 0.65063379E-01 0.10387212E+04</pdfrwt>
<totfact> 0.12550995E+02</totfact>
</mgrwt>
</event>
<event>
12    6  0.1586493E-007  0.1436018E+04  0.7818608E-02  0.8928152E-01
          2   -1    0    0  501    0  0.00000000000E+00  0.00000000000E+00  0.69956298653E+03  0.69956298653E+03  0.00000000000E+00 0. -1.
         -1   -1    0    0    0  501 -0.00000000000E+00 -0.00000000000E+00 -0.73694108047E+03  0.73694108047E+03  0.00000000000E+00 0.  1.
         24    2    1    2    0    0 -0.84529341525E+01 -0.62094233501E+02  0.40803112417E+03  0.42043226700E+03  0.79666472933E+02 0.  0.
        254    2    1    2    0    0  0.84529341525E+01  0.62094233501E+02 -0.44540921812E+03  0.10160718000E+04  0.91109021796E+03 0.  0.
         23    2    4    4    0    0 -0.17373657610E+03 -0.11837480480E+03  0.20749666466E+03  0.30848014907E+03  0.88927747296E+02 0.  0.
         23    2    4    4    0    0  0.18218951026E+03  0.18046903830E+03 -0.65290588278E+03  0.70759165093E+03  0.92939557075E+02 0.  0.
          2    1    3    3  502    0 -0.26737034906E+01 -0.24189712412E+02  0.35020233945E+03  0.35104696187E+03  0.00000000000E+00 0. -1.
         -3    1    3    3    0  502 -0.57792306619E+01 -0.37904521089E+02  0.57828784715E+02  0.69385305128E+02  0.00000000000E+00 0.  1.
         11    1    5    5    0    0  0.74372648135E+01 -0.47995643896E+01  0.27783233643E+02  0.29159163189E+02  0.00000000000E+00 0.  1.
        -11    1    5    5    0    0 -0.18117384092E+03 -0.11357524041E+03  0.17971343102E+03  0.27932098588E+03  0.00000000000E+00 0. -1.
          3    1    6    6  503    0  0.11247944657E+03  0.14791138513E+03 -0.53903533684E+03  0.57016532525E+03  0.00000000000E+00 0. -1.
         -3    1    6    6    0  503  0.69710063684E+02  0.32557653172E+02 -0.11387054594E+03  0.13742632568E+03  0.00000000000E+00 0.  1.
<mgrwt>
<rscale>  0 0.14360177E+04</rscale>
<asrwt>0</asrwt>
<pdfrwt beam="1">  1        2 0.10762507E+00 0.14360177E+04</pdfrwt>
<pdfrwt beam="2">  1       -1 0.11337555E+00 0.14360177E+04</pdfrwt>
<totfact> 0.32303976E+01</totfact>
</mgrwt>
</event>
<event>
12    6  0.1586493E-007  0.1634261E+04  0.7818608E-02  0.8799772E-01
          2   -1    0    0  501    0  0.00000000000E+00  0.00000000000E+00  0.28131482417E+04  0.28131482417E+04  0.00000000000E+00 0. -1.
         -1   -1    0    0    0  501 -0.00000000000E+00 -0.00000000000E+00 -0.23735045654E+03  0.23735045654E+03  0.00000000000E+00 0.  1.
         24    2    1    2    0    0 -0.42879757584E+02 -0.27654013404E+03 -0.19988452979E+02  0.29157700288E+03  0.79400824996E+02 0.  0.
        254    2    1    2    0    0  0.42879757584E+02  0.27654013404E+03  0.25957862381E+04  0.27589216954E+04  0.89175647330E+03 0.  0.
         23    2    4    4    0    0  0.33650716278E+03  0.38003828955E+03  0.21279950643E+04  0.21896314475E+04  0.91960373245E+02 0.  0.
         23    2    4    4    0    0 -0.29362740519E+03 -0.10349815551E+03  0.46779117385E+03  0.56929024783E+03  0.91290101715E+02 0.  0.
          2    1    3    3  502    0  0.10574979575E+02 -0.88998755087E+01  0.99255873697E+01  0.17016323390E+02  0.00000000000E+00 0. -1.
         -1    1    3    3    0  502 -0.53454737159E+02 -0.26764025853E+03 -0.29914040349E+02  0.27456067949E+03  0.00000000000E+00 0.  1.
         11    1    5    5    0    0  0.25461669681E+02  0.69937636064E+02  0.38668656590E+03  0.39378429350E+03  0.00000000000E+00 0.  1.
        -11    1    5    5    0    0  0.31104549309E+03  0.31010065348E+03  0.17413084984E+04  0.17958471540E+04  0.00000000000E+00 0. -1.
          4    1    6    6  503    0 -0.22251763553E+03 -0.10483945800E+03  0.40781713394E+03  0.47625646957E+03  0.00000000000E+00 0. -1.
         -4    1    6    6    0  503 -0.71109769666E+02  0.13413024911E+01  0.59974039911E+02  0.93033778261E+02  0.00000000000E+00 0.  1.
<mgrwt>
<rscale>  0 0.16342607E+04</rscale>
<asrwt>0</asrwt>
<pdfrwt beam="1">  1        2 0.43279201E+00 0.16342607E+04</pdfrwt>
<pdfrwt beam="2">  1       -1 0.36515457E-01 0.16342607E+04</pdfrwt>
<totfact> 0.17847659E+01</totfact>
</mgrwt>
</event>
<event>
12    6  0.1586493E-007  0.2754948E+04  0.7818608E-02  0.8317393E-01
          2   -1    0    0  501    0  0.00000000000E+00  0.00000000000E+00  0.25085566497E+04  0.25085566497E+04  0.00000000000E+00 0. -1.
         -1   -1    0    0    0  501 -0.00000000000E+00 -0.00000000000E+00 -0.75638484717E+03  0.75638484717E+03  0.00000000000E+00 0.  1.
         24    2    1    2    0    0  0.66722487561E+03  0.98120115452E+03  0.41432436371E+03  0.12594271691E+04  0.80915855167E+02 0.  0.
        254    2    1    2    0    0 -0.66722487561E+03 -0.98120115452E+03  0.13378474388E+04  0.20055143278E+04  0.90791365727E+03 0.  0.
         23    2    4    4    0    0 -0.16152241779E+03 -0.96233516327E+03  0.86080276039E+03  0.13044171151E+04  0.91346373105E+02 0.  0.
         23    2    4    4    0    0 -0.50570245783E+03 -0.18865991252E+02  0.47704467843E+03  0.70109721270E+03  0.88739928764E+02 0.  0.
          2    1    3    3  502    0  0.17111292273E+03  0.21004842716E+03  0.68702331712E+02  0.27949952497E+03  0.00000000000E+00 0. -1.
         -1    1    3    3    0  502  0.49611195289E+03  0.77115272736E+03  0.34562203200E+03  0.97992764412E+03  0.00000000000E+00 0.  1.
         11    1    5    5    0    0 -0.68838394779E+02 -0.18854122231E+03  0.17988032403E+03  0.26952448512E+03  0.00000000000E+00 0. -1.
        -11    1    5    5    0    0 -0.92684023006E+02 -0.77379394096E+03  0.68092243636E+03  0.10348926300E+04  0.00000000000E+00 0.  1.
          3    1    6    6  503    0 -0.91089726102E+02 -0.28982994218E+02  0.59568649160E+02  0.11263115074E+03  0.00000000000E+00 0. -1.
         -3    1    6    6    0  503 -0.41461273173E+03  0.10117002966E+02  0.41747602927E+03  0.58846606195E+03  0.00000000000E+00 0.  1.
<mgrwt>
<rscale>  0 0.27549477E+04</rscale>
<asrwt>0</asrwt>
<pdfrwt beam="1">  1        2 0.38593179E+00 0.27549477E+04</pdfrwt>
<pdfrwt beam="2">  1       -1 0.11636690E+00 0.27549477E+04</pdfrwt>
<totfact> 0.22792561E+00</totfact>
</mgrwt>
</event>
<event>
12    6  0.1586493E-007  0.1536455E+04  0.7818608E-02  0.8860566E-01
         -1   -1    0    0    0  501 -0.00000000000E+00  0.00000000000E+00  0.44959988660E+03  0.44959988660E+03  0.00000000000E+00 0.  1.
          2   -1    0    0  501    0  0.00000000000E+00 -0.00000000000E+00 -0.13126644206E+04  0.13126644206E+04  0.00000000000E+00 0. -1.
         24    2    1    2    0    0  0.65783831145E+02  0.43406825281E+03 -0.56361012049E+03  0.71885007872E+03  0.79663713288E+02 0.  0.
        254    2    1    2    0    0 -0.65783831145E+02 -0.43406825281E+03 -0.29945441351E+03  0.10434142285E+04  0.89794072515E+03 0.  0.
         23    2    4    4    0    0  0.96106354340E+02 -0.39901670624E+03  0.23159415135E+03  0.47994476425E+03  0.90886536879E+02 0.  0.
         23    2    4    4    0    0 -0.16189018549E+03 -0.35051546568E+02 -0.53104856486E+03  0.56346946423E+03  0.89711848722E+02 0.  0.
          2    1    3    3  502    0  0.44295214419E+02  0.23445273860E+03 -0.24293495058E+03  0.34051070890E+03  0.00000000000E+00 0. -1.
         -1    1    3    3    0  502  0.21488616727E+02  0.19961551421E+03 -0.32067516991E+03  0.37833936983E+03  0.00000000000E+00 0.  1.
         11    1    5    5    0    0  0.12992988529E+02 -0.22917114737E+00  0.63854812442E+01  0.14479110506E+02  0.00000000000E+00 0. -1.
        -11    1    5    5    0    0  0.83113365810E+02 -0.39878753510E+03  0.22520867011E+03  0.46546565374E+03  0.00000000000E+00 0.  1.
          2    1    6    6  503    0 -0.54935431197E+02 -0.53104679361E+02 -0.16789876570E+03  0.18446681028E+03  0.00000000000E+00 0. -1.
         -2    1    6    6    0  503 -0.10695475429E+03  0.18053132793E+02 -0.36314979916E+03  0.37900265395E+03  0.00000000000E+00 0.  1.
<mgrwt>
<rscale>  0 0.15364554E+04</rscale>
<asrwt>0</asrwt>
<pdfrwt beam="1">  1        2 0.20194837E+00 0.15364554E+04</pdfrwt>
<pdfrwt beam="2">  1       -1 0.69169214E-01 0.15364554E+04</pdfrwt>
<totfact> 0.37747961E+01</totfact>
</mgrwt>
</event>
<event>
12    6  0.1586493E-007  0.1703673E+04  0.7818608E-02  0.8759272E-01
         -1   -1    0    0    0  501 -0.00000000000E+00  0.00000000000E+00  0.61388404737E+03  0.61388404737E+03  0.00000000000E+00 0.  1.
          2   -1    0    0  501    0  0.00000000000E+00 -0.00000000000E+00 -0.11820238747E+04  0.11820238747E+04  0.00000000000E+00 0. -1.
         24    2    1    2    0    0  0.12295256108E+03 -0.38116118929E+03  0.26688430004E+03  0.48829606935E+03  0.82490225099E+02 0.  0.
        254    2    1    2    0    0 -0.12295256108E+03  0.38116118929E+03 -0.83502412733E+03  0.13076118527E+04  0.92313719431E+03 0.  0.
         23    2    4    4    0    0  0.26471567910E+03 -0.17126199402E+02 -0.66057428118E+03  0.71755835028E+03  0.90354344846E+02 0.  0.
         23    2    4    4    0    0 -0.38766824018E+03  0.39828738869E+03 -0.17444984615E+03  0.59005350239E+03  0.93866279485E+02 0.  0.
          2    1    3    3  502    0  0.65365692903E+02 -0.20951310225E+03  0.19469369245E+03  0.29338378909E+03  0.00000000000E+00 0. -1.
         -1    1    3    3    0  502  0.57586868179E+02 -0.17164808704E+03  0.72190607595E+02  0.19491228026E+03  0.00000000000E+00 0.  1.
         11    1    5    5    0    0  0.24252452621E+03 -0.37326550567E+02 -0.53723015423E+03  0.59061633554E+03  0.00000000000E+00 0. -1.
        -11    1    5    5    0    0  0.22191152893E+02  0.20200351165E+02 -0.12334412695E+03  0.12694201474E+03  0.00000000000E+00 0.  1.
          1    1    6    6  503    0 -0.22398846333E+03  0.20044371189E+03 -0.13785283649E+03  0.33068401514E+03  0.00000000000E+00 0. -1.
         -1    1    6    6    0  503 -0.16367977685E+03  0.19784367680E+03 -0.36597009663E+02  0.25936948725E+03  0.00000000000E+00 0.  1.
<mgrwt>
<rscale>  0 0.17036732E+04</rscale>
<asrwt>0</asrwt>
<pdfrwt beam="1">  1        2 0.18184983E+00 0.17036732E+04</pdfrwt>
<pdfrwt beam="2">  1       -1 0.94443700E-01 0.17036732E+04</pdfrwt>
<totfact> 0.22856124E+01</totfact>
</mgrwt>
</event>
<event>
12    6  0.1586493E-007  0.1858111E+04  0.7818608E-02  0.8675993E-01
          2   -1    0    0  501    0  0.00000000000E+00  0.00000000000E+00  0.34684741134E+03  0.34684741134E+03  0.00000000000E+00 0. -1.
         -1   -1    0    0    0  501 -0.00000000000E+00 -0.00000000000E+00 -0.24885415181E+04  0.24885415181E+04  0.00000000000E+00 0.  1.
         24    2    1    2    0    0  0.28144423172E+03 -0.38404409003E+03 -0.88789087802E+00  0.48264021752E+03  0.78994129974E+02 0.  0.
        254    2    1    2    0    0 -0.28144423172E+03  0.38404409003E+03 -0.21408062159E+04  0.23527487119E+04  0.85186532315E+03 0.  0.
         23    2    4    4    0    0  0.18459732121E+03 -0.11742434317E+03 -0.91575678731E+03  0.94642194075E+03  0.96121532754E+02 0.  0.
         23    2    4    4    0    0 -0.46604155292E+03  0.50146843320E+03 -0.12250494286E+04  0.14063267712E+04  0.91343123981E+02 0.  0.
          4    1    3    3  502    0  0.26721347566E+03 -0.38422029334E+03 -0.42196088178E+01  0.46802358967E+03  0.00000000000E+00 0. -1.
         -3    1    3    3    0  502  0.14230756051E+02  0.17620331024E+00  0.33317179397E+01  0.14616627853E+02  0.00000000000E+00 0.  1.
         11    1    5    5    0    0  0.85766217472E+02 -0.22236611653E+01 -0.28328767419E+03  0.29599441731E+03  0.00000000000E+00 0.  1.
        -11    1    5    5    0    0  0.98831103736E+02 -0.11520068200E+03 -0.63246911312E+03  0.65042752344E+03  0.00000000000E+00 0. -1.
          2    1    6    6  503    0 -0.20684559330E+03  0.28874257309E+03 -0.64522036370E+03  0.73652338097E+03  0.00000000000E+00 0. -1.
         -2    1    6    6    0  503 -0.25919595962E+03  0.21272586011E+03 -0.57982906486E+03  0.66980339018E+03  0.00000000000E+00 0.  1.
<mgrwt>
<rscale>  0 0.18581111E+04</rscale>
<asrwt>0</asrwt>
<pdfrwt beam="1">  1        2 0.53361139E-01 0.18581111E+04</pdfrwt>
<pdfrwt beam="2">  1       -1 0.38285255E+00 0.18581111E+04</pdfrwt>
<totfact> 0.94137584E-01</totfact>
</mgrwt>
</event>
<event>
12    6  0.1586493E-007  0.1852510E+04  0.7818608E-02  0.8678863E-01
         -1   -1    0    0    0  501 -0.00000000000E+00  0.00000000000E+00  0.20880602111E+03  0.20880602111E+03  0.00000000000E+00 0.  1.
          2   -1    0    0  501    0  0.00000000000E+00 -0.00000000000E+00 -0.41088292420E+04  0.41088292420E+04  0.00000000000E+00 0. -1.
         24    2    1    2    0    0 -0.64513522585E+02 -0.69697322390E+03 -0.17713582920E+04  0.19063482635E+04  0.80745486321E+02 0.  0.
        254    2    1    2    0    0  0.64513522585E+02  0.69697322390E+03 -0.21286649289E+04  0.24112869996E+04  0.89059359179E+03 0.  0.
         23    2    4    4    0    0 -0.91096634378E+02  0.76925607542E+03 -0.20648044342E+04  0.22071771017E+04  0.90332164985E+02 0.  0.
         23    2    4    4    0    0  0.15561015696E+03 -0.72282851515E+02 -0.63860494608E+02  0.20410989796E+03  0.90240545760E+02 0.  0.
          2    1    3    3  502    0  0.14423768739E+02 -0.53695733193E+02 -0.11588545740E+03  0.12853293782E+03  0.00000000000E+00 0. -1.
         -1    1    3    3    0  502 -0.78937291324E+02 -0.64327749071E+03 -0.16554728346E+04  0.17778153257E+04  0.00000000000E+00 0.  1.
         11    1    5    5    0    0 -0.26496415455E+02  0.44799070162E+02 -0.15881738159E+03  0.16712862536E+03  0.00000000000E+00 0.  1.
        -11    1    5    5    0    0 -0.64600218923E+02  0.72445700526E+03 -0.19059870527E+04  0.20400484763E+04  0.00000000000E+00 0. -1.
          3    1    6    6  503    0  0.10043581373E+03 -0.90386271460E+02 -0.52387771774E+02  0.14491897522E+03  0.00000000000E+00 0. -1.
         -3    1    6    6    0  503  0.55174343232E+02  0.18103419945E+02 -0.11472722834E+02  0.59190922733E+02  0.00000000000E+00 0.  1.
<mgrwt>
<rscale>  0 0.18525100E+04</rscale>
<asrwt>0</asrwt>
<pdfrwt beam="1">  1        2 0.63212756E+00 0.18525100E+04</pdfrwt>
<pdfrwt beam="2">  1       -1 0.32124004E-01 0.18525100E+04</pdfrwt>
<totfact> 0.27328486E+00</totfact>
</mgrwt>
</event>
<event>
12    6  0.1586493E-007  0.1834060E+04  0.7818608E-02  0.8688394E-01
          2   -1    0    0  501    0  0.00000000000E+00  0.00000000000E+00  0.24723417402E+04  0.24723417402E+04  0.00000000000E+00 0. -1.
         -1   -1    0    0    0  501 -0.00000000000E+00 -0.00000000000E+00 -0.34014064046E+03  0.34014064046E+03  0.00000000000E+00 0.  1.
         24    2    1    2    0    0  0.38134867837E+03  0.35286453471E+03  0.15385568088E+04  0.16259166755E+04  0.80670858431E+02 0.  0.
        254    2    1    2    0    0 -0.38134867837E+03 -0.35286453471E+03  0.59364429087E+03  0.11865657051E+04  0.88633201119E+03 0.  0.
         23    2    4    4    0    0 -0.62187805493E+03 -0.12497015604E+03  0.21782592267E+03  0.67728020194E+03  0.94395361381E+02 0.  0.
         23    2    4    4    0    0  0.24052937656E+03 -0.22789437867E+03  0.37581836820E+03  0.50928550315E+03  0.91334818238E+02 0.  0.
          4    1    3    3  502    0  0.28830371727E+03  0.27273175159E+03  0.12711768080E+04  0.13316876957E+04  0.00000000000E+00 0. -1.
         -3    1    3    3    0  502  0.93044961101E+02  0.80132783124E+02  0.26738000084E+03  0.29422897982E+03  0.00000000000E+00 0.  1.
         11    1    5    5    0    0 -0.43925984665E+03 -0.11551353258E+03  0.11947015272E+03  0.46964423395E+03  0.00000000000E+00 0.  1.
        -11    1    5    5    0    0 -0.18261820828E+03 -0.94566234609E+01  0.98355769950E+02  0.20763596799E+03  0.00000000000E+00 0. -1.
          1    1    6    6  503    0  0.42455010993E+02 -0.92854042565E+02  0.13742638765E+03  0.17120255022E+03  0.00000000000E+00 0. -1.
         -1    1    6    6    0  503  0.19807436557E+03 -0.13504033611E+03  0.23839198055E+03  0.33808295293E+03  0.00000000000E+00 0.  1.
<mgrwt>
<rscale>  0 0.18340599E+04</rscale>
<asrwt>0</asrwt>
<pdfrwt beam="1">  1        2 0.38036026E+00 0.18340599E+04</pdfrwt>
<pdfrwt beam="2">  1       -1 0.52329331E-01 0.18340599E+04</pdfrwt>
<totfact> 0.14256558E+01</totfact>
</mgrwt>
</event>
<event>
12    6  0.1586493E-007  0.3604618E+04  0.7818608E-02  0.8089435E-01
         -1   -1    0    0    0  501 -0.00000000000E+00  0.00000000000E+00  0.11368377200E+04  0.11368377200E+04  0.00000000000E+00 0.  1.
          2   -1    0    0  501    0  0.00000000000E+00 -0.00000000000E+00 -0.28573280765E+04  0.28573280765E+04  0.00000000000E+00 0. -1.
         24    2    1    2    0    0 -0.93841770262E+03 -0.28185974658E+03 -0.23257230844E+04  0.25249532858E+04  0.79552048738E+02 0.  0.
        254    2    1    2    0    0  0.93841770262E+03  0.28185974658E+03  0.60523272789E+03  0.14692125107E+04  0.91225327917E+03 0.  0.
         23    2    4    4    0    0  0.82904191160E+03 -0.15044767707E+03  0.22759959879E+03  0.87775423577E+03  0.93305553525E+02 0.  0.
         23    2    4    4    0    0  0.10937579102E+03  0.43230742366E+03  0.37763312910E+03  0.59145827494E+03  0.91451290790E+02 0.  0.
          2    1    3    3  502    0 -0.55087474542E+03 -0.16629157346E+03 -0.14650821973E+04  0.15740335820E+04  0.00000000000E+00 0. -1.
         -1    1    3    3    0  502 -0.38754295720E+03 -0.11556817312E+03 -0.86064088718E+03  0.95091970376E+03  0.00000000000E+00 0.  1.
         11    1    5    5    0    0  0.50665741646E+03 -0.10365059040E+03  0.18486605169E+03  0.54919999964E+03  0.00000000000E+00 0. -1.
        -11    1    5    5    0    0  0.32238449514E+03 -0.46797086675E+02  0.42733547102E+02  0.32855423613E+03  0.00000000000E+00 0.  1.
          4    1    6    6  503    0  0.26119365211E+02  0.16260404437E+02  0.21858556403E+02  0.37741468963E+02  0.00000000000E+00 0. -1.
         -4    1    6    6    0  503  0.83256425814E+02  0.41604701922E+03  0.35577457269E+03  0.55371680597E+03  0.00000000000E+00 0.  1.
<mgrwt>
<rscale>  0 0.36046183E+04</rscale>
<asrwt>0</asrwt>
<pdfrwt beam="1">  1        2 0.43958893E+00 0.36046183E+04</pdfrwt>
<pdfrwt beam="2">  1       -1 0.17489811E+00 0.36046183E+04</pdfrwt>
<totfact> 0.44719963E-01</totfact>
</mgrwt>
</event>
<event>
12    6  0.1586493E-007  0.1422720E+04  0.7818608E-02  0.8937535E-01
         -1   -1    0    0    0  501 -0.00000000000E+00  0.00000000000E+00  0.44738148283E+03  0.44738148283E+03  0.00000000000E+00 0.  1.
          2   -1    0    0  501    0  0.00000000000E+00 -0.00000000000E+00 -0.11310990096E+04  0.11310990096E+04  0.00000000000E+00 0. -1.
         24    2    1    2    0    0 -0.81295461844E+02 -0.33862481349E+03  0.56670589499E+01  0.35798310281E+03  0.82728894087E+02 0.  0.
        254    2    1    2    0    0  0.81295461844E+02  0.33862481349E+03 -0.68938458568E+03  0.12204973896E+04  0.94503283253E+03 0.  0.
         23    2    4    4    0    0  0.24599271852E+03 -0.25192340034E+03 -0.39093715004E+03  0.53293011559E+03  0.84881303132E+02 0.  0.
         23    2    4    4    0    0 -0.16469725668E+03  0.59054821382E+03 -0.29844743564E+03  0.68756727399E+03  0.88348770289E+02 0.  0.
          2    1    3    3  502    0 -0.36675012061E+01 -0.91196204639E+02  0.33388407266E+02  0.97185307765E+02  0.00000000000E+00 0. -1.
         -1    1    3    3    0  502 -0.77627960638E+02 -0.24742860885E+03 -0.27721348316E+02  0.26079779505E+03  0.00000000000E+00 0.  1.
         11    1    5    5    0    0  0.39260674217E+02 -0.22548501916E+02 -0.94953313680E+02  0.10519490129E+03  0.00000000000E+00 0. -1.
        -11    1    5    5    0    0  0.20673204430E+03 -0.22937489842E+03 -0.29598383635E+03  0.42773521430E+03  0.00000000000E+00 0.  1.
          3    1    6    6  503    0 -0.12048083387E+02  0.10185804077E+03 -0.19073012907E+02  0.10432639457E+03  0.00000000000E+00 0. -1.
         -3    1    6    6    0  503 -0.15264917329E+03  0.48869017305E+03 -0.27937442274E+03  0.58324087942E+03  0.00000000000E+00 0.  1.
<mgrwt>
<rscale>  0 0.14227196E+04</rscale>
<asrwt>0</asrwt>
<pdfrwt beam="1">  1        2 0.17401523E+00 0.14227196E+04</pdfrwt>
<pdfrwt beam="2">  1       -1 0.68827920E-01 0.14227196E+04</pdfrwt>
<totfact> 0.49353734E+01</totfact>
</mgrwt>
</event>
<event>
12    6  0.1586493E-007  0.1403126E+04  0.7818608E-02  0.8951559E-01
          2   -1    0    0  501    0  0.00000000000E+00  0.00000000000E+00  0.19023295900E+04  0.19023295900E+04  0.00000000000E+00 0. -1.
         -1   -1    0    0    0  501 -0.00000000000E+00 -0.00000000000E+00 -0.25873059055E+03  0.25873059055E+03  0.00000000000E+00 0.  1.
         24    2    1    2    0    0 -0.53993257845E+02  0.77408526319E+02  0.10955797226E+04  0.11029246019E+04  0.85090523114E+02 0.  0.
        254    2    1    2    0    0  0.53993257845E+02 -0.77408526319E+02  0.54801927685E+03  0.10581355786E+04  0.90023242727E+03 0.  0.
         23    2    4    4    0    0  0.21580693254E+03 -0.10732891966E+03  0.74346811557E+03  0.78684806923E+03  0.91065449257E+02 0.  0.
         23    2    4    4    0    0 -0.16181367469E+03  0.29920393344E+02 -0.19544883873E+03  0.27128750939E+03  0.91201803362E+02 0.  0.
          4    1    3    3  502    0 -0.38706124808E+02  0.90984769419E+02  0.71602428557E+03  0.72281890532E+03  0.00000000000E+00 0. -1.
         -3    1    3    3    0  502 -0.15287133037E+02 -0.13576243099E+02  0.37955543700E+03  0.38010569658E+03  0.00000000000E+00 0.  1.
         11    1    5    5    0    0  0.14056681989E+03 -0.73147482397E+02  0.60669309839E+03  0.62704553317E+03  0.00000000000E+00 0. -1.
        -11    1    5    5    0    0  0.75240112653E+02 -0.34181437266E+02  0.13677501718E+03  0.15980253606E+03  0.00000000000E+00 0.  1.
          2    1    6    6  503    0 -0.16571849304E+03  0.45232071262E+02 -0.18433912681E+03  0.25197117470E+03  0.00000000000E+00 0. -1.
         -2    1    6    6    0  503  0.39048183496E+01 -0.15311677918E+02 -0.11109711917E+02  0.19316334690E+02  0.00000000000E+00 0.  1.
<mgrwt>
<rscale>  0 0.14031263E+04</rscale>
<asrwt>0</asrwt>
<pdfrwt beam="1">  1        2 0.29266608E+00 0.14031263E+04</pdfrwt>
<pdfrwt beam="2">  1       -1 0.39804707E-01 0.14031263E+04</pdfrwt>
<totfact> 0.51593285E+01</totfact>
</mgrwt>
</event>
<event>
12    6  0.1586493E-007  0.1185808E+04  0.7818608E-02  0.9125370E-01
          2   -1    0    0  501    0  0.00000000000E+00  0.00000000000E+00  0.18671980902E+04  0.18671980902E+04  0.00000000000E+00 0. -1.
         -1   -1    0    0    0  501 -0.00000000000E+00 -0.00000000000E+00 -0.18826892847E+03  0.18826892847E+03  0.00000000000E+00 0.  1.
         24    2    1    2    0    0  0.12269193460E+03  0.20025477218E+03  0.39177623043E+03  0.46384008648E+03  0.80645684950E+02 0.  0.
        254    2    1    2    0    0 -0.12269193460E+03 -0.20025477218E+03  0.12871529313E+04  0.15916269322E+04  0.90628822019E+03 0.  0.
         23    2    4    4    0    0 -0.13371069899E+03 -0.48418249186E+03  0.11609266988E+04  0.12682284119E+04  0.91330544248E+02 0.  0.
         23    2    4    4    0    0  0.11018764386E+02  0.28392771967E+03  0.12622623251E+03  0.32339852028E+03  0.88978525397E+02 0.  0.
          2    1    3    3  502    0  0.13155428402E+03  0.19991223393E+03  0.37480467896E+03  0.44469087948E+03  0.00000000000E+00 0. -1.
         -1    1    3    3    0  502 -0.88623494197E+01  0.34253825092E+00  0.16971551462E+02  0.19149207000E+02  0.00000000000E+00 0.  1.
         11    1    5    5    0    0 -0.24427899009E+02 -0.25787512878E+03  0.57149864817E+03  0.62746076304E+03  0.00000000000E+00 0. -1.
        -11    1    5    5    0    0 -0.10928279998E+03 -0.22630736307E+03  0.58942805060E+03  0.64076764883E+03  0.00000000000E+00 0.  1.
          3    1    6    6  503    0 -0.33736897575E+02  0.16580017409E+03  0.91671794128E+02  0.19243594733E+03  0.00000000000E+00 0. -1.
         -3    1    6    6    0  503  0.44755661961E+02  0.11812754559E+03  0.34554438380E+02  0.13096257296E+03  0.00000000000E+00 0.  1.
<mgrwt>
<rscale>  0 0.11858084E+04</rscale>
<asrwt>0</asrwt>
<pdfrwt beam="1">  1        2 0.28726123E+00 0.11858084E+04</pdfrwt>
<pdfrwt beam="2">  1       -1 0.28964452E-01 0.11858084E+04</pdfrwt>
<totfact> 0.96747439E+01</totfact>
</mgrwt>
</event>
<event>
12    6  0.1586493E-007  0.1382666E+04  0.7818608E-02  0.8966462E-01
         -1   -1    0    0    0  501 -0.00000000000E+00  0.00000000000E+00  0.45769877992E+03  0.45769877992E+03  0.00000000000E+00 0.  1.
          2   -1    0    0  501    0  0.00000000000E+00 -0.00000000000E+00 -0.10442266117E+04  0.10442266117E+04  0.00000000000E+00 0. -1.
         24    2    1    2    0    0 -0.12164572077E+03 -0.29482055246E+03  0.71751835629E+02  0.34205985356E+03  0.10069646454E+03 0.  0.
        254    2    1    2    0    0  0.12164572077E+03  0.29482055246E+03 -0.65827966743E+03  0.11598655381E+04  0.90013282705E+03 0.  0.
         23    2    4    4    0    0 -0.15065287133E+03  0.15224059038E+02 -0.73110202534E+03  0.75196315871E+03  0.89500620083E+02 0.  0.
         23    2    4    4    0    0  0.27229859211E+03  0.27959649342E+03  0.72822357910E+02  0.40790237936E+03  0.93597718361E+02 0.  0.
          2    1    3    3  502    0 -0.48312325645E+02 -0.85880687459E+02 -0.23029181608E+02  0.10119247251E+03  0.00000000000E+00 0. -1.
         -1    1    3    3    0  502 -0.73333395129E+02 -0.20893986500E+03  0.94781017237E+02  0.24086738105E+03  0.00000000000E+00 0.  1.
         11    1    5    5    0    0 -0.37269755173E+02  0.42882773280E+02 -0.30059377247E+03  0.30591597367E+03  0.00000000000E+00 0. -1.
        -11    1    5    5    0    0 -0.11338311616E+03 -0.27658714242E+02 -0.43050825286E+03  0.44604718505E+03  0.00000000000E+00 0.  1.
          3    1    6    6  503    0  0.18651986055E+03  0.16742158343E+03  0.88538807705E+02  0.26581716545E+03  0.00000000000E+00 0. -1.
         -3    1    6    6    0  503  0.85778731561E+02  0.11217490999E+03 -0.15716449796E+02  0.14208521392E+03  0.00000000000E+00 0.  1.
<mgrwt>
<rscale>  0 0.13826659E+04</rscale>
<asrwt>0</asrwt>
<pdfrwt beam="1">  1        2 0.16065025E+00 0.13826659E+04</pdfrwt>
<pdfrwt beam="2">  1       -1 0.70415198E-01 0.13826659E+04</pdfrwt>
<totfact> 0.53494067E+01</totfact>
</mgrwt>
</event>
<event>
12    6  0.1721907E-007  0.1775437E+04  0.7818608E-02  0.8719472E-01
          2   -1    0    0  501    0  0.00000000000E+00  0.00000000000E+00  0.97448273482E+03  0.97448273482E+03  0.00000000000E+00 0. -1.
         -1   -1    0    0    0  501 -0.00000000000E+00 -0.00000000000E+00 -0.80867920707E+03  0.80867920707E+03  0.00000000000E+00 0.  1.
         24    2    1    2    0    0 -0.30589744056E+03 -0.35123054916E+03 -0.40838170988E+03  0.62458094772E+03  0.79934951613E+02 0.  0.
        254    2    1    2    0    0  0.30589744056E+03  0.35123054916E+03  0.57418523763E+03  0.11585809942E+04  0.89201182174E+03 0.  0.
         23    2    4    4    0    0 -0.12702965470E+03  0.49625915255E+03  0.18796000816E+03  0.55344523619E+03  0.92536398983E+02 0.  0.
         23    2    4    4    0    0  0.43292709526E+03 -0.14502860339E+03  0.38622522947E+03  0.60513575798E+03  0.92521306156E+02 0.  0.
          4    1    3    3  502    0 -0.70111318502E+01  0.26051420916E+01 -0.64781245558E+00  0.75074893351E+01  0.00000000000E+00 0. -1.
         -3    1    3    3    0  502 -0.29888630871E+03 -0.35383569126E+03 -0.40773389742E+03  0.61707345839E+03  0.00000000000E+00 0.  1.
         11    1    5    5    0    0  0.13026053095E+02  0.29015380435E+02  0.36979488293E+01  0.32019450129E+02  0.00000000000E+00 0. -1.
        -11    1    5    5    0    0 -0.14005570779E+03  0.46724377212E+03  0.18426205933E+03  0.52142578607E+03  0.00000000000E+00 0.  1.
          3    1    6    6  503    0 -0.15111187849E+01  0.21570789450E+01 -0.26850943073E+01  0.37611435756E+01  0.00000000000E+00 0. -1.
         -3    1    6    6    0  503  0.43443821404E+03 -0.14718568233E+03  0.38891032378E+03  0.60137461440E+03  0.00000000000E+00 0.  1.
<mgrwt>
<rscale>  0 0.17754368E+04</rscale>
<asrwt>0</asrwt>
<pdfrwt beam="1">  1        2 0.14992042E+00 0.17754368E+04</pdfrwt>
<pdfrwt beam="2">  1       -1 0.12441219E+00 0.17754368E+04</pdfrwt>
<totfact> 0.15991994E+01</totfact>
</mgrwt>
</event>
<event>
12    6  0.1586493E-007  0.1698710E+04  0.7818608E-02  0.8762100E-01
         -1   -1    0    0    0  501 -0.00000000000E+00  0.00000000000E+00  0.90117067680E+03  0.90117067680E+03  0.00000000000E+00 0.  1.
          2   -1    0    0  501    0  0.00000000000E+00 -0.00000000000E+00 -0.80051870682E+03  0.80051870682E+03  0.00000000000E+00 0. -1.
         24    2    1    2    0    0  0.27922656034E+01 -0.29927895689E+03 -0.50735031206E+03  0.59446922029E+03  0.80085104334E+02 0.  0.
        254    2    1    2    0    0 -0.27922656034E+01  0.29927895689E+03  0.60800228203E+03  0.11072201633E+04  0.87561065798E+03 0.  0.
         23    2    4    4    0    0  0.31012354830E+03 -0.14191095823E+03  0.36465732934E+03  0.50721522063E+03  0.89313923499E+02 0.  0.
         23    2    4    4    0    0 -0.31291581390E+03  0.44118991512E+03  0.24334495270E+03  0.60000494271E+03  0.90688022790E+02 0.  0.
          2    1    3    3  502    0  0.65378942450E+01 -0.28185172696E+03 -0.50218532866E+03  0.57591079550E+03  0.00000000000E+00 0. -1.
         -1    1    3    3    0  502 -0.37456286415E+01 -0.17427229929E+02 -0.51649833950E+01  0.18558424782E+02  0.00000000000E+00 0.  1.
         11    1    5    5    0    0  0.84022072369E+01  0.39647769780E+01  0.38364023370E+02  0.39472963305E+02  0.00000000000E+00 0. -1.
        -11    1    5    5    0    0  0.30172134106E+03 -0.14587573521E+03  0.32629330597E+03  0.46774225733E+03  0.00000000000E+00 0.  1.
          1    1    6    6  503    0 -0.36060938427E+02  0.13712306693E+02  0.10374905715E+02  0.39950685898E+02  0.00000000000E+00 0. -1.
         -1    1    6    6    0  503 -0.27685487547E+03  0.42747760843E+03  0.23297004698E+03  0.56005425681E+03  0.00000000000E+00 0.  1.
<mgrwt>
<rscale>  0 0.16987101E+04</rscale>
<asrwt>0</asrwt>
<pdfrwt beam="1">  1        2 0.12315672E+00 0.16987101E+04</pdfrwt>
<pdfrwt beam="2">  1       -1 0.13864164E+00 0.16987101E+04</pdfrwt>
<totfact> 0.16078893E+01</totfact>
</mgrwt>
</event>
<event>
12    6  0.1800640E-007  0.2514200E+04  0.7818608E-02  0.8397944E-01
         -1   -1    0    0    0  501 -0.00000000000E+00  0.00000000000E+00  0.13836051248E+04  0.13836051248E+04  0.00000000000E+00 0.  1.
          2   -1    0    0  501    0  0.00000000000E+00 -0.00000000000E+00 -0.11421614386E+04  0.11421614386E+04  0.00000000000E+00 0. -1.
         24    2    1    2    0    0  0.75348982961E+03 -0.55540566723E+03  0.67346563584E+03  0.11567076292E+04  0.90521810718E+02 0.  0.
        254    2    1    2    0    0 -0.75348982961E+03  0.55540566723E+03 -0.43202194964E+03  0.13690589342E+04  0.90080909284E+03 0.  0.
         23    2    4    4    0    0 -0.82027482808E+03  0.59496627019E+03 -0.10548246393E+03  0.10227808767E+04  0.90102804530E+02 0.  0.
         23    2    4    4    0    0  0.66784998461E+02 -0.39560602962E+02 -0.32653948571E+03  0.34627805744E+03  0.85177344465E+02 0.  0.
          4    1    3    3  502    0  0.13933449412E+02  0.12646642382E+01  0.16415497841E+02  0.21568703195E+02  0.00000000000E+00 0. -1.
         -3    1    3    3    0  502  0.73955638020E+03 -0.55667033147E+03  0.65705013800E+03  0.11351389260E+04  0.00000000000E+00 0.  1.
         11    1    5    5    0    0 -0.70588639311E+02  0.49441859666E+02  0.16132636460E+02  0.87678477668E+02  0.00000000000E+00 0. -1.
        -11    1    5    5    0    0 -0.74968618876E+03  0.54552441053E+03 -0.12161510039E+03  0.93510239907E+03  0.00000000000E+00 0.  1.
          4    1    6    6  503    0 -0.18642134105E+02 -0.63802726830E+01 -0.99646237885E+02  0.10157563570E+03  0.00000000000E+00 0. -1.
         -4    1    6    6    0  503  0.85427132566E+02 -0.33180330278E+02 -0.22689324782E+03  0.24470242173E+03  0.00000000000E+00 0.  1.
<mgrwt>
<rscale>  0 0.25142000E+04</rscale>
<asrwt>0</asrwt>
<pdfrwt beam="1">  1        2 0.17571715E+00 0.25142000E+04</pdfrwt>
<pdfrwt beam="2">  1       -1 0.21286233E+00 0.25142000E+04</pdfrwt>
<totfact> 0.25622422E+00</totfact>
</mgrwt>
</event>
<event>
12    6  0.1586493E-007  0.1074990E+04  0.7818608E-02  0.9229917E-01
         -1   -1    0    0    0  501 -0.00000000000E+00  0.00000000000E+00  0.42111330815E+03  0.42111330815E+03  0.00000000000E+00 0.  1.
          2   -1    0    0  501    0  0.00000000000E+00 -0.00000000000E+00 -0.68604081932E+03  0.68604081932E+03  0.00000000000E+00 0. -1.
         24    2    1    2    0    0 -0.11347391292E+03 -0.52123554544E+02 -0.23813895044E+02  0.15236869961E+03  0.83999554593E+02 0.  0.
        254    2    1    2    0    0  0.11347391292E+03  0.52123554544E+02 -0.24111361612E+03  0.95478542786E+03  0.91536126394E+03 0.  0.
         23    2    4    4    0    0  0.12652371711E+03  0.65743936666E+02  0.33300218905E+03  0.37328651807E+03  0.90121309705E+02 0.  0.
         23    2    4    4    0    0 -0.13049804194E+02 -0.13620382122E+02 -0.57411580517E+03  0.58149890979E+03  0.90422409498E+02 0.  0.
          2    1    3    3  502    0 -0.83823435009E+02 -0.40742343524E+02 -0.54700365477E+02  0.10806681635E+03  0.00000000000E+00 0. -1.
         -1    1    3    3    0  502 -0.29650477909E+02 -0.11381211020E+02  0.30886470433E+02  0.44301883259E+02  0.00000000000E+00 0.  1.
         11    1    5    5    0    0 -0.12027949673E+02 -0.49871275678E+01  0.29241275499E+02  0.32009298767E+02  0.00000000000E+00 0. -1.
        -11    1    5    5    0    0  0.13855166678E+03  0.70731064234E+02  0.30376091355E+03  0.34127721930E+03  0.00000000000E+00 0.  1.
          1    1    6    6  503    0  0.11566684943E+02 -0.29263136192E+02 -0.72476335350E+02  0.79012268200E+02  0.00000000000E+00 0. -1.
         -1    1    6    6    0  503 -0.24616489137E+02  0.15642754070E+02 -0.50163946982E+03  0.50248664159E+03  0.00000000000E+00 0.  1.
<mgrwt>
<rscale>  0 0.10749901E+04</rscale>
<asrwt>0</asrwt>
<pdfrwt beam="1">  1        2 0.10554474E+00 0.10749901E+04</pdfrwt>
<pdfrwt beam="2">  1       -1 0.64786663E-01 0.10749901E+04</pdfrwt>
<totfact> 0.11533401E+02</totfact>
</mgrwt>
</event>
<event>
12    6  0.1586493E-007  0.1802539E+04  0.7818608E-02  0.8704951E-01
          2   -1    0    0  501    0  0.00000000000E+00  0.00000000000E+00  0.16823490652E+04  0.16823490652E+04  0.00000000000E+00 0. -1.
         -1   -1    0    0    0  501 -0.00000000000E+00 -0.00000000000E+00 -0.48282880505E+03  0.48282880505E+03  0.00000000000E+00 0.  1.
         24    2    1    2    0    0 -0.57349330338E+03  0.18635276022E+03  0.10462516574E+03  0.61730727747E+03  0.80622138656E+02 0.  0.
        254    2    1    2    0    0  0.57349330338E+03 -0.18635276022E+03  0.10948950944E+04  0.15478705928E+04  0.91295464510E+03 0.  0.
         23    2    4    4    0    0  0.58576591854E+03 -0.49493648014E+03  0.75134856547E+03  0.10770910323E+04  0.86698295120E+02 0.  0.
         23    2    4    4    0    0 -0.12272615157E+02  0.30858371992E+03  0.34354652893E+03  0.47077956047E+03  0.90744959820E+02 0.  0.
          4    1    3    3  502    0 -0.20190813405E+03  0.34432331335E+02  0.11148666208E+02  0.20512623624E+03  0.00000000000E+00 0. -1.
         -3    1    3    3    0  502 -0.37158516933E+03  0.15192042889E+03  0.93476499534E+02  0.41218104123E+03  0.00000000000E+00 0.  1.
         11    1    5    5    0    0  0.37238311214E+03 -0.30502468793E+03  0.52797304243E+03  0.71446817703E+03  0.00000000000E+00 0.  1.
        -11    1    5    5    0    0  0.21338280639E+03 -0.18991179221E+03  0.22337552304E+03  0.36262285529E+03  0.00000000000E+00 0. -1.
          3    1    6    6  503    0 -0.35901478097E+02  0.10045707909E+03  0.15984096982E+03  0.19217095645E+03  0.00000000000E+00 0. -1.
         -3    1    6    6    0  503  0.23628862940E+02  0.20812664083E+03  0.18370555911E+03  0.27860860402E+03  0.00000000000E+00 0.  1.
<mgrwt>
<rscale>  0 0.18025389E+04</rscale>
<asrwt>0</asrwt>
<pdfrwt beam="1">  1        2 0.25882293E+00 0.18025389E+04</pdfrwt>
<pdfrwt beam="2">  1       -1 0.74281356E-01 0.18025389E+04</pdfrwt>
<totfact> 0.19675397E+01</totfact>
</mgrwt>
</event>
<event>
12    6  0.1586493E-007  0.1159264E+04  0.7818608E-02  0.9149279E-01
          2   -1    0    0  501    0  0.00000000000E+00  0.00000000000E+00  0.20946345132E+04  0.20946345132E+04  0.00000000000E+00 0. -1.
         -1   -1    0    0    0  501 -0.00000000000E+00 -0.00000000000E+00 -0.16039717982E+03  0.16039717982E+03  0.00000000000E+00 0.  1.
         24    2    1    2    0    0 -0.13435234422E+03  0.90762556068E+02  0.11252900635E+03  0.21284008217E+03  0.79685188865E+02 0.  0.
        254    2    1    2    0    0  0.13435234422E+03 -0.90762556068E+02  0.18217083270E+04  0.20421916108E+04  0.90864566949E+03 0.  0.
         23    2    4    4    0    0  0.23787911520E+03 -0.34558816113E+02  0.18689614427E+04  0.18865500951E+04  0.90959342654E+02 0.  0.
         23    2    4    4    0    0 -0.10352677098E+03 -0.56203739955E+02 -0.47253115676E+02  0.15564151569E+03  0.90082028019E+02 0.  0.
          4    1    3    3  502    0 -0.72963761430E+02  0.60761056661E+01  0.65180565023E+02  0.98026198533E+02  0.00000000000E+00 0. -1.
         -3    1    3    3    0  502 -0.61388582790E+02  0.84686450402E+02  0.47348441328E+02  0.11481388363E+03  0.00000000000E+00 0.  1.
         11    1    5    5    0    0  0.70879331207E+01 -0.10600068342E+02  0.25167249504E+02  0.28213307009E+02  0.00000000000E+00 0. -1.
        -11    1    5    5    0    0  0.23079118208E+03 -0.23958747771E+02  0.18437941932E+04  0.18583367881E+04  0.00000000000E+00 0.  1.
          2    1    6    6  503    0 -0.52873703419E+02 -0.69451785244E+00  0.18264908529E+02  0.55943880379E+02  0.00000000000E+00 0. -1.
         -2    1    6    6    0  503 -0.50653067561E+02 -0.55509222102E+02 -0.65518024205E+02  0.99697635316E+02  0.00000000000E+00 0.  1.
<mgrwt>
<rscale>  0 0.11592644E+04</rscale>
<asrwt>0</asrwt>
<pdfrwt beam="1">  1        2 0.32225144E+00 0.11592644E+04</pdfrwt>
<pdfrwt beam="2">  1       -1 0.24676491E-01 0.11592644E+04</pdfrwt>
<totfact> 0.95740564E+01</totfact>
</mgrwt>
</event>
<event>
12    6  0.1586493E-007  0.2122566E+04  0.7818608E-02  0.8551368E-01
          2   -1    0    0  501    0  0.00000000000E+00  0.00000000000E+00  0.27225189827E+04  0.27225189827E+04  0.00000000000E+00 0. -1.
         -1   -1    0    0    0  501 -0.00000000000E+00 -0.00000000000E+00 -0.41370563030E+03  0.41370563030E+03  0.00000000000E+00 0.  1.
         24    2    1    2    0    0  0.25220029433E+03  0.56027493124E+03  0.41382655435E+02  0.62126296624E+03  0.82110669354E+02 0.  0.
        254    2    1    2    0    0 -0.25220029433E+03 -0.56027493124E+03  0.22674306969E+04  0.25149616467E+04  0.89792935806E+03 0.  0.
         23    2    4    4    0    0  0.24317414570E+03  0.55367428524E+02  0.83870997236E+03  0.87950963600E+03  0.88901995440E+02 0.  0.
         23    2    4    4    0    0 -0.49537444003E+03 -0.61564235976E+03  0.14287207246E+04  0.16354520107E+04  0.95126334969E+02 0.  0.
          2    1    3    3  502    0  0.17420720772E+03  0.35071587011E+03 -0.10423935845E+02  0.39173770715E+03  0.00000000000E+00 0. -1.
         -1    1    3    3    0  502  0.77993086611E+02  0.20955906113E+03  0.51806591280E+02  0.22952525909E+03  0.00000000000E+00 0.  1.
         11    1    5    5    0    0  0.86754712019E+02  0.55530641656E+02  0.25035667886E+03  0.27071848638E+03  0.00000000000E+00 0.  1.
        -11    1    5    5    0    0  0.15641943368E+03 -0.16321313199E+00  0.58835329351E+03  0.60879114962E+03  0.00000000000E+00 0. -1.
          4    1    6    6  503    0 -0.48793175231E+03 -0.60934328409E+03  0.13775214456E+04  0.15833325506E+04  0.00000000000E+00 0.  1.
         -4    1    6    6    0  503 -0.74426877206E+01 -0.62990756737E+01  0.51199278930E+02  0.52119460068E+02  0.00000000000E+00 0. -1.
<mgrwt>
<rscale>  0 0.21225658E+04</rscale>
<asrwt>0</asrwt>
<pdfrwt beam="1">  1        2 0.41884906E+00 0.21225658E+04</pdfrwt>
<pdfrwt beam="2">  1       -1 0.63647022E-01 0.21225658E+04</pdfrwt>
<totfact> 0.67525097E+00</totfact>
</mgrwt>
</event>
<event>
12    6  0.1586493E-007  0.1456664E+04  0.7818608E-02  0.8913794E-01
         -1   -1    0    0    0  501 -0.00000000000E+00  0.00000000000E+00  0.38873086183E+03  0.38873086183E+03  0.00000000000E+00 0.  1.
          2   -1    0    0  501    0  0.00000000000E+00 -0.00000000000E+00 -0.13646133200E+04  0.13646133200E+04  0.00000000000E+00 0. -1.
         24    2    1    2    0    0 -0.41999533996E+03 -0.14145494107E+03 -0.36272382950E+03  0.57800970188E+03  0.78237158864E+02 0.  0.
        254    2    1    2    0    0  0.41999533996E+03  0.14145494107E+03 -0.61315862866E+03  0.11753344799E+04  0.89946764805E+03 0.  0.
         23    2    4    4    0    0  0.13121166450E+03  0.19357704231E+03 -0.78451386001E+03  0.82380447335E+03  0.92213022672E+02 0.  0.
         23    2    4    4    0    0  0.28878367547E+03 -0.52122101240E+02  0.17135523136E+03  0.35153000659E+03  0.89988919125E+02 0.  0.
          2    1    3    3  502    0 -0.12956912530E+03 -0.44479255379E+02 -0.16075863570E+03  0.21121056162E+03  0.00000000000E+00 0. -1.
         -1    1    3    3    0  502 -0.29042621467E+03 -0.96975685689E+02 -0.20196519381E+03  0.36679914025E+03  0.00000000000E+00 0.  1.
         11    1    5    5    0    0  0.64106567841E+02  0.39560978622E+02 -0.34839929115E+03  0.35645026181E+03  0.00000000000E+00 0. -1.
        -11    1    5    5    0    0  0.67105096657E+02  0.15401606369E+03 -0.43611456886E+03  0.46735421154E+03  0.00000000000E+00 0.  1.
          1    1    6    6  503    0  0.19162887840E+03 -0.73832370595E+02  0.96090140560E+02  0.22672926828E+03  0.00000000000E+00 0. -1.
         -1    1    6    6    0  503  0.97154797071E+02  0.21710269355E+02  0.75265090795E+02  0.12480073831E+03  0.00000000000E+00 0.  1.
<mgrwt>
<rscale>  0 0.14566637E+04</rscale>
<asrwt>0</asrwt>
<pdfrwt beam="1">  1        2 0.20994051E+00 0.14566637E+04</pdfrwt>
<pdfrwt beam="2">  1       -1 0.59804747E-01 0.14566637E+04</pdfrwt>
<totfact> 0.47490522E+01</totfact>
</mgrwt>
</event>
<event>
12    6  0.1586493E-007  0.1002030E+04  0.7818608E-02  0.9306321E-01
          2   -1    0    0  501    0  0.00000000000E+00  0.00000000000E+00  0.41278538173E+03  0.41278538173E+03  0.00000000000E+00 0. -1.
         -1   -1    0    0    0  501 -0.00000000000E+00 -0.00000000000E+00 -0.60810286200E+03  0.60810286200E+03  0.00000000000E+00 0.  1.
         24    2    1    2    0    0 -0.18420673929E+02  0.74131528330E+02 -0.81323361320E+02  0.13778742025E+03  0.80852206909E+02 0.  0.
        254    2    1    2    0    0  0.18420673929E+02 -0.74131528330E+02 -0.11399411895E+03  0.88310082348E+03  0.87237469046E+03 0.  0.
         23    2    4    4    0    0 -0.23168181675E+03 -0.24926879951E+03 -0.34126749789E+03  0.49127006072E+03  0.95243733763E+02 0.  0.
         23    2    4    4    0    0  0.25010249068E+03  0.17513727118E+03  0.22727337895E+03  0.39183076276E+03  0.93026008570E+02 0.  0.
          4    1    3    3  502    0  0.10468489273E+02  0.79885368296E+02 -0.50165396305E+02  0.94909579716E+02  0.00000000000E+00 0. -1.
         -3    1    3    3    0  502 -0.28889163203E+02 -0.57538399661E+01 -0.31157965015E+02  0.42877840533E+02  0.00000000000E+00 0.  1.
         11    1    5    5    0    0 -0.39715140651E+02 -0.10780542252E+03 -0.10753236348E+03  0.15736108387E+03  0.00000000000E+00 0. -1.
        -11    1    5    5    0    0 -0.19196667610E+03 -0.14146337699E+03 -0.23373513441E+03  0.33390897685E+03  0.00000000000E+00 0.  1.
          3    1    6    6  503    0  0.30554692659E+02  0.58132440964E+02  0.76938306171E+02  0.10115568641E+03  0.00000000000E+00 0. -1.
         -3    1    6    6    0  503  0.21954779802E+03  0.11700483021E+03  0.15033507278E+03  0.29067507636E+03  0.00000000000E+00 0.  1.
<mgrwt>
<rscale>  0 0.10020299E+04</rscale>
<asrwt>0</asrwt>
<pdfrwt beam="1">  1        2 0.63505444E-01 0.10020299E+04</pdfrwt>
<pdfrwt beam="2">  1       -1 0.93554286E-01 0.10020299E+04</pdfrwt>
<totfact> 0.97223184E+01</totfact>
</mgrwt>
</event>
<event>
12    6  0.1586493E-007  0.1938096E+04  0.7818608E-02  0.8636123E-01
         -1   -1    0    0    0  501 -0.00000000000E+00  0.00000000000E+00  0.74427668496E+03  0.74427668496E+03  0.00000000000E+00 0.  1.
          2   -1    0    0  501    0  0.00000000000E+00 -0.00000000000E+00 -0.12616999087E+04  0.12616999087E+04  0.00000000000E+00 0. -1.
         24    2    1    2    0    0 -0.50265643126E+02  0.62124064984E+03  0.25335634559E+03  0.67725056558E+03  0.77539092316E+02 0.  0.
        254    2    1    2    0    0  0.50265643126E+02 -0.62124064984E+03 -0.77077956932E+03  0.13287260281E+04  0.88484186909E+03 0.  0.
         23    2    4    4    0    0 -0.32906926143E+03 -0.52280174219E+02 -0.44782719455E+03  0.56569286320E+03  0.91866336907E+02 0.  0.
         23    2    4    4    0    0  0.37933490456E+03 -0.56896047562E+03 -0.32295237477E+03  0.76303316487E+03  0.10154004969E+03 0.  0.
          2    1    3    3  502    0 -0.47889499274E+02  0.21980489759E+03  0.11487116768E+03  0.25259252227E+03  0.00000000000E+00 0. -1.
         -1    1    3    3    0  502 -0.23761438519E+01  0.40143575225E+03  0.13848517791E+03  0.42465804331E+03  0.00000000000E+00 0.  1.
         11    1    5    5    0    0 -0.12040755972E+03 -0.54761218716E+02 -0.12986136995E+03  0.18536652049E+03  0.00000000000E+00 0. -1.
        -11    1    5    5    0    0 -0.20866170171E+03  0.24810444975E+01 -0.31796582460E+03  0.38032634270E+03  0.00000000000E+00 0.  1.
          2    1    6    6  503    0  0.30017211146E+02 -0.10627441740E+02 -0.23347284746E+02  0.39485075508E+02  0.00000000000E+00 0. -1.
         -2    1    6    6    0  503  0.34931769341E+03 -0.55833303388E+03 -0.29960509002E+03  0.72354808936E+03  0.00000000000E+00 0.  1.
<mgrwt>
<rscale>  0 0.19380958E+04</rscale>
<asrwt>0</asrwt>
<pdfrwt beam="1">  1        2 0.19410768E+00 0.19380958E+04</pdfrwt>
<pdfrwt beam="2">  1       -1 0.11450411E+00 0.19380958E+04</pdfrwt>
<totfact> 0.12853366E+01</totfact>
</mgrwt>
</event>
<event>
12    6  0.1586493E-007  0.1027697E+04  0.7818608E-02  0.9278679E-01
         -1   -1    0    0    0  501 -0.00000000000E+00  0.00000000000E+00  0.27126764917E+03  0.27126764917E+03  0.00000000000E+00 0.  1.
          2   -1    0    0  501    0  0.00000000000E+00 -0.00000000000E+00 -0.97335619847E+03  0.97335619847E+03  0.00000000000E+00 0. -1.
         24    2    1    2    0    0  0.82517894408E+02  0.67789296492E+02 -0.89994744027E+02  0.16085365175E+03  0.79813856638E+02 0.  0.
        254    2    1    2    0    0 -0.82517894408E+02 -0.67789296492E+02 -0.61209380527E+03  0.10837701959E+04  0.88797208258E+03 0.  0.
         23    2    4    4    0    0 -0.80986027257E+02 -0.45165362906E+03 -0.46742507484E+03  0.66082468212E+03  0.87483270714E+02 0.  0.
         23    2    4    4    0    0 -0.15318671503E+01  0.38386433257E+03 -0.14466873043E+03  0.42294551377E+03  0.10295481348E+03 0.  0.
          4    1    3    3  502    0  0.68406203629E+02  0.86235885751E+02 -0.75464456763E+02  0.13345756225E+03  0.00000000000E+00 0. -1.
         -3    1    3    3    0  502  0.14111690779E+02 -0.18446589259E+02 -0.14530287264E+02  0.27396089500E+02  0.00000000000E+00 0.  1.
         11    1    5    5    0    0 -0.68989101656E+02 -0.19240506361E+03 -0.24463818211E+03  0.31878996973E+03  0.00000000000E+00 0. -1.
        -11    1    5    5    0    0 -0.11996925601E+02 -0.25924856545E+03 -0.22278689273E+03  0.34203471239E+03  0.00000000000E+00 0.  1.
          4    1    6    6  503    0 -0.10376932956E+01  0.13723063676E+03 -0.10576572515E+03  0.17326197820E+03  0.00000000000E+00 0.  1.
         -4    1    6    6    0  503 -0.49417385475E+00  0.24663369580E+03 -0.38903005277E+02  0.24968353557E+03  0.00000000000E+00 0. -1.
<mgrwt>
<rscale>  0 0.10276965E+04</rscale>
<asrwt>0</asrwt>
<pdfrwt beam="1">  1        2 0.14974711E+00 0.10276965E+04</pdfrwt>
<pdfrwt beam="2">  1       -1 0.41733484E-01 0.10276965E+04</pdfrwt>
<totfact> 0.16772737E+02</totfact>
</mgrwt>
</event>
<event>
12    6  0.1586493E-007  0.3870442E+04  0.7818608E-02  0.8031205E-01
          2   -1    0    0  501    0  0.00000000000E+00  0.00000000000E+00  0.38173898649E+04  0.38173898649E+04  0.00000000000E+00 0. -1.
         -3   -1    0    0    0  501 -0.00000000000E+00 -0.00000000000E+00 -0.98105787282E+03  0.98105787282E+03  0.00000000000E+00 0.  1.
         24    2    1    2    0    0  0.10389515898E+04  0.13300512949E+04  0.46461375759E+03  0.17522914130E+04  0.78755314181E+02 0.  0.
        254    2    1    2    0    0 -0.10389515898E+04 -0.13300512949E+04  0.23717182344E+04  0.30461563247E+04  0.89753223783E+03 0.  0.
         23    2    4    4    0    0 -0.81599563809E+03 -0.42554992599E+03  0.15271590385E+04  0.17852774341E+04  0.89772862872E+02 0.  0.
         23    2    4    4    0    0 -0.22295595167E+03 -0.90450136888E+03  0.84455919598E+03  0.12608788906E+04  0.93291256873E+02 0.  0.
          2    1    3    3  502    0  0.21971390146E+03  0.23170167807E+03  0.92233944971E+02  0.33236571232E+03  0.00000000000E+00 0. -1.
         -1    1    3    3    0  502  0.81923768830E+03  0.10983496168E+04  0.37237981262E+03  0.14199257007E+04  0.00000000000E+00 0.  1.
         11    1    5    5    0    0 -0.42947092832E+02 -0.36682849313E+02  0.13152961067E+03  0.14314371344E+03  0.00000000000E+00 0. -1.
        -11    1    5    5    0    0 -0.77304854526E+03 -0.38886707668E+03  0.13956294278E+04  0.16421337206E+04  0.00000000000E+00 0.  1.
          2    1    6    6  503    0 -0.23841149776E+01 -0.42577519473E+02  0.66269402884E+02  0.78804586968E+02  0.00000000000E+00 0. -1.
         -2    1    6    6    0  503 -0.22057183670E+03 -0.86192384940E+03  0.77828979310E+03  0.11820743037E+04  0.00000000000E+00 0.  1.
<mgrwt>
<rscale>  0 0.38704420E+04</rscale>
<asrwt>0</asrwt>
<pdfrwt beam="1">  1        2 0.58729074E+00 0.38704420E+04</pdfrwt>
<pdfrwt beam="2">  1       -3 0.15093198E+00 0.38704420E+04</pdfrwt>
<totfact> 0.76653953E-02</totfact>
</mgrwt>
</event>
<event>
12    6  0.1586493E-007  0.1605110E+04  0.7818608E-02  0.8817415E-01
         -1   -1    0    0    0  501 -0.00000000000E+00  0.00000000000E+00  0.19229778572E+03  0.19229778572E+03  0.00000000000E+00 0.  1.
          2   -1    0    0  501    0  0.00000000000E+00 -0.00000000000E+00 -0.33494631035E+04  0.33494631035E+04  0.00000000000E+00 0. -1.
         24    2    1    2    0    0  0.19864209861E+03 -0.49640535064E+03 -0.83633125114E+03  0.99590959625E+03  0.80678415861E+02 0.  0.
        254    2    1    2    0    0 -0.19864209861E+03  0.49640535064E+03 -0.23208340667E+04  0.25458512930E+04  0.89956160746E+03 0.  0.
         23    2    4    4    0    0  0.21539567258E+03  0.33305747410E+03 -0.18369457633E+04  0.18816661278E+04  0.94737016317E+02 0.  0.
         23    2    4    4    0    0 -0.41403777119E+03  0.16334787654E+03 -0.48388830339E+03  0.66418516526E+03  0.94256240378E+02 0.  0.
          2    1    3    3  502    0  0.45254324766E+02 -0.14379936170E+03 -0.30279850860E+03  0.33825012513E+03  0.00000000000E+00 0. -1.
         -1    1    3    3    0  502  0.15338777384E+03 -0.35260598894E+03 -0.53353274254E+03  0.65765947112E+03  0.00000000000E+00 0.  1.
         11    1    5    5    0    0  0.14497222414E+03  0.15450949816E+03 -0.83182954077E+03  0.85838832453E+03  0.00000000000E+00 0. -1.
        -11    1    5    5    0    0  0.70423448441E+02  0.17854797594E+03 -0.10051162225E+04  0.10232778032E+04  0.00000000000E+00 0.  1.
          1    1    6    6  503    0 -0.37461196927E+03  0.15149632528E+03 -0.38965824125E+03  0.56135444157E+03  0.00000000000E+00 0. -1.
         -1    1    6    6    0  503 -0.39425801922E+02  0.11851551260E+02 -0.94230062135E+02  0.10283072369E+03  0.00000000000E+00 0.  1.
<mgrwt>
<rscale>  0 0.16051098E+04</rscale>
<asrwt>0</asrwt>
<pdfrwt beam="1">  1        2 0.51530201E+00 0.16051098E+04</pdfrwt>
<pdfrwt beam="2">  1       -1 0.29584275E-01 0.16051098E+04</pdfrwt>
<totfact> 0.11892460E+01</totfact>
</mgrwt>
</event>
<event>
12    6  0.1586493E-007  0.2473888E+04  0.7818608E-02  0.8412348E-01
          2   -1    0    0  501    0  0.00000000000E+00  0.00000000000E+00  0.23843638807E+04  0.23843638807E+04  0.00000000000E+00 0. -1.
         -1   -1    0    0    0  501 -0.00000000000E+00 -0.00000000000E+00 -0.64169317564E+03  0.64169317564E+03  0.00000000000E+00 0.  1.
         24    2    1    2    0    0  0.96502071539E+03  0.18375121604E+03  0.12774644005E+04  0.16135089374E+04  0.80413344902E+02 0.  0.
        254    2    1    2    0    0 -0.96502071539E+03 -0.18375121604E+03  0.46520630462E+03  0.14125481190E+04  0.90213402113E+03 0.  0.
         23    2    4    4    0    0 -0.84810462384E+03 -0.50953365106E+02 -0.54333461671E+02  0.85620897508E+03  0.90906466011E+02 0.  0.
         23    2    4    4    0    0 -0.11691609155E+03 -0.13279785094E+03  0.51953976629E+03  0.55633914391E+03  0.91033140204E+02 0.  0.
          2    1    3    3  502    0  0.23862210168E+03  0.58923698338E+02  0.26852004997E+03  0.36402682164E+03  0.00000000000E+00 0. -1.
         -1    1    3    3    0  502  0.72639861371E+03  0.12482751770E+03  0.10089443505E+04  0.12494821158E+04  0.00000000000E+00 0.  1.
         11    1    5    5    0    0 -0.33932728258E+03 -0.58916837649E+02 -0.44565998764E+02  0.34727557747E+03  0.00000000000E+00 0.  1.
        -11    1    5    5    0    0 -0.50877734126E+03  0.79634725432E+01 -0.97674629076E+01  0.50893339761E+03  0.00000000000E+00 0. -1.
          3    1    6    6  503    0 -0.67942588963E+02 -0.95978282562E+02  0.44275498970E+03  0.45810479917E+03  0.00000000000E+00 0. -1.
         -3    1    6    6    0  503 -0.48973502587E+02 -0.36819568374E+02  0.76784776591E+02  0.98234344742E+02  0.00000000000E+00 0.  1.
<mgrwt>
<rscale>  0 0.24738877E+04</rscale>
<asrwt>0</asrwt>
<pdfrwt beam="1">  1        2 0.36682521E+00 0.24738877E+04</pdfrwt>
<pdfrwt beam="2">  1       -1 0.98722028E-01 0.24738877E+04</pdfrwt>
<totfact> 0.40492131E+00</totfact>
</mgrwt>
</event>
<event>
12    6  0.1586493E-007  0.2548003E+04  0.7818608E-02  0.8386081E-01
         -1   -1    0    0    0  501 -0.00000000000E+00  0.00000000000E+00  0.79978048018E+03  0.79978048018E+03  0.00000000000E+00 0.  1.
          2   -1    0    0  501    0  0.00000000000E+00 -0.00000000000E+00 -0.20294066938E+04  0.20294066938E+04  0.00000000000E+00 0. -1.
         24    2    1    2    0    0 -0.32152119827E+03  0.70651078561E+03  0.34741772512E+03  0.85412730965E+03  0.79378928181E+02 0.  0.
        254    2    1    2    0    0  0.32152119827E+03 -0.70651078561E+03 -0.15770439387E+04  0.19750598643E+04  0.90070001209E+03 0.  0.
         23    2    4    4    0    0 -0.38607103833E+02 -0.27809686754E+03 -0.13201338736E+04  0.13527489691E+04  0.91367132960E+02 0.  0.
         23    2    4    4    0    0  0.36012830211E+03 -0.42841391807E+03 -0.25691006511E+03  0.62231089519E+03  0.89650373902E+02 0.  0.
          4    1    3    3  502    0 -0.61916626207E+02  0.20975624805E+03  0.77574711886E+02  0.23205427839E+03  0.00000000000E+00 0. -1.
         -3    1    3    3    0  502 -0.25960457206E+03  0.49675453756E+03  0.26984301324E+03  0.62207303126E+03  0.00000000000E+00 0.  1.
         11    1    5    5    0    0  0.15808973708E+02 -0.10153222667E+03 -0.33373737363E+03  0.34919815472E+03  0.00000000000E+00 0. -1.
        -11    1    5    5    0    0 -0.54416077541E+02 -0.17656464087E+03 -0.98639649995E+03  0.10035508144E+04  0.00000000000E+00 0.  1.
          2    1    6    6  503    0  0.48428991762E+02 -0.47730538916E+02 -0.16337228551E+01  0.68016473288E+02  0.00000000000E+00 0. -1.
         -2    1    6    6    0  503  0.31169931034E+03 -0.38068337915E+03 -0.25527634226E+03  0.55429442190E+03  0.00000000000E+00 0.  1.
<mgrwt>
<rscale>  0 0.25480030E+04</rscale>
<asrwt>0</asrwt>
<pdfrwt beam="1">  1        2 0.31221640E+00 0.25480030E+04</pdfrwt>
<pdfrwt beam="2">  1       -1 0.12304315E+00 0.25480030E+04</pdfrwt>
<totfact> 0.37846908E+00</totfact>
</mgrwt>
</event>
<event>
12    6  0.1586493E-007  0.1376832E+04  0.7818608E-02  0.8970762E-01
         -1   -1    0    0    0  501 -0.00000000000E+00  0.00000000000E+00  0.15495073551E+03  0.15495073551E+03  0.00000000000E+00 0.  1.
          2   -1    0    0  501    0  0.00000000000E+00 -0.00000000000E+00 -0.30584962843E+04  0.30584962843E+04  0.00000000000E+00 0. -1.
         24    2    1    2    0    0 -0.25412239334E+03 -0.26767271195E+03 -0.11272809220E+04  0.11888864538E+04  0.80385641121E+02 0.  0.
        254    2    1    2    0    0  0.25412239334E+03  0.26767271195E+03 -0.17762646267E+04  0.20245605660E+04  0.89861147871E+03 0.  0.
         23    2    4    4    0    0  0.39593984239E+02 -0.17715962375E+03 -0.13518738756E+04  0.13670356008E+04  0.90940323490E+02 0.  0.
         23    2    4    4    0    0  0.21452840911E+03  0.44483233569E+03 -0.42439075119E+03  0.65752496525E+03  0.91287047517E+02 0.  0.
          2    1    3    3  502    0 -0.25768576641E+03 -0.26525756388E+03 -0.10830761167E+04  0.11444725440E+04  0.00000000000E+00 0. -1.
         -1    1    3    3    0  502  0.35633730694E+01 -0.24151480673E+01 -0.44204805350E+02  0.44413909802E+02  0.00000000000E+00 0.  1.
         11    1    5    5    0    0  0.19667879502E+02 -0.16368689682E+03 -0.12925361734E+04  0.13030080527E+04  0.00000000000E+00 0.  1.
        -11    1    5    5    0    0  0.19926104737E+02 -0.13472726926E+02 -0.59337702124E+02  0.64027548088E+02  0.00000000000E+00 0. -1.
          1    1    6    6  503    0 -0.24118504975E+01  0.22297273881E+02 -0.31099596262E+01  0.22641936627E+02  0.00000000000E+00 0. -1.
         -1    1    6    6    0  503  0.21694025960E+03  0.42253506181E+03 -0.42128079156E+03  0.63488302862E+03  0.00000000000E+00 0.  1.
<mgrwt>
<rscale>  0 0.13768315E+04</rscale>
<asrwt>0</asrwt>
<pdfrwt beam="1">  1        2 0.47053786E+00 0.13768315E+04</pdfrwt>
<pdfrwt beam="2">  1       -1 0.23838576E-01 0.13768315E+04</pdfrwt>
<totfact> 0.27268798E+01</totfact>
</mgrwt>
</event>
<event>
12    6  0.1586493E-007  0.1431701E+04  0.7818608E-02  0.8931186E-01
         -1   -1    0    0    0  501 -0.00000000000E+00  0.00000000000E+00  0.20299709210E+03  0.20299709210E+03  0.00000000000E+00 0.  1.
          2   -1    0    0  501    0  0.00000000000E+00 -0.00000000000E+00 -0.25243796003E+04  0.25243796003E+04  0.00000000000E+00 0. -1.
         24    2    1    2    0    0 -0.36540694364E+03 -0.19850874245E+03 -0.93861599554E+03  0.10293476270E+04  0.75023962121E+02 0.  0.
        254    2    1    2    0    0  0.36540694364E+03  0.19850874245E+03 -0.13827665126E+04  0.16980290653E+04  0.89349399720E+03 0.  0.
         23    2    4    4    0    0 -0.22176009924E+03  0.11316544783E+03 -0.10184047162E+03  0.28354274452E+03  0.89671880264E+02 0.  0.
         23    2    4    4    0    0  0.58716704289E+03  0.85343294616E+02 -0.12809260410E+04  0.14144863208E+04  0.89170707599E+02 0.  0.
          2    1    3    3  502    0 -0.31937812744E+03 -0.16988591924E+03 -0.74337502725E+03  0.82672247156E+03  0.00000000000E+00 0. -1.
         -1    1    3    3    0  502 -0.46028816204E+02 -0.28622823206E+02 -0.19524096829E+03  0.20262515547E+03  0.00000000000E+00 0.  1.
         11    1    5    5    0    0 -0.20889960838E+03  0.11653859749E+03 -0.70314595382E+02  0.24932796355E+03  0.00000000000E+00 0. -1.
        -11    1    5    5    0    0 -0.12860490866E+02 -0.33731496575E+01 -0.31525876241E+02  0.34214780968E+02  0.00000000000E+00 0.  1.
          2    1    6    6  503    0  0.49405090161E+03  0.56743619568E+02 -0.11334297905E+04  0.12377274425E+04  0.00000000000E+00 0. -1.
         -2    1    6    6    0  503  0.93116141274E+02  0.28599675048E+02 -0.14749625046E+03  0.17675887836E+03  0.00000000000E+00 0.  1.
<mgrwt>
<rscale>  0 0.14317007E+04</rscale>
<asrwt>0</asrwt>
<pdfrwt beam="1">  1        2 0.38836609E+00 0.14317007E+04</pdfrwt>
<pdfrwt beam="2">  1       -1 0.31230322E-01 0.14317007E+04</pdfrwt>
<totfact> 0.35550012E+01</totfact>
</mgrwt>
</event>
<event>
12    6  0.1586493E-007  0.1297676E+04  0.7818608E-02  0.9031410E-01
         -1   -1    0    0    0  501 -0.00000000000E+00  0.00000000000E+00  0.36288199122E+03  0.36288199122E+03  0.00000000000E+00 0.  1.
          2   -1    0    0  501    0  0.00000000000E+00 -0.00000000000E+00 -0.11601312884E+04  0.11601312884E+04  0.00000000000E+00 0. -1.
         24    2    1    2    0    0  0.24691381595E+02 -0.30285739150E+03 -0.50940172448E+02  0.31712885190E+03  0.75123522454E+02 0.  0.
        254    2    1    2    0    0 -0.24691381595E+02  0.30285739150E+03 -0.74630912478E+03  0.12058844278E+04  0.89713303332E+03 0.  0.
         23    2    4    4    0    0 -0.19473809978E+03 -0.15606772516E+03  0.46779101574E+02  0.26954092306E+03  0.90465255846E+02 0.  0.
         23    2    4    4    0    0  0.17004671819E+03  0.45892511667E+03 -0.79308822635E+03  0.93634350470E+03  0.90675657877E+02 0.  0.
          4    1    3    3  502    0  0.62252080430E+01 -0.10329462460E+02 -0.18698792248E+02  0.22250749233E+02  0.00000000000E+00 0. -1.
         -3    1    3    3    0  502  0.18466173552E+02 -0.29252792904E+03 -0.32241380200E+02  0.29487810267E+03  0.00000000000E+00 0.  1.
         11    1    5    5    0    0 -0.14364942236E+03 -0.15241260512E+03  0.16609601032E+02  0.21009673388E+03  0.00000000000E+00 0. -1.
        -11    1    5    5    0    0 -0.51088677429E+02 -0.36551200446E+01  0.30169500543E+02  0.59444189178E+02  0.00000000000E+00 0.  1.
          3    1    6    6  503    0 -0.82075752262E+01  0.53351565767E+02 -0.10307975066E+03  0.11635802017E+03  0.00000000000E+00 0. -1.
         -3    1    6    6    0  503  0.17825429342E+03  0.40557355090E+03 -0.69000847569E+03  0.81998548453E+03  0.00000000000E+00 0.  1.
<mgrwt>
<rscale>  0 0.12976760E+04</rscale>
<asrwt>0</asrwt>
<pdfrwt beam="1">  1        2 0.17848174E+00 0.12976760E+04</pdfrwt>
<pdfrwt beam="2">  1       -1 0.55827998E-01 0.12976760E+04</pdfrwt>
<totfact> 0.72606806E+01</totfact>
</mgrwt>
</event>
<event>
12    6  0.1586493E-007  0.1611252E+04  0.7818608E-02  0.8813665E-01
          2   -1    0    0  501    0  0.00000000000E+00  0.00000000000E+00  0.54656282071E+03  0.54656282071E+03  0.00000000000E+00 0. -1.
         -1   -1    0    0    0  501 -0.00000000000E+00 -0.00000000000E+00 -0.11874809137E+04  0.11874809137E+04  0.00000000000E+00 0.  1.
         24    2    1    2    0    0 -0.41199780416E+03 -0.28621609921E+03  0.32286925739E+02  0.50911072344E+03  0.80557042337E+02 0.  0.
        254    2    1    2    0    0  0.41199780416E+03  0.28621609921E+03 -0.67320501873E+03  0.12249330110E+04  0.89196078280E+03 0.  0.
         23    2    4    4    0    0 -0.11034617049E+03 -0.55912337633E+02  0.13127558636E+03  0.20180637943E+03  0.90498996468E+02 0.  0.
         23    2    4    4    0    0  0.52234397465E+03  0.34212843684E+03 -0.80448060508E+03  0.10231266315E+04  0.98508705538E+02 0.  0.
          4    1    3    3  502    0 -0.35068768896E+03 -0.20935900325E+03  0.11320227148E+02  0.40858437926E+03  0.00000000000E+00 0. -1.
         -3    1    3    3    0  502 -0.61310115198E+02 -0.76857095962E+02  0.20966698590E+02  0.10052634418E+03  0.00000000000E+00 0.  1.
         11    1    5    5    0    0 -0.49567940137E+02  0.19567068616E+02  0.66611378435E+02  0.85304903732E+02  0.00000000000E+00 0. -1.
        -11    1    5    5    0    0 -0.60778230357E+02 -0.75479406249E+02  0.64664207922E+02  0.11650147570E+03  0.00000000000E+00 0.  1.
          1    1    6    6  503    0  0.30182918131E+03  0.22662772417E+03 -0.41576651629E+03  0.56153608622E+03  0.00000000000E+00 0.  1.
         -1    1    6    6    0  503  0.22051479334E+03  0.11550071267E+03 -0.38871408879E+03  0.46159054533E+03  0.00000000000E+00 0. -1.
<mgrwt>
<rscale>  0 0.16112516E+04</rscale>
<asrwt>0</asrwt>
<pdfrwt beam="1">  1        2 0.84086588E-01 0.16112516E+04</pdfrwt>
<pdfrwt beam="2">  1       -1 0.18268937E+00 0.16112516E+04</pdfrwt>
<totfact> 0.12087941E+01</totfact>
</mgrwt>
</event>
<event>
12    6  0.1586493E-007  0.1319449E+04  0.7818608E-02  0.9014282E-01
          2   -1    0    0  501    0  0.00000000000E+00  0.00000000000E+00  0.48417943589E+03  0.48417943589E+03  0.00000000000E+00 0. -1.
         -1   -1    0    0    0  501 -0.00000000000E+00 -0.00000000000E+00 -0.89891572802E+03  0.89891572802E+03  0.00000000000E+00 0.  1.
         24    2    1    2    0    0 -0.27316636999E+03 -0.20659398515E+03 -0.46065288656E+02  0.36296002758E+03  0.11098211751E+03 0.  0.
        254    2    1    2    0    0  0.27316636999E+03  0.20659398515E+03 -0.36867100348E+03  0.10201351363E+04  0.88738742789E+03 0.  0.
         23    2    4    4    0    0 -0.27565671164E+03  0.19715765340E+03  0.21045615360E+01  0.35144140986E+03  0.92999314091E+02 0.  0.
         23    2    4    4    0    0  0.54882308164E+03  0.94363317485E+01 -0.37077556501E+03  0.66869372646E+03  0.91547588232E+02 0.  0.
          4    1    3    3  502    0 -0.24633303808E+03 -0.21876952322E+03 -0.50018685518E+02  0.33322955877E+03  0.00000000000E+00 0. -1.
         -3    1    3    3    0  502 -0.26833331918E+02  0.12175538068E+02  0.39533968628E+01  0.29730468812E+02  0.00000000000E+00 0.  1.
         11    1    5    5    0    0 -0.35949331759E+02  0.63492573041E+02  0.22158560589E+02  0.76253938211E+02  0.00000000000E+00 0. -1.
        -11    1    5    5    0    0 -0.23970737988E+03  0.13366508036E+03 -0.20053999053E+02  0.27518747165E+03  0.00000000000E+00 0.  1.
          3    1    6    6  503    0  0.41370501959E+03  0.45219956456E+02 -0.26458375096E+03  0.49315438655E+03  0.00000000000E+00 0. -1.
         -3    1    6    6    0  503  0.13511806204E+03 -0.35783624707E+02 -0.10619181405E+03  0.17553933992E+03  0.00000000000E+00 0.  1.
<mgrwt>
<rscale>  0 0.13194491E+04</rscale>
<asrwt>0</asrwt>
<pdfrwt beam="1">  1        2 0.74489145E-01 0.13194491E+04</pdfrwt>
<pdfrwt beam="2">  1       -1 0.13829473E+00 0.13194491E+04</pdfrwt>
<totfact> 0.30976906E+01</totfact>
</mgrwt>
</event>
<event>
12    6  0.1586493E-007  0.1996977E+04  0.7818608E-02  0.8608036E-01
          2   -1    0    0  501    0  0.00000000000E+00  0.00000000000E+00  0.12455489328E+04  0.12455489328E+04  0.00000000000E+00 0. -1.
         -1   -1    0    0    0  501 -0.00000000000E+00 -0.00000000000E+00 -0.80043328973E+03  0.80043328973E+03  0.00000000000E+00 0.  1.
         24    2    1    2    0    0  0.61584862470E+03  0.28100190191E+03  0.59302830693E+03  0.90374718711E+03  0.82733354655E+02 0.  0.
        254    2    1    2    0    0 -0.61584862470E+03 -0.28100190191E+03 -0.14791266382E+03  0.11422350355E+04  0.90806999878E+03 0.  0.
         23    2    4    4    0    0 -0.74617239749E+02 -0.51978641205E+03 -0.41093670377E+02  0.53434265105E+03  0.89931820615E+02 0.  0.
         23    2    4    4    0    0 -0.54123138495E+03  0.23878451015E+03 -0.10681899344E+03  0.60789238441E+03  0.90406854411E+02 0.  0.
          4    1    3    3  502    0  0.36755967888E+03  0.20719305047E+03  0.39102908051E+03  0.57526760686E+03  0.00000000000E+00 0. -1.
         -3    1    3    3    0  502  0.24828894582E+03  0.73808851442E+02  0.20199922642E+03  0.32847958025E+03  0.00000000000E+00 0.  1.
         11    1    5    5    0    0 -0.85280880834E+02 -0.44833524487E+03 -0.58290242922E+02  0.46008159369E+03  0.00000000000E+00 0.  1.
        -11    1    5    5    0    0  0.10663641085E+02 -0.71451167183E+02  0.17196572545E+02  0.74261057361E+02  0.00000000000E+00 0. -1.
          3    1    6    6  503    0 -0.24749965553E+03  0.14263464338E+03 -0.85086373300E+02  0.29806108753E+03  0.00000000000E+00 0. -1.
         -3    1    6    6    0  503 -0.29373172942E+03  0.96149866762E+02 -0.21732620144E+02  0.30983129688E+03  0.00000000000E+00 0.  1.
<mgrwt>
<rscale>  0 0.19969765E+04</rscale>
<asrwt>0</asrwt>
<pdfrwt beam="1">  1        2 0.19162291E+00 0.19969765E+04</pdfrwt>
<pdfrwt beam="2">  1       -1 0.12314358E+00 0.19969765E+04</pdfrwt>
<totfact> 0.10951082E+01</totfact>
</mgrwt>
</event>
<event>
12    6  0.1586493E-007  0.1552151E+04  0.7818608E-02  0.8850495E-01
         -1   -1    0    0    0  501 -0.00000000000E+00  0.00000000000E+00  0.97246432646E+03  0.97246432646E+03  0.00000000000E+00 0.  1.
          2   -1    0    0  501    0  0.00000000000E+00 -0.00000000000E+00 -0.61934698137E+03  0.61934698137E+03  0.00000000000E+00 0. -1.
         24    2    1    2    0    0 -0.30321706585E+03  0.34191257177E+03  0.33652695330E+03  0.57319699951E+03  0.80371725067E+02 0.  0.
        254    2    1    2    0    0  0.30321706585E+03 -0.34191257177E+03  0.16590391790E+02  0.10186143083E+04  0.91019507374E+03 0.  0.
         23    2    4    4    0    0  0.67723137755E+02 -0.61759222726E+03  0.98442442811E+02  0.63681654342E+03  0.99185749316E+02 0.  0.
         23    2    4    4    0    0  0.23549392809E+03  0.27567965548E+03 -0.81852051022E+02  0.38179776490E+03  0.87253151303E+02 0.  0.
          4    1    3    3  502    0  0.40396674390E+01  0.97316852908E+01  0.14000399661E+02  0.17522437110E+02  0.00000000000E+00 0. -1.
         -3    1    3    3    0  502 -0.30725673329E+03  0.33218088648E+03  0.32252655364E+03  0.55567456240E+03  0.00000000000E+00 0.  1.
         11    1    5    5    0    0  0.29992058537E+01 -0.98048043389E+02  0.52460907990E+02  0.11124100375E+03  0.00000000000E+00 0. -1.
        -11    1    5    5    0    0  0.64723931901E+02 -0.51954418387E+03  0.45981534821E+02  0.52557553967E+03  0.00000000000E+00 0.  1.
          1    1    6    6  503    0  0.23681749711E+02  0.52617595634E+02  0.14425869104E+02  0.59477242194E+02  0.00000000000E+00 0. -1.
         -1    1    6    6    0  503  0.21181217838E+03  0.22306205985E+03 -0.96277920126E+02  0.32232052271E+03  0.00000000000E+00 0.  1.
<mgrwt>
<rscale>  0 0.15521506E+04</rscale>
<asrwt>0</asrwt>
<pdfrwt beam="1">  1        2 0.95284151E-01 0.15521506E+04</pdfrwt>
<pdfrwt beam="2">  1       -1 0.14960990E+00 0.15521506E+04</pdfrwt>
<totfact> 0.18436656E+01</totfact>
</mgrwt>
</event>
<event>
12    6  0.1586493E-007  0.1713012E+04  0.7818608E-02  0.8753978E-01
         -1   -1    0    0    0  501 -0.00000000000E+00  0.00000000000E+00  0.81078826129E+03  0.81078826129E+03  0.00000000000E+00 0.  1.
          2   -1    0    0  501    0  0.00000000000E+00 -0.00000000000E+00 -0.90480143119E+03  0.90480143119E+03  0.00000000000E+00 0. -1.
         24    2    1    2    0    0 -0.36199858090E+03 -0.29292812765E+03 -0.43929589720E+03  0.64521430734E+03  0.80441012920E+02 0.  0.
        254    2    1    2    0    0  0.36199858090E+03  0.29292812765E+03  0.34528272729E+03  0.10703753851E+04  0.89979633406E+03 0.  0.
         23    2    4    4    0    0  0.20217297990E+02  0.32381623133E+02  0.56848313735E+03  0.57715310961E+03  0.92061532865E+02 0.  0.
         23    2    4    4    0    0  0.34178128291E+03  0.26054650452E+03 -0.22320041006E+03  0.49322227552E+03  0.93546050974E+02 0.  0.
          4    1    3    3  502    0 -0.24517525564E+03 -0.24004064794E+03 -0.29870053822E+03  0.45492024595E+03  0.00000000000E+00 0. -1.
         -3    1    3    3    0  502 -0.11682332526E+03 -0.52887479713E+02 -0.14059535898E+03  0.19029406139E+03  0.00000000000E+00 0.  1.
         11    1    5    5    0    0  0.37005948885E+02 -0.13574812099E+02  0.12723920590E+03  0.13320484712E+03  0.00000000000E+00 0.  1.
        -11    1    5    5    0    0 -0.16788650894E+02  0.45956435232E+02  0.44124393145E+03  0.44394826250E+03  0.00000000000E+00 0. -1.
          3    1    6    6  503    0  0.26517589982E+03  0.18767810108E+03 -0.20961480569E+03  0.38662603927E+03  0.00000000000E+00 0. -1.
         -3    1    6    6    0  503  0.76605383088E+02  0.72868403437E+02 -0.13585604366E+02  0.10659623625E+03  0.00000000000E+00 0.  1.
<mgrwt>
<rscale>  0 0.17130118E+04</rscale>
<asrwt>0</asrwt>
<pdfrwt beam="1">  1        2 0.13920022E+00 0.17130118E+04</pdfrwt>
<pdfrwt beam="2">  1       -1 0.12473666E+00 0.17130118E+04</pdfrwt>
<totfact> 0.17764465E+01</totfact>
</mgrwt>
</event>
<event>
12    6  0.1586493E-007  0.1686872E+04  0.7818608E-02  0.8768887E-01
          2   -1    0    0  501    0  0.00000000000E+00  0.00000000000E+00  0.15164105370E+04  0.15164105370E+04  0.00000000000E+00 0. -1.
         -1   -1    0    0    0  501 -0.00000000000E+00 -0.00000000000E+00 -0.46912408044E+03  0.46912408044E+03  0.00000000000E+00 0.  1.
         24    2    1    2    0    0  0.41467598515E+03  0.23181604123E+03  0.78337790468E+03  0.91977562967E+03  0.81310625233E+02 0.  0.
        254    2    1    2    0    0 -0.41467598515E+03 -0.23181604123E+03  0.26390855190E+03  0.10657589878E+04  0.91678767807E+03 0.  0.
         23    2    4    4    0    0 -0.49865089353E+03 -0.42024369049E+03 -0.71370952001E+02  0.66166125097E+03  0.86280503199E+02 0.  0.
         23    2    4    4    0    0  0.83974908379E+02  0.18842764926E+03  0.33527950390E+03  0.40409773682E+03  0.91246210460E+02 0.  0.
          4    1    3    3  502    0  0.33213345374E+03  0.19937807719E+03  0.57508730928E+03  0.69338997834E+03  0.00000000000E+00 0. -1.
         -3    1    3    3    0  502  0.82542531405E+02  0.32437964039E+02  0.20829059539E+03  0.22638565134E+03  0.00000000000E+00 0.  1.
         11    1    5    5    0    0 -0.45326814988E+03 -0.37818410877E+03 -0.89777754897E+02  0.59710575369E+03  0.00000000000E+00 0. -1.
        -11    1    5    5    0    0 -0.45382743647E+02 -0.42059581722E+02  0.18406802896E+02  0.64555497275E+02  0.00000000000E+00 0.  1.
          2    1    6    6  503    0  0.82079536665E+02  0.97144080757E+02  0.24308633208E+03  0.27434465114E+03  0.00000000000E+00 0. -1.
         -2    1    6    6    0  503  0.18953717142E+01  0.91283568507E+02  0.92193171824E+02  0.12975308568E+03  0.00000000000E+00 0.  1.
<mgrwt>
<rscale>  0 0.16868725E+04</rscale>
<asrwt>0</asrwt>
<pdfrwt beam="1">  1        2 0.23329393E+00 0.16868725E+04</pdfrwt>
<pdfrwt beam="2">  1       -1 0.72172936E-01 0.16868725E+04</pdfrwt>
<totfact> 0.26122980E+01</totfact>
</mgrwt>
</event>
<event>
12    6  0.1586493E-007  0.1932305E+04  0.7818608E-02  0.8638941E-01
         -1   -1    0    0    0  501 -0.00000000000E+00  0.00000000000E+00  0.19378977416E+03  0.19378977416E+03  0.00000000000E+00 0.  1.
          2   -1    0    0  501    0  0.00000000000E+00 -0.00000000000E+00 -0.48168195099E+04  0.48168195099E+04  0.00000000000E+00 0. -1.
         24    2    1    2    0    0  0.26726011401E+03  0.49594208830E+03 -0.51458430650E+03  0.76711575137E+03  0.79265654687E+02 0.  0.
        254    2    1    2    0    0 -0.26726011401E+03 -0.49594208830E+03 -0.41084454293E+04  0.42434935327E+04  0.90029272651E+03 0.  0.
         23    2    4    4    0    0 -0.59229396033E+03 -0.28796977987E+03 -0.26293734324E+04  0.27121415686E+04  0.91479569069E+02 0.  0.
         23    2    4    4    0    0  0.32503384632E+03 -0.20797230844E+03 -0.14790719968E+04  0.15313519641E+04  0.92116142694E+02 0.  0.
          2    1    3    3  502    0  0.11019476338E+03  0.16865278801E+03 -0.13897631007E+03  0.24474693776E+03  0.00000000000E+00 0. -1.
         -1    1    3    3    0  502  0.15706535063E+03  0.32728930029E+03 -0.37560799643E+03  0.52236881362E+03  0.00000000000E+00 0.  1.
         11    1    5    5    0    0 -0.23575981447E+03 -0.10556038462E+03 -0.12153528560E+04  0.12425008046E+04  0.00000000000E+00 0.  1.
        -11    1    5    5    0    0 -0.35653414586E+03 -0.18240939525E+03 -0.14140205764E+04  0.14696407640E+04  0.00000000000E+00 0. -1.
          1    1    6    6  503    0  0.14711222043E+03 -0.78502832746E+02 -0.81135541583E+03  0.82831293057E+03  0.00000000000E+00 0. -1.
         -1    1    6    6    0  503  0.17792162589E+03 -0.12946947569E+03 -0.66771658099E+03  0.70303903350E+03  0.00000000000E+00 0.  1.
<mgrwt>
<rscale>  0 0.19323047E+04</rscale>
<asrwt>0</asrwt>
<pdfrwt beam="1">  1        2 0.74104917E+00 0.19323047E+04</pdfrwt>
<pdfrwt beam="2">  1       -1 0.29813811E-01 0.19323047E+04</pdfrwt>
<totfact> 0.64007114E-01</totfact>
</mgrwt>
</event>
<event>
12    6  0.1586493E-007  0.1664745E+04  0.7818608E-02  0.8781731E-01
         -1   -1    0    0    0  501 -0.00000000000E+00  0.00000000000E+00  0.10972080716E+04  0.10972080716E+04  0.00000000000E+00 0.  1.
          2   -1    0    0  501    0  0.00000000000E+00 -0.00000000000E+00 -0.63146089525E+03  0.63146089525E+03  0.00000000000E+00 0. -1.
         24    2    1    2    0    0  0.52586663760E+03 -0.12536991861E+03  0.35064603507E+03  0.64925682870E+03  0.79551559833E+02 0.  0.
        254    2    1    2    0    0 -0.52586663760E+03  0.12536991861E+03  0.11510114124E+03  0.10794121381E+04  0.92716177345E+03 0.  0.
         23    2    4    4    0    0 -0.84991731772E+02  0.43385199081E+03  0.25005172746E+03  0.51600444234E+03  0.91014140157E+02 0.  0.
         23    2    4    4    0    0 -0.44087490583E+03 -0.30848207220E+03 -0.13495058622E+03  0.56340769576E+03  0.98410870683E+02 0.  0.
          2    1    3    3  502    0  0.58240454872E+02  0.10757028588E+02  0.43048410402E+02  0.73217688340E+02  0.00000000000E+00 0. -1.
         -1    1    3    3    0  502  0.46762618273E+03 -0.13612694720E+03  0.30759762467E+03  0.57603914036E+03  0.00000000000E+00 0.  1.
         11    1    5    5    0    0 -0.49084061627E+02  0.80011543001E+02  0.33826266681E+02  0.99776291957E+02  0.00000000000E+00 0. -1.
        -11    1    5    5    0    0 -0.35907670145E+02  0.35384044781E+03  0.21622546078E+03  0.41622815039E+03  0.00000000000E+00 0.  1.
          4    1    6    6  503    0 -0.11461791028E+03 -0.13113588365E+03 -0.62653412943E+02  0.18509277536E+03  0.00000000000E+00 0. -1.
         -4    1    6    6    0  503 -0.32625699554E+03 -0.17734618855E+03 -0.72297173276E+02  0.37831492040E+03  0.00000000000E+00 0.  1.
<mgrwt>
<rscale>  0 0.16647450E+04</rscale>
<asrwt>0</asrwt>
<pdfrwt beam="1">  1        2 0.97147830E-01 0.16647450E+04</pdfrwt>
<pdfrwt beam="2">  1       -1 0.16880124E+00 0.16647450E+04</pdfrwt>
<totfact> 0.12753499E+01</totfact>
</mgrwt>
</event>
<event>
12    6  0.1586493E-007  0.1300945E+04  0.7818608E-02  0.9028816E-01
         -1   -1    0    0    0  501 -0.00000000000E+00  0.00000000000E+00  0.32550406715E+03  0.32550406715E+03  0.00000000000E+00 0.  1.
          2   -1    0    0  501    0  0.00000000000E+00 -0.00000000000E+00 -0.12998745523E+04  0.12998745523E+04  0.00000000000E+00 0. -1.
         24    2    1    2    0    0 -0.41538132614E+02 -0.98944769013E+02 -0.67662891820E+03  0.68966516918E+03  0.79346511308E+02 0.  0.
        254    2    1    2    0    0  0.41538132614E+02  0.98944769013E+02 -0.29774156692E+03  0.93571345025E+03  0.88056466913E+03 0.  0.
         23    2    4    4    0    0  0.43440124557E+03  0.52946560543E+02 -0.28353087372E+03  0.52948487609E+03  0.91960302417E+02 0.  0.
         23    2    4    4    0    0 -0.39286311296E+03  0.45998208470E+02 -0.14210693194E+02  0.40622857416E+03  0.91446432180E+02 0.  0.
          2    1    3    3  502    0 -0.40090135067E+02 -0.11118577932E+03 -0.55693894807E+03  0.56934215401E+03  0.00000000000E+00 0. -1.
         -1    1    3    3    0  502 -0.14479975468E+01  0.12241010304E+02 -0.11968997012E+03  0.12032301516E+03  0.00000000000E+00 0.  1.
         11    1    5    5    0    0  0.95194441285E+01  0.14831214474E+02 -0.66710772972E+00  0.17636036176E+02  0.00000000000E+00 0.  1.
        -11    1    5    5    0    0  0.42488180144E+03  0.38115346069E+02 -0.28286376600E+03  0.51184883991E+03  0.00000000000E+00 0. -1.
          1    1    6    6  503    0 -0.28394205809E+03  0.47520657947E+01  0.20434011146E+02  0.28471603976E+03  0.00000000000E+00 0. -1.
         -1    1    6    6    0  503 -0.10892105486E+03  0.41246142675E+02 -0.34644704340E+02  0.12151253440E+03  0.00000000000E+00 0.  1.
<mgrwt>
<rscale>  0 0.13009450E+04</rscale>
<asrwt>0</asrwt>
<pdfrwt beam="1">  1        2 0.19998071E+00 0.13009450E+04</pdfrwt>
<pdfrwt beam="2">  1       -1 0.50077548E-01 0.13009450E+04</pdfrwt>
<totfact> 0.73906883E+01</totfact>
</mgrwt>
</event>
<event>
12    6  0.1586493E-007  0.1717022E+04  0.7818608E-02  0.8751715E-01
         -1   -1    0    0    0  501 -0.00000000000E+00  0.00000000000E+00  0.13629200078E+04  0.13629200078E+04  0.00000000000E+00 0.  1.
          2   -1    0    0  501    0  0.00000000000E+00 -0.00000000000E+00 -0.54078063932E+03  0.54078063932E+03  0.00000000000E+00 0. -1.
         24    2    1    2    0    0 -0.30844159195E+03 -0.54801425262E+03  0.42267624645E+03  0.76177557079E+03  0.78682744192E+02 0.  0.
        254    2    1    2    0    0  0.30844159195E+03  0.54801425262E+03  0.39946312208E+03  0.11419250764E+04  0.86542836643E+03 0.  0.
         23    2    4    4    0    0  0.36020224286E+03 -0.11981339926E+03  0.10640508595E+03  0.40519670415E+03  0.93602459009E+02 0.  0.
         23    2    4    4    0    0 -0.51760650918E+02  0.66782765187E+03  0.29305803613E+03  0.73672837222E+03  0.90624192699E+02 0.  0.
          4    1    3    3  502    0 -0.16827356617E+03 -0.32760464662E+03  0.29025277552E+03  0.46892160460E+03  0.00000000000E+00 0. -1.
         -3    1    3    3    0  502 -0.14016802577E+03 -0.22040960600E+03  0.13242347092E+03  0.29285396620E+03  0.00000000000E+00 0.  1.
         11    1    5    5    0    0  0.24834875153E+03 -0.95139727376E+02  0.30284661054E+02  0.26766738839E+03  0.00000000000E+00 0. -1.
        -11    1    5    5    0    0  0.11185349133E+03 -0.24673671879E+02  0.76120424893E+02  0.13752931576E+03  0.00000000000E+00 0.  1.
          1    1    6    6  503    0 -0.53508189393E+02  0.30996221422E+03  0.17463590604E+03  0.35977409615E+03  0.00000000000E+00 0. -1.
         -1    1    6    6    0  503  0.17475384750E+01  0.35786543765E+03  0.11842213009E+03  0.37695427607E+03  0.00000000000E+00 0.  1.
<mgrwt>
<rscale>  0 0.17170216E+04</rscale>
<asrwt>0</asrwt>
<pdfrwt beam="1">  1        2 0.83197022E-01 0.17170216E+04</pdfrwt>
<pdfrwt beam="2">  1       -1 0.20968000E+00 0.17170216E+04</pdfrwt>
<totfact> 0.78787440E+00</totfact>
</mgrwt>
</event>
<event>
12    6  0.1586493E-007  0.2600353E+04  0.7818608E-02  0.8368081E-01
          2   -1    0    0  501    0  0.00000000000E+00  0.00000000000E+00  0.21748720414E+04  0.21748720414E+04  0.00000000000E+00 0. -1.
         -1   -1    0    0    0  501 -0.00000000000E+00 -0.00000000000E+00 -0.77726792935E+03  0.77726792935E+03  0.00000000000E+00 0.  1.
         24    2    1    2    0    0 -0.10565044368E+04 -0.30215488040E+03  0.25865966365E+03  0.11317199963E+04  0.79913274816E+02 0.  0.
        254    2    1    2    0    0  0.10565044368E+04  0.30215488040E+03  0.11389444484E+04  0.18204199745E+04  0.89957502761E+03 0.  0.
         23    2    4    4    0    0  0.11870649025E+04  0.35295687384E+03  0.92238068929E+03  0.15468114754E+04  0.90210680200E+02 0.  0.
         23    2    4    4    0    0 -0.13056046570E+03 -0.50801993434E+02  0.21656375915E+03  0.27360849915E+03  0.91295516254E+02 0.  0.
          4    1    3    3  502    0 -0.26193538912E+03 -0.63300539460E+02  0.97149313625E+02  0.28645260604E+03  0.00000000000E+00 0. -1.
         -3    1    3    3    0  502 -0.79456904773E+03 -0.23885434094E+03  0.16151035003E+03  0.84526739021E+03  0.00000000000E+00 0.  1.
         11    1    5    5    0    0  0.42006677928E+03  0.16932553330E+03  0.32594432179E+03  0.55800263099E+03  0.00000000000E+00 0. -1.
        -11    1    5    5    0    0  0.76699812326E+03  0.18363134054E+03  0.59643636749E+03  0.98880884441E+03  0.00000000000E+00 0.  1.
          4    1    6    6  503    0 -0.14214969954E+02 -0.24477592118E+02  0.23271495887E+01  0.28401294194E+02  0.00000000000E+00 0. -1.
         -4    1    6    6    0  503 -0.11634549575E+03 -0.26324401317E+02  0.21423660956E+03  0.24520720495E+03  0.00000000000E+00 0.  1.
<mgrwt>
<rscale>  0 0.26003525E+04</rscale>
<asrwt>0</asrwt>
<pdfrwt beam="1">  1        2 0.33459570E+00 0.26003525E+04</pdfrwt>
<pdfrwt beam="2">  1       -1 0.11957968E+00 0.26003525E+04</pdfrwt>
<totfact> 0.33512534E+00</totfact>
</mgrwt>
</event>
<event>
12    6  0.1586493E-007  0.1307724E+04  0.7818608E-02  0.9023462E-01
         -1   -1    0    0    0  501 -0.00000000000E+00  0.00000000000E+00  0.45234587123E+03  0.45234587123E+03  0.00000000000E+00 0.  1.
          2   -1    0    0  501    0  0.00000000000E+00 -0.00000000000E+00 -0.94515223853E+03  0.94515223853E+03  0.00000000000E+00 0. -1.
         24    2    1    2    0    0 -0.22880004127E+03  0.19684845623E+03  0.11158584098E+02  0.31258681218E+03  0.80543327107E+02 0.  0.
        254    2    1    2    0    0  0.22880004127E+03 -0.19684845623E+03 -0.50396495140E+03  0.10849112976E+04  0.91211461877E+03 0.  0.
         23    2    4    4    0    0 -0.32171808302E+03 -0.22148979402E+03 -0.19153850193E+03  0.44516714118E+03  0.94480326346E+02 0.  0.
         23    2    4    4    0    0  0.55051812429E+03  0.24641337789E+02 -0.31242644947E+03  0.63974415640E+03  0.89358259950E+02 0.  0.
          4    1    3    3  502    0 -0.12351552977E+02  0.35330436020E+02  0.19872449291E+02  0.42375875343E+02  0.00000000000E+00 0. -1.
         -3    1    3    3    0  502 -0.21644848829E+03  0.16151802021E+03 -0.87138651927E+01  0.27021093683E+03  0.00000000000E+00 0.  1.
         11    1    5    5    0    0 -0.72218236939E+02 -0.91077497082E+02 -0.85657358099E+02  0.14438755908E+03  0.00000000000E+00 0. -1.
        -11    1    5    5    0    0 -0.24949984608E+03 -0.13041229694E+03 -0.10588114383E+03  0.30077958210E+03  0.00000000000E+00 0.  1.
          2    1    6    6  503    0  0.39228968632E+03  0.57540643594E+02 -0.21480794765E+03  0.45093744359E+03  0.00000000000E+00 0.  1.
         -2    1    6    6    0  503  0.15822843797E+03 -0.32899305804E+02 -0.97618501823E+02  0.18880671281E+03  0.00000000000E+00 0. -1.
<mgrwt>
<rscale>  0 0.13077243E+04</rscale>
<asrwt>0</asrwt>
<pdfrwt beam="1">  1        2 0.14540804E+00 0.13077243E+04</pdfrwt>
<pdfrwt beam="2">  1       -1 0.69591673E-01 0.13077243E+04</pdfrwt>
<totfact> 0.63856647E+01</totfact>
</mgrwt>
</event>
<event>
12    6  0.1586493E-007  0.1369232E+04  0.7818608E-02  0.8976396E-01
          2   -1    0    0  501    0  0.00000000000E+00  0.00000000000E+00  0.12614845475E+04  0.12614845475E+04  0.00000000000E+00 0. -1.
         -1   -1    0    0    0  501 -0.00000000000E+00 -0.00000000000E+00 -0.37154564523E+03  0.37154564523E+03  0.00000000000E+00 0.  1.
         24    2    1    2    0    0 -0.11195072383E+03  0.73868347866E+02  0.68402632366E+03  0.70173747023E+03  0.80956582655E+02 0.  0.
        254    2    1    2    0    0  0.11195072383E+03 -0.73868347866E+02  0.20591257861E+03  0.93129272250E+03  0.89828539317E+03 0.  0.
         23    2    4    4    0    0  0.20880994331E+03 -0.18133251187E+03  0.50732238169E+03  0.58485970381E+03  0.90563800084E+02 0.  0.
         23    2    4    4    0    0 -0.96859219476E+02  0.10746416400E+03 -0.30140980308E+03  0.34643301870E+03  0.90761842817E+02 0.  0.
          4    1    3    3  502    0 -0.11847054922E+03  0.60450863082E+02  0.66137066744E+03  0.67461154573E+03  0.00000000000E+00 0. -1.
         -3    1    3    3    0  502  0.65198253885E+01  0.13417484784E+02  0.22655656218E+02  0.27125924494E+02  0.00000000000E+00 0.  1.
         11    1    5    5    0    0  0.33342744378E+01 -0.19373684621E+02  0.81552702951E+01  0.21282985584E+02  0.00000000000E+00 0.  1.
        -11    1    5    5    0    0  0.20547566887E+03 -0.16195882725E+03  0.49916711140E+03  0.56357671822E+03  0.00000000000E+00 0. -1.
          2    1    6    6  503    0 -0.88344676539E+02  0.10554585373E+03 -0.18964899630E+03  0.23433192465E+03  0.00000000000E+00 0. -1.
         -2    1    6    6    0  503 -0.85145429369E+01  0.19183102754E+01 -0.11176080678E+03  0.11210109405E+03  0.00000000000E+00 0.  1.
<mgrwt>
<rscale>  0 0.13692320E+04</rscale>
<asrwt>0</asrwt>
<pdfrwt beam="1">  1        2 0.19407454E+00 0.13692320E+04</pdfrwt>
<pdfrwt beam="2">  1       -1 0.57160869E-01 0.13692320E+04</pdfrwt>
<totfact> 0.60006722E+01</totfact>
</mgrwt>
</event>
<event>
12    6  0.1586493E-007  0.1479801E+04  0.7818608E-02  0.8897997E-01
         -1   -1    0    0    0  501 -0.00000000000E+00  0.00000000000E+00  0.73871395342E+03  0.73871395342E+03  0.00000000000E+00 0.  1.
          2   -1    0    0  501    0  0.00000000000E+00 -0.00000000000E+00 -0.74108860096E+03  0.74108860096E+03  0.00000000000E+00 0. -1.
         24    2    1    2    0    0  0.44665673571E+03 -0.29891178189E+02 -0.15139306476E+03  0.47925160912E+03  0.79790492548E+02 0.  0.
        254    2    1    2    0    0 -0.44665673571E+03  0.29891178189E+02  0.14901841722E+03  0.10005509453E+04  0.88232646072E+03 0.  0.
         23    2    4    4    0    0 -0.25618086921E+02 -0.14503907535E+03  0.42515779696E+03  0.45928615069E+03  0.92152027359E+02 0.  0.
         23    2    4    4    0    0 -0.42103864879E+03  0.17493025353E+03 -0.27613937974E+03  0.54126479456E+03  0.94023844936E+02 0.  0.
          4    1    3    3  502    0  0.29360697423E+03 -0.86123533461E+01 -0.13684627970E+03  0.32404649699E+03  0.00000000000E+00 0. -1.
         -3    1    3    3    0  502  0.15304976148E+03 -0.21278824843E+02 -0.14546785066E+02  0.15520511213E+03  0.00000000000E+00 0.  1.
         11    1    5    5    0    0 -0.16904162507E+02 -0.81205044822E+02  0.11087368033E+03  0.13846654110E+03  0.00000000000E+00 0.  1.
        -11    1    5    5    0    0 -0.87139244144E+01 -0.63834030523E+02  0.31428411663E+03  0.32081960959E+03  0.00000000000E+00 0. -1.
          3    1    6    6  503    0 -0.38706395309E+03  0.18207272504E+03 -0.23726969849E+03  0.48914812767E+03  0.00000000000E+00 0. -1.
         -3    1    6    6    0  503 -0.33974695703E+02 -0.71424715108E+01 -0.38869681254E+02  0.52116666894E+02  0.00000000000E+00 0.  1.
<mgrwt>
<rscale>  0 0.14798006E+04</rscale>
<asrwt>0</asrwt>
<pdfrwt beam="1">  1        2 0.11401363E+00 0.14798006E+04</pdfrwt>
<pdfrwt beam="2">  1       -1 0.11364830E+00 0.14798006E+04</pdfrwt>
<totfact> 0.29729164E+01</totfact>
</mgrwt>
</event>
<event>
12    6  0.1586493E-007  0.1831606E+04  0.7818608E-02  0.8689670E-01
          2   -1    0    0  501    0  0.00000000000E+00  0.00000000000E+00  0.24829866214E+04  0.24829866214E+04  0.00000000000E+00 0. -1.
         -1   -1    0    0    0  501 -0.00000000000E+00 -0.00000000000E+00 -0.33777687007E+03  0.33777687007E+03  0.00000000000E+00 0.  1.
         24    2    1    2    0    0  0.51426430616E+03  0.25224646135E+03  0.21848245648E+03  0.61833517354E+03  0.80670621651E+02 0.  0.
        254    2    1    2    0    0 -0.51426430616E+03 -0.25224646135E+03  0.19267272949E+04  0.22024283180E+04  0.90017574563E+03 0.  0.
         23    2    4    4    0    0 -0.20791065868E+03 -0.49398815202E+03  0.15843513103E+04  0.16753605610E+04  0.97019579264E+02 0.  0.
         23    2    4    4    0    0 -0.30635364748E+03  0.24174169068E+03  0.34237598463E+03  0.52706775694E+03  0.91035724964E+02 0.  0.
          2    1    3    3  502    0  0.24569481868E+02  0.34866212694E+02  0.14748197290E+02  0.45131159415E+02  0.00000000000E+00 0. -1.
         -3    1    3    3    0  502  0.48969482430E+03  0.21738024865E+03  0.20373425919E+03  0.57320401413E+03  0.00000000000E+00 0.  1.
         11    1    5    5    0    0 -0.20305104681E+03 -0.45775635153E+03  0.15299384884E+04  0.16098081822E+04  0.00000000000E+00 0.  1.
        -11    1    5    5    0    0 -0.48596118731E+01 -0.36231800493E+02  0.54412821850E+02  0.65552378875E+02  0.00000000000E+00 0. -1.
          1    1    6    6  503    0 -0.34042522740E+02  0.45568963356E+01  0.88009154686E+01  0.35455814358E+02  0.00000000000E+00 0. -1.
         -1    1    6    6    0  503 -0.27231112474E+03  0.23718479434E+03  0.33357506916E+03  0.49161194258E+03  0.00000000000E+00 0.  1.
<mgrwt>
<rscale>  0 0.18316063E+04</rscale>
<asrwt>0</asrwt>
<pdfrwt beam="1">  1        2 0.38199793E+00 0.18316063E+04</pdfrwt>
<pdfrwt beam="2">  1       -1 0.51965674E-01 0.18316063E+04</pdfrwt>
<totfact> 0.14248993E+01</totfact>
</mgrwt>
</event>
<event>
12    6  0.1586493E-007  0.1466493E+04  0.7818608E-02  0.8907045E-01
          2   -1    0    0  501    0  0.00000000000E+00  0.00000000000E+00  0.62656556281E+03  0.62656556281E+03  0.00000000000E+00 0. -1.
         -1   -1    0    0    0  501 -0.00000000000E+00 -0.00000000000E+00 -0.85809147275E+03  0.85809147275E+03  0.00000000000E+00 0.  1.
         24    2    1    2    0    0  0.35438000714E+03 -0.26434136929E+03 -0.16469665957E+03  0.47860837491E+03  0.80494955613E+02 0.  0.
        254    2    1    2    0    0 -0.35438000714E+03  0.26434136929E+03 -0.66829250373E+02  0.10060486607E+04  0.90122483871E+03 0.  0.
         23    2    4    4    0    0 -0.11731134003E+03  0.22732512176E+02  0.39713295088E+03  0.42486189132E+03  0.92273118575E+02 0.  0.
         23    2    4    4    0    0 -0.23706866710E+03  0.24160885712E+03 -0.46396220126E+03  0.58118676933E+03  0.89110851686E+02 0.  0.
          2    1    3    3  502    0  0.27179107460E+03 -0.22947217335E+03 -0.10492033184E+03  0.37085865584E+03  0.00000000000E+00 0. -1.
         -1    1    3    3    0  502  0.82588932533E+02 -0.34869195943E+02 -0.59776327729E+02  0.10774971907E+03  0.00000000000E+00 0.  1.
         11    1    5    5    0    0 -0.83393409475E+02 -0.99712761050E+01  0.13852708795E+03  0.16199889255E+03  0.00000000000E+00 0. -1.
        -11    1    5    5    0    0 -0.33917930558E+02  0.32703788281E+02  0.25860586294E+03  0.26286299878E+03  0.00000000000E+00 0.  1.
          3    1    6    6  503    0 -0.65543383614E+02  0.18100295293E+02 -0.99779903897E+02  0.12074595251E+03  0.00000000000E+00 0. -1.
         -3    1    6    6    0  503 -0.17152528349E+03  0.22350856182E+03 -0.36418229736E+03  0.46044081682E+03  0.00000000000E+00 0.  1.
<mgrwt>
<rscale>  0 0.14664932E+04</rscale>
<asrwt>0</asrwt>
<pdfrwt beam="1">  1        2 0.96394702E-01 0.14664932E+04</pdfrwt>
<pdfrwt beam="2">  1       -1 0.13201407E+00 0.14664932E+04</pdfrwt>
<totfact> 0.25399720E+01</totfact>
</mgrwt>
</event>
<event>
12    6  0.1586493E-007  0.1778040E+04  0.7818608E-02  0.8718065E-01
          2   -1    0    0  501    0  0.00000000000E+00  0.00000000000E+00  0.20383317957E+04  0.20383317957E+04  0.00000000000E+00 0. -1.
         -1   -1    0    0    0  501 -0.00000000000E+00 -0.00000000000E+00 -0.38774686892E+03  0.38774686892E+03  0.00000000000E+00 0.  1.
         24    2    1    2    0    0 -0.25747025912E+03  0.60880488916E+03  0.71242698133E+03  0.97500974111E+03  0.78469510909E+02 0.  0.
        254    2    1    2    0    0  0.25747025912E+03 -0.60880488916E+03  0.93815794544E+03  0.14510689235E+04  0.88799006906E+03 0.  0.
         23    2    4    4    0    0 -0.19840372623E+03 -0.17571229378E+02 -0.34867183924E+02  0.22191865511E+03  0.91429657594E+02 0.  0.
         23    2    4    4    0    0  0.45587398535E+03 -0.59123365978E+03  0.97302512936E+03  0.12291502684E+04  0.81572966825E+02 0.  0.
          2    1    3    3  502    0 -0.22993866465E+03  0.58252944958E+03  0.68475201611E+03  0.92795348628E+03  0.00000000000E+00 0. -1.
         -1    1    3    3    0  502 -0.27531594468E+02  0.26275439581E+02  0.27674965214E+02  0.47056254831E+02  0.00000000000E+00 0.  1.
         11    1    5    5    0    0 -0.42650901253E+02 -0.26565081300E+01  0.30340783871E+02  0.52409155489E+02  0.00000000000E+00 0. -1.
        -11    1    5    5    0    0 -0.15575282498E+03 -0.14914721248E+02 -0.65207967796E+02  0.16950949963E+03  0.00000000000E+00 0.  1.
          4    1    6    6  503    0  0.14838750618E+03 -0.14747466081E+03  0.23327723501E+03  0.31334628759E+03  0.00000000000E+00 0. -1.
         -4    1    6    6    0  503  0.30748647917E+03 -0.44375899897E+03  0.73974789435E+03  0.91580398080E+03  0.00000000000E+00 0.  1.
<mgrwt>
<rscale>  0 0.17780402E+04</rscale>
<asrwt>0</asrwt>
<pdfrwt beam="1">  1        2 0.31358950E+00 0.17780402E+04</pdfrwt>
<pdfrwt beam="2">  1       -1 0.59653366E-01 0.17780402E+04</pdfrwt>
<totfact> 0.19519139E+01</totfact>
</mgrwt>
</event>
<event>
12    6  0.1586493E-007  0.1704156E+04  0.7818608E-02  0.8758997E-01
         -1   -1    0    0    0  501 -0.00000000000E+00  0.00000000000E+00  0.49436581810E+03  0.49436581810E+03  0.00000000000E+00 0.  1.
          2   -1    0    0  501    0  0.00000000000E+00 -0.00000000000E+00 -0.14686230746E+04  0.14686230746E+04  0.00000000000E+00 0. -1.
         24    2    1    2    0    0  0.14890727235E+03  0.31355613688E+01 -0.10333178356E+04  0.10471206455E+04  0.80825054354E+02 0.  0.
        254    2    1    2    0    0 -0.14890727235E+03 -0.31355613688E+01  0.59060579132E+02  0.91586824714E+03  0.90174457947E+03 0.  0.
         23    2    4    4    0    0 -0.22984989579E+03  0.16053046560E+03  0.41244063732E+03  0.50775563774E+03  0.95433240350E+02 0.  0.
         23    2    4    4    0    0  0.80942623440E+02 -0.16366602696E+03 -0.35338005819E+03  0.40811260940E+03  0.91324475088E+02 0.  0.
          2    1    3    3  502    0  0.13776159373E+03  0.28593184788E+02 -0.90063278262E+03  0.91155649087E+03  0.00000000000E+00 0. -1.
         -1    1    3    3    0  502  0.11145678620E+02 -0.25457623419E+02 -0.13268505298E+03  0.13556415465E+03  0.00000000000E+00 0.  1.
         11    1    5    5    0    0 -0.17620070313E+03  0.76511691065E+02  0.31091873800E+03  0.36547392286E+03  0.00000000000E+00 0.  1.
        -11    1    5    5    0    0 -0.53649192657E+02  0.84018774530E+02  0.10152189932E+03  0.14228171488E+03  0.00000000000E+00 0. -1.
          1    1    6    6  503    0 -0.64724566611E+01 -0.18986248837E+02 -0.46755906518E+01  0.20596880542E+02  0.00000000000E+00 0. -1.
         -1    1    6    6    0  503  0.87415080101E+02 -0.14467977813E+03 -0.34870446754E+03  0.38751572885E+03  0.00000000000E+00 0.  1.
<mgrwt>
<rscale>  0 0.17041562E+04</rscale>
<asrwt>0</asrwt>
<pdfrwt beam="1">  1        2 0.22594201E+00 0.17041562E+04</pdfrwt>
<pdfrwt beam="2">  1       -1 0.76056281E-01 0.17041562E+04</pdfrwt>
<totfact> 0.24887900E+01</totfact>
</mgrwt>
</event>
<event>
12    6  0.1586493E-007  0.2743786E+04  0.7818608E-02  0.8320936E-01
          2   -1    0    0  501    0  0.00000000000E+00  0.00000000000E+00  0.11568657990E+04  0.11568657990E+04  0.00000000000E+00 0. -1.
         -1   -1    0    0    0  501 -0.00000000000E+00 -0.00000000000E+00 -0.16268873275E+04  0.16268873275E+04  0.00000000000E+00 0.  1.
         24    2    1    2    0    0 -0.65552754953E+03 -0.16613305454E+03  0.81770726213E+03  0.10641158258E+04  0.79879685740E+02 0.  0.
        254    2    1    2    0    0  0.65552754953E+03  0.16613305454E+03 -0.12877287907E+04  0.17196373006E+04  0.91738238887E+03 0.  0.
         23    2    4    4    0    0  0.10545534730E+03 -0.32440177571E+03 -0.65551475836E+03  0.74442186213E+03  0.90038702982E+02 0.  0.
         23    2    4    4    0    0  0.55007220223E+03  0.49053483025E+03 -0.63221403231E+03  0.97521543850E+03  0.90259190562E+02 0.  0.
          2    1    3    3  502    0 -0.28062988899E+03 -0.10717328090E+03  0.39075337635E+03  0.49287670655E+03  0.00000000000E+00 0. -1.
         -1    1    3    3    0  502 -0.37489766055E+03 -0.58959773643E+02  0.42695388578E+03  0.57123911926E+03  0.00000000000E+00 0.  1.
         11    1    5    5    0    0  0.45112909083E+02 -0.71604757636E+02 -0.99231442906E+02  0.13041968848E+03  0.00000000000E+00 0.  1.
        -11    1    5    5    0    0  0.60342438216E+02 -0.25279701808E+03 -0.55628331545E+03  0.61400217365E+03  0.00000000000E+00 0. -1.
          1    1    6    6  503    0  0.55292053317E+03  0.49119810284E+03 -0.62935024437E+03  0.97112224891E+03  0.00000000000E+00 0. -1.
         -1    1    6    6    0  503 -0.28483309409E+01 -0.66327258599E+00 -0.28637879400E+01  0.40931895921E+01  0.00000000000E+00 0.  1.
<mgrwt>
<rscale>  0 0.27437859E+04</rscale>
<asrwt>0</asrwt>
<pdfrwt beam="1">  1        2 0.17797935E+00 0.27437859E+04</pdfrwt>
<pdfrwt beam="2">  1       -1 0.25029036E+00 0.27437859E+04</pdfrwt>
<totfact> 0.13904039E+00</totfact>
</mgrwt>
</event>
<event>
12    6  0.1586493E-007  0.1247361E+04  0.7818608E-02  0.9072383E-01
         -1   -1    0    0    0  501 -0.00000000000E+00  0.00000000000E+00  0.22090399200E+03  0.22090399200E+03  0.00000000000E+00 0.  1.
          2   -1    0    0  501    0  0.00000000000E+00 -0.00000000000E+00 -0.17608436119E+04  0.17608436119E+04  0.00000000000E+00 0. -1.
         24    2    1    2    0    0  0.27840994885E+03  0.51118256686E+02 -0.26408939632E+03  0.39519370011E+03  0.79433466286E+02 0.  0.
        254    2    1    2    0    0 -0.27840994885E+03 -0.51118256686E+02 -0.12758502236E+04  0.15865539038E+04  0.89957452214E+03 0.  0.
         23    2    4    4    0    0  0.20765328774E+02  0.34239440788E+03 -0.87099620388E+03  0.94096337715E+03  0.95459732505E+02 0.  0.
         23    2    4    4    0    0 -0.29917527763E+03 -0.39351266457E+03 -0.40485401971E+03  0.64559052667E+03  0.92316233261E+02 0.  0.
          4    1    3    3  502    0  0.71697123418E+02  0.42050874304E+02 -0.10654047475E+03  0.13512818469E+03  0.00000000000E+00 0. -1.
         -3    1    3    3    0  502  0.20671282543E+03  0.90673823820E+01 -0.15754892157E+03  0.26006551542E+03  0.00000000000E+00 0.  1.
         11    1    5    5    0    0 -0.23269682759E+01  0.76001867248E+02 -0.10501772773E+03  0.12965501048E+03  0.00000000000E+00 0.  1.
        -11    1    5    5    0    0  0.23092297050E+02  0.26639254064E+03 -0.76597847615E+03  0.81130836666E+03  0.00000000000E+00 0. -1.
          4    1    6    6  503    0 -0.17028173397E+03 -0.23094244988E+03 -0.17561380146E+03  0.33640822128E+03  0.00000000000E+00 0. -1.
         -4    1    6    6    0  503 -0.12889354366E+03 -0.16257021469E+03 -0.22924021825E+03  0.30918230539E+03  0.00000000000E+00 0.  1.
<mgrwt>
<rscale>  0 0.12473610E+04</rscale>
<asrwt>0</asrwt>
<pdfrwt beam="1">  1        2 0.27089903E+00 0.12473610E+04</pdfrwt>
<pdfrwt beam="2">  1       -1 0.33985228E-01 0.12473610E+04</pdfrwt>
<totfact> 0.83162157E+01</totfact>
</mgrwt>
</event>
<event>
12    6  0.1586493E-007  0.1363632E+04  0.7818608E-02  0.8980573E-01
          2   -1    0    0  501    0  0.00000000000E+00  0.00000000000E+00  0.11576803535E+04  0.11576803535E+04  0.00000000000E+00 0. -1.
         -1   -1    0    0    0  501 -0.00000000000E+00 -0.00000000000E+00 -0.40155546870E+03  0.40155546870E+03  0.00000000000E+00 0.  1.
         24    2    1    2    0    0  0.35862270315E+03  0.52919459937E+02  0.87133534504E+02  0.38156626987E+03  0.81177909614E+02 0.  0.
        254    2    1    2    0    0 -0.35862270315E+03 -0.52919459937E+02  0.66899135028E+03  0.11776695523E+04  0.89885785042E+03 0.  0.
         23    2    4    4    0    0  0.12168652823E+03  0.29948808287E+02 -0.15143574401E+03  0.21901809570E+03  0.96600203978E+02 0.  0.
         23    2    4    4    0    0 -0.48030923138E+03 -0.82868268224E+02  0.82042709429E+03  0.95865145662E+03  0.91366791536E+02 0.  0.
          2    1    3    3  502    0  0.32408418390E+02 -0.15087750692E+02 -0.43415007497E+01  0.36011032091E+02  0.00000000000E+00 0. -1.
         -1    1    3    3    0  502  0.32621428476E+03  0.68007210629E+02  0.91475035254E+02  0.34555523778E+03  0.00000000000E+00 0.  1.
         11    1    5    5    0    0  0.10735273772E+03 -0.16438260361E+02 -0.11603925727E+03  0.15893374698E+03  0.00000000000E+00 0. -1.
        -11    1    5    5    0    0  0.14333790516E+02  0.46387068648E+02 -0.35396486741E+02  0.60084348727E+02  0.00000000000E+00 0.  1.
          3    1    6    6  503    0 -0.39278833570E+03 -0.85291581756E+02  0.72628150115E+03  0.83008562781E+03  0.00000000000E+00 0. -1.
         -3    1    6    6    0  503 -0.87520895678E+02  0.24233135321E+01  0.94145593142E+02  0.12856582881E+03  0.00000000000E+00 0.  1.
<mgrwt>
<rscale>  0 0.13636317E+04</rscale>
<asrwt>0</asrwt>
<pdfrwt beam="1">  1        2 0.17810467E+00 0.13636317E+04</pdfrwt>
<pdfrwt beam="2">  1       -1 0.61777765E-01 0.13636317E+04</pdfrwt>
<totfact> 0.59398940E+01</totfact>
</mgrwt>
</event>
<event>
12    6  0.1586493E-007  0.1684592E+04  0.7818608E-02  0.8770201E-01
         -1   -1    0    0    0  501 -0.00000000000E+00  0.00000000000E+00  0.42051960931E+03  0.42051960931E+03  0.00000000000E+00 0.  1.
          2   -1    0    0  501    0  0.00000000000E+00 -0.00000000000E+00 -0.16871088461E+04  0.16871088461E+04  0.00000000000E+00 0. -1.
         24    2    1    2    0    0  0.26877924825E+03 -0.11817720346E+03  0.19845594306E+03  0.36494435462E+03  0.87129127896E+02 0.  0.
        254    2    1    2    0    0 -0.26877924825E+03  0.11817720346E+03 -0.14650451799E+04  0.17426841008E+04  0.89687365912E+03 0.  0.
         23    2    4    4    0    0  0.53168676563E+02 -0.33203849678E+03 -0.34697214468E+03  0.49151608988E+03  0.90121728297E+02 0.  0.
         23    2    4    4    0    0 -0.32194792481E+03  0.45021570024E+03 -0.11180730352E+04  0.12511680109E+04  0.94812638997E+02 0.  0.
          2    1    3    3  502    0  0.15522132269E+03 -0.22934742900E+02  0.11782357286E+03  0.19621940722E+03  0.00000000000E+00 0. -1.
         -1    1    3    3    0  502  0.11355792556E+03 -0.95242460560E+02  0.80632370199E+02  0.16872494740E+03  0.00000000000E+00 0.  1.
         11    1    5    5    0    0  0.61908466623E+02 -0.21222745725E+03 -0.17608028059E+03  0.28262593134E+03  0.00000000000E+00 0. -1.
        -11    1    5    5    0    0 -0.87397900603E+01 -0.11981103954E+03 -0.17089186409E+03  0.20889015854E+03  0.00000000000E+00 0.  1.
          2    1    6    6  503    0 -0.31426825012E+03  0.45367200594E+03 -0.10884530521E+04  0.12203740692E+04  0.00000000000E+00 0. -1.
         -2    1    6    6    0  503 -0.76796746877E+01 -0.34563057018E+01 -0.29619983064E+02  0.30793941760E+02  0.00000000000E+00 0.  1.
<mgrwt>
<rscale>  0 0.16845918E+04</rscale>
<asrwt>0</asrwt>
<pdfrwt beam="1">  1        2 0.25955521E+00 0.16845918E+04</pdfrwt>
<pdfrwt beam="2">  1       -1 0.64695324E-01 0.16845918E+04</pdfrwt>
<totfact> 0.26213093E+01</totfact>
</mgrwt>
</event>
<event>
12    6  0.1586493E-007  0.1711352E+04  0.7818608E-02  0.8754916E-01
          2   -1    0    0  501    0  0.00000000000E+00  0.00000000000E+00  0.11135977327E+04  0.11135977327E+04  0.00000000000E+00 0. -1.
         -1   -1    0    0    0  501 -0.00000000000E+00 -0.00000000000E+00 -0.65749221572E+03  0.65749221572E+03  0.00000000000E+00 0.  1.
         24    2    1    2    0    0 -0.25922574734E+02 -0.27000320863E+02  0.79770640887E+03  0.80254310933E+03  0.79617399986E+02 0.  0.
        254    2    1    2    0    0  0.25922574734E+02  0.27000320863E+02 -0.34160089188E+03  0.96854683909E+03  0.90553344111E+03 0.  0.
         23    2    4    4    0    0  0.37692065519E+03  0.19812696311E+03 -0.36225642547E+03  0.56643690977E+03  0.91091059539E+02 0.  0.
         23    2    4    4    0    0 -0.35099808046E+03 -0.17112664225E+03  0.20655533595E+02  0.40210992932E+03  0.93711066683E+02 0.  0.
          4    1    3    3  502    0 -0.32903354084E+02 -0.34448906530E+02  0.78403484675E+03  0.78548074374E+03  0.00000000000E+00 0. -1.
         -3    1    3    3    0  502  0.69807793506E+01  0.74485856671E+01  0.13671562115E+02  0.17062365588E+02  0.00000000000E+00 0.  1.
         11    1    5    5    0    0  0.20342083787E+03  0.10647305643E+03 -0.13563683794E+03  0.26667189734E+03  0.00000000000E+00 0.  1.
        -11    1    5    5    0    0  0.17349981732E+03  0.91653906684E+02 -0.22661958753E+03  0.29976501242E+03  0.00000000000E+00 0. -1.
          1    1    6    6  503    0 -0.23516077570E+03 -0.12247740920E+03  0.57242403674E+02  0.27125264786E+03  0.00000000000E+00 0. -1.
         -1    1    6    6    0  503 -0.11583730476E+03 -0.48649233051E+02 -0.36586870079E+02  0.13085728146E+03  0.00000000000E+00 0.  1.
<mgrwt>
<rscale>  0 0.17113525E+04</rscale>
<asrwt>0</asrwt>
<pdfrwt beam="1">  1        2 0.17132273E+00 0.17113525E+04</pdfrwt>
<pdfrwt beam="2">  1       -1 0.10115265E+00 0.17113525E+04</pdfrwt>
<totfact> 0.21514126E+01</totfact>
</mgrwt>
</event>
<event>
12    6  0.1586493E-007  0.1794690E+04  0.7818608E-02  0.8709128E-01
          2   -1    0    0  501    0  0.00000000000E+00  0.00000000000E+00  0.11523555996E+04  0.11523555996E+04  0.00000000000E+00 0. -1.
         -1   -1    0    0    0  501 -0.00000000000E+00 -0.00000000000E+00 -0.69876686142E+03  0.69876686142E+03  0.00000000000E+00 0.  1.
         24    2    1    2    0    0 -0.79345403586E+02 -0.41002783217E+03 -0.37098720589E+03  0.56445241531E+03  0.80972254441E+02 0.  0.
        254    2    1    2    0    0  0.79345403586E+02  0.41002783217E+03  0.82457594411E+03  0.12866700458E+04  0.89508424342E+03 0.  0.
         23    2    4    4    0    0 -0.22021589623E+03  0.57874424310E+03  0.45138689416E+03  0.77194125027E+03  0.93291080946E+02 0.  0.
         23    2    4    4    0    0  0.29956129981E+03 -0.16871641093E+03  0.37318904995E+03  0.51472879548E+03  0.86449211893E+02 0.  0.
          4    1    3    3  502    0 -0.31108230182E+02 -0.33158159131E+02 -0.39252881898E+02  0.60066415236E+02  0.00000000000E+00 0. -1.
         -3    1    3    3    0  502 -0.48237173404E+02 -0.37686967304E+03 -0.33173432399E+03  0.50438600007E+03  0.00000000000E+00 0.  1.
         11    1    5    5    0    0 -0.17375448518E+03  0.39446719589E+03  0.35734501590E+03  0.55990217909E+03  0.00000000000E+00 0. -1.
        -11    1    5    5    0    0 -0.46461411042E+02  0.18427704721E+03  0.94041878259E+02  0.21203907119E+03  0.00000000000E+00 0.  1.
          1    1    6    6  503    0  0.21689525755E+03 -0.96188633261E+02  0.20383425087E+03  0.31280058783E+03  0.00000000000E+00 0. -1.
         -1    1    6    6    0  503  0.82666042259E+02 -0.72527777669E+02  0.16935479908E+03  0.20192820766E+03  0.00000000000E+00 0.  1.
<mgrwt>
<rscale>  0 0.17946898E+04</rscale>
<asrwt>0</asrwt>
<pdfrwt beam="1">  1        2 0.17728548E+00 0.17946898E+04</pdfrwt>
<pdfrwt beam="2">  1       -1 0.10750259E+00 0.17946898E+04</pdfrwt>
<totfact> 0.17561920E+01</totfact>
</mgrwt>
</event>
<event>
12    6  0.1586493E-007  0.1819910E+04  0.7818608E-02  0.8695783E-01
         -1   -1    0    0    0  501 -0.00000000000E+00  0.00000000000E+00  0.70800190893E+03  0.70800190893E+03  0.00000000000E+00 0.  1.
          2   -1    0    0  501    0  0.00000000000E+00 -0.00000000000E+00 -0.11695134164E+04  0.11695134164E+04  0.00000000000E+00 0. -1.
         24    2    1    2    0    0  0.11606994328E+03  0.83428930967E+02  0.51734514083E+03  0.54261766751E+03  0.79720261500E+02 0.  0.
        254    2    1    2    0    0 -0.11606994328E+03 -0.83428930967E+02 -0.97885664833E+03  0.13348976578E+04  0.89630285099E+03 0.  0.
         23    2    4    4    0    0 -0.42648166235E+03  0.18309662519E+03 -0.64516601476E+03  0.79995888589E+03  0.91016756855E+02 0.  0.
         23    2    4    4    0    0  0.31041171907E+03 -0.26652555616E+03 -0.33369063357E+03  0.53493877196E+03  0.86132127567E+02 0.  0.
          2    1    3    3  502    0  0.66268745970E+01  0.44557978923E+02  0.10562702007E+03  0.11483203526E+03  0.00000000000E+00 0. -1.
         -1    1    3    3    0  502  0.10944306868E+03  0.38870952044E+02  0.41171812076E+03  0.42778563225E+03  0.00000000000E+00 0.  1.
         11    1    5    5    0    0 -0.20903410093E+03  0.72341262190E+02 -0.37923357578E+03  0.43902917736E+03  0.00000000000E+00 0. -1.
        -11    1    5    5    0    0 -0.21744756142E+03  0.11075536300E+03 -0.26593243898E+03  0.36092970853E+03  0.00000000000E+00 0.  1.
          2    1    6    6  503    0  0.15324357261E+03 -0.14081676358E+03 -0.11516749649E+03  0.23785816298E+03  0.00000000000E+00 0. -1.
         -2    1    6    6    0  503  0.15716814646E+03 -0.12570879258E+03 -0.21852313708E+03  0.29708060898E+03  0.00000000000E+00 0.  1.
<mgrwt>
<rscale>  0 0.18199096E+04</rscale>
<asrwt>0</asrwt>
<pdfrwt beam="1">  1        2 0.17992514E+00 0.18199096E+04</pdfrwt>
<pdfrwt beam="2">  1       -1 0.10892337E+00 0.18199096E+04</pdfrwt>
<totfact> 0.16590157E+01</totfact>
</mgrwt>
</event>
<event>
12    6  0.1586493E-007  0.1458710E+04  0.7818608E-02  0.8912384E-01
         -1   -1    0    0    0  501 -0.00000000000E+00  0.00000000000E+00  0.82373953317E+03  0.82373953317E+03  0.00000000000E+00 0.  1.
          2   -1    0    0  501    0  0.00000000000E+00 -0.00000000000E+00 -0.64578515568E+03  0.64578515568E+03  0.00000000000E+00 0. -1.
         24    2    1    2    0    0  0.21240232994E+03 -0.38798928900E+03  0.14642691466E+03  0.47310239699E+03  0.82064599936E+02 0.  0.
        254    2    1    2    0    0 -0.21240232994E+03  0.38798928900E+03  0.31527462826E+02  0.99642229186E+03  0.89230766255E+03 0.  0.
         23    2    4    4    0    0 -0.41081660048E+03  0.55746788076E+03  0.11823694479E+03  0.70771029698E+03  0.85633942054E+02 0.  0.
         23    2    4    4    0    0  0.19841427054E+03 -0.16947859176E+03 -0.86709481967E+02  0.28871199487E+03  0.88004919737E+02 0.  0.
          2    1    3    3  502    0  0.19673072895E+03 -0.29054979192E+03  0.10716292982E+03  0.36688697827E+03  0.00000000000E+00 0. -1.
         -1    1    3    3    0  502  0.15671600989E+02 -0.97439497077E+02  0.39263984847E+02  0.10621541872E+03  0.00000000000E+00 0.  1.
         11    1    5    5    0    0 -0.16662354124E+03  0.29231661410E+03  0.39871031691E+02  0.33882459554E+03  0.00000000000E+00 0. -1.
        -11    1    5    5    0    0 -0.24419305924E+03  0.26515126666E+03  0.78365913102E+02  0.36888570144E+03  0.00000000000E+00 0.  1.
          2    1    6    6  503    0  0.93617966171E+02 -0.13363020980E+03 -0.36962996346E+02  0.16729500788E+03  0.00000000000E+00 0. -1.
         -2    1    6    6    0  503  0.10479630437E+03 -0.35848381965E+02 -0.49746485621E+02  0.12141698700E+03  0.00000000000E+00 0.  1.
<mgrwt>
<rscale>  0 0.14587101E+04</rscale>
<asrwt>0</asrwt>
<pdfrwt beam="1">  1        2 0.99351562E-01 0.14587101E+04</pdfrwt>
<pdfrwt beam="2">  1       -1 0.12672916E+00 0.14587101E+04</pdfrwt>
<totfact> 0.27145641E+01</totfact>
</mgrwt>
</event>
<event>
12    6  0.1586493E-007  0.3122543E+04  0.7818608E-02  0.8209578E-01
         -1   -1    0    0    0  501 -0.00000000000E+00  0.00000000000E+00  0.77282237596E+03  0.77282237596E+03  0.00000000000E+00 0.  1.
          2   -1    0    0  501    0  0.00000000000E+00 -0.00000000000E+00 -0.31541133811E+04  0.31541133811E+04  0.00000000000E+00 0. -1.
         24    2    1    2    0    0  0.27876529176E+03  0.14029502313E+04 -0.12140358763E+04  0.18781481297E+04  0.87050838466E+02 0.  0.
        254    2    1    2    0    0 -0.27876529176E+03 -0.14029502313E+04 -0.11672551288E+04  0.20487876273E+04  0.88829430188E+03 0.  0.
         23    2    4    4    0    0  0.22616574641E+03 -0.30230784646E+03 -0.58431167992E+03  0.70180074254E+03  0.92537365703E+02 0.  0.
         23    2    4    4    0    0 -0.50493103817E+03 -0.11006423849E+04 -0.58294344883E+03  0.13469868848E+04  0.90452145074E+02 0.  0.
          2    1    3    3  502    0  0.17812737298E+03  0.10453909786E+04 -0.86619433172E+03  0.13692568347E+04  0.00000000000E+00 0. -1.
         -1    1    3    3    0  502  0.10063791878E+03  0.35755925274E+03 -0.34784154462E+03  0.50889129495E+03  0.00000000000E+00 0.  1.
         11    1    5    5    0    0  0.22718029889E+03 -0.25616639000E+03 -0.52155438981E+03  0.62389990311E+03  0.00000000000E+00 0.  1.
        -11    1    5    5    0    0 -0.10145524832E+01 -0.46141456467E+02 -0.62757290116E+02  0.77900839433E+02  0.00000000000E+00 0. -1.
          3    1    6    6  503    0 -0.31379121781E+02 -0.13571726736E+03 -0.60198500987E+02  0.15174875770E+03  0.00000000000E+00 0. -1.
         -3    1    6    6    0  503 -0.47355191639E+03 -0.96492511753E+03 -0.52274494784E+03  0.11952381271E+04  0.00000000000E+00 0.  1.
<mgrwt>
<rscale>  0 0.31225434E+04</rscale>
<asrwt>0</asrwt>
<pdfrwt beam="1">  1        2 0.48524822E+00 0.31225434E+04</pdfrwt>
<pdfrwt beam="2">  1       -1 0.11889575E+00 0.31225434E+04</pdfrwt>
<totfact> 0.84598462E-01</totfact>
</mgrwt>
</event>
<event>
12    6  0.1586493E-007  0.1724027E+04  0.7818608E-02  0.8747778E-01
          2   -1    0    0  501    0  0.00000000000E+00  0.00000000000E+00  0.16342145342E+04  0.16342145342E+04  0.00000000000E+00 0. -1.
         -1   -1    0    0    0  501 -0.00000000000E+00 -0.00000000000E+00 -0.45469403329E+03  0.45469403329E+03  0.00000000000E+00 0.  1.
         24    2    1    2    0    0  0.25192467173E+03  0.30460365626E+03  0.10159801653E+04  0.10930838884E+04  0.79795132918E+02 0.  0.
        254    2    1    2    0    0 -0.25192467173E+03 -0.30460365626E+03  0.16354033563E+03  0.99582467908E+03  0.89926187646E+03 0.  0.
         23    2    4    4    0    0 -0.21020832519E+03 -0.93939359774E+02 -0.35084402092E+03  0.43032586928E+03  0.95271629882E+02 0.  0.
         23    2    4    4    0    0 -0.41716346539E+02 -0.21066429648E+03  0.51438435655E+03  0.56549880980E+03  0.95278214924E+02 0.  0.
          2    1    3    3  502    0  0.18392575419E+03  0.20267931785E+03  0.60083010074E+03  0.66023056495E+03  0.00000000000E+00 0. -1.
         -1    1    3    3    0  502  0.67998917544E+02  0.10192433840E+03  0.41515006456E+03  0.43285332349E+03  0.00000000000E+00 0.  1.
         11    1    5    5    0    0 -0.12435315055E+02 -0.14890709427E+01  0.44730454158E+01  0.13298967181E+02  0.00000000000E+00 0.  1.
        -11    1    5    5    0    0 -0.19777301014E+03 -0.92450288831E+02 -0.35531706634E+03  0.41702690210E+03  0.00000000000E+00 0. -1.
          3    1    6    6  503    0  0.23895896935E+02 -0.44305777830E+02  0.17214122203E+03  0.17935053989E+03  0.00000000000E+00 0. -1.
         -3    1    6    6    0  503 -0.65612243474E+02 -0.16635851865E+03  0.34224313453E+03  0.38614826991E+03  0.00000000000E+00 0.  1.
<mgrwt>
<rscale>  0 0.17240274E+04</rscale>
<asrwt>0</asrwt>
<pdfrwt beam="1">  1        2 0.25141762E+00 0.17240274E+04</pdfrwt>
<pdfrwt beam="2">  1       -1 0.69952929E-01 0.17240274E+04</pdfrwt>
<totfact> 0.23854985E+01</totfact>
</mgrwt>
</event>
<event>
12    6  0.1586493E-007  0.1395062E+04  0.7818608E-02  0.8957401E-01
          2   -1    0    0  501    0  0.00000000000E+00  0.00000000000E+00  0.10002092177E+04  0.10002092177E+04  0.00000000000E+00 0. -1.
         -1   -1    0    0    0  501 -0.00000000000E+00 -0.00000000000E+00 -0.48644764939E+03  0.48644764939E+03  0.00000000000E+00 0.  1.
         24    2    1    2    0    0  0.95792994807E+02  0.53324041547E+01  0.52937069670E+03  0.54368961989E+03  0.78487807078E+02 0.  0.
        254    2    1    2    0    0 -0.95792994807E+02 -0.53324041547E+01 -0.15609128416E+02  0.94296724717E+03  0.93794394926E+03 0.  0.
         23    2    4    4    0    0  0.25644972224E+03 -0.34381625364E+03  0.52805943945E+02  0.44157347506E+03  0.90678497197E+02 0.  0.
         23    2    4    4    0    0 -0.35224271705E+03  0.33848384949E+03 -0.68415072362E+02  0.50139377211E+03  0.89826747154E+02 0.  0.
          2    1    3    3  502    0  0.10486677064E+03  0.16472866604E+01  0.51873668207E+03  0.52923293403E+03  0.00000000000E+00 0. -1.
         -1    1    3    3    0  502 -0.90737758325E+01  0.36851174942E+01  0.10634014632E+02  0.14456685858E+02  0.00000000000E+00 0.  1.
         11    1    5    5    0    0  0.26147580445E+03 -0.34249877179E+03  0.57313179221E+02  0.43469507186E+03  0.00000000000E+00 0. -1.
        -11    1    5    5    0    0 -0.50260822020E+01 -0.13174818505E+01 -0.45072352754E+01  0.68784031980E+01  0.00000000000E+00 0.  1.
          4    1    6    6  503    0 -0.17781237999E+03  0.14288766714E+03 -0.72285604072E+02  0.23928923180E+03  0.00000000000E+00 0. -1.
         -4    1    6    6    0  503 -0.17443033706E+03  0.19559618235E+03  0.38705317104E+01  0.26210454031E+03  0.00000000000E+00 0.  1.
<mgrwt>
<rscale>  0 0.13950619E+04</rscale>
<asrwt>0</asrwt>
<pdfrwt beam="1">  1        2 0.15387834E+00 0.13950619E+04</pdfrwt>
<pdfrwt beam="2">  1       -1 0.74838100E-01 0.13950619E+04</pdfrwt>
<totfact> 0.50247746E+01</totfact>
</mgrwt>
</event>
<event>
12    6  0.1586493E-007  0.1462864E+04  0.7818608E-02  0.8909531E-01
         -1   -1    0    0    0  501 -0.00000000000E+00  0.00000000000E+00  0.49790375034E+03  0.49790375034E+03  0.00000000000E+00 0.  1.
          2   -1    0    0  501    0  0.00000000000E+00 -0.00000000000E+00 -0.10744900362E+04  0.10744900362E+04  0.00000000000E+00 0. -1.
         24    2    1    2    0    0  0.32880781533E+03  0.19345912820E+03  0.75620941857E+02  0.39766706734E+03  0.82943088289E+02 0.  0.
        254    2    1    2    0    0 -0.32880781533E+03 -0.19345912820E+03 -0.65220722770E+03  0.11747267192E+04  0.89948184150E+03 0.  0.
         23    2    4    4    0    0 -0.14137061707E+03 -0.52112221804E+03 -0.21176747457E+03  0.58685404354E+03  0.89432587031E+02 0.  0.
         23    2    4    4    0    0 -0.18743719826E+03  0.32766308984E+03 -0.44043975313E+03  0.58787267565E+03  0.95453145060E+02 0.  0.
          4    1    3    3  502    0  0.18733938763E+03  0.93722923465E+02  0.80747279880E+02  0.22449979008E+03  0.00000000000E+00 0. -1.
         -3    1    3    3    0  502  0.14146842770E+03  0.99736204734E+02 -0.51263380234E+01  0.17316727726E+03  0.00000000000E+00 0.  1.
         11    1    5    5    0    0 -0.13753227822E+03 -0.46372749559E+03 -0.21481959751E+03  0.52925020283E+03  0.00000000000E+00 0. -1.
        -11    1    5    5    0    0 -0.38383388558E+01 -0.57394722448E+02  0.30521229365E+01  0.57603840710E+02  0.00000000000E+00 0.  1.
          3    1    6    6  503    0 -0.12611193833E+03  0.25956856094E+03 -0.27435658335E+03  0.39818537598E+03  0.00000000000E+00 0. -1.
         -3    1    6    6    0  503 -0.61325259927E+02  0.68094528904E+02 -0.16608316978E+03  0.18968729967E+03  0.00000000000E+00 0.  1.
<mgrwt>
<rscale>  0 0.14628638E+04</rscale>
<asrwt>0</asrwt>
<pdfrwt beam="1">  1        2 0.16530616E+00 0.14628638E+04</pdfrwt>
<pdfrwt beam="2">  1       -1 0.76600578E-01 0.14628638E+04</pdfrwt>
<totfact> 0.42715270E+01</totfact>
</mgrwt>
</event>
<event>
12    6  0.1586493E-007  0.1563341E+04  0.7818608E-02  0.8843391E-01
          2   -1    0    0  501    0  0.00000000000E+00  0.00000000000E+00  0.91456385715E+03  0.91456385715E+03  0.00000000000E+00 0. -1.
         -1   -1    0    0    0  501 -0.00000000000E+00 -0.00000000000E+00 -0.66808782769E+03  0.66808782769E+03  0.00000000000E+00 0.  1.
         24    2    1    2    0    0 -0.33957453069E+03  0.13057911820E+03 -0.27690669186E+03  0.46579437763E+03  0.89024256390E+02 0.  0.
        254    2    1    2    0    0  0.33957453069E+03 -0.13057911820E+03  0.52338272132E+03  0.11168573072E+04  0.91710359486E+03 0.  0.
         23    2    4    4    0    0  0.23244826048E+03  0.31405124850E+03  0.51232462770E+03  0.65063992182E+03  0.90528466409E+02 0.  0.
         23    2    4    4    0    0  0.10712627021E+03 -0.44463036670E+03  0.11058093623E+02  0.46621738540E+03  0.89800714093E+02 0.  0.
          4    1    3    3  502    0 -0.87386585907E+02 -0.55541964813E+01 -0.74091548527E+02  0.11470319114E+03  0.00000000000E+00 0. -1.
         -1    1    3    3    0  502 -0.25218794478E+03  0.13613331468E+03 -0.20281514333E+03  0.35109118648E+03  0.00000000000E+00 0.  1.
         11    1    5    5    0    0  0.85154916949E+02  0.18971981630E+03  0.25206758577E+03  0.32677673781E+03  0.00000000000E+00 0. -1.
        -11    1    5    5    0    0  0.14729334353E+03  0.12433143220E+03  0.26025704192E+03  0.32386318400E+03  0.00000000000E+00 0.  1.
          4    1    6    6  503    0  0.12295764290E+03 -0.38161517876E+03  0.50481563961E+01  0.40096659523E+03  0.00000000000E+00 0. -1.
         -4    1    6    6    0  503 -0.15831372685E+02 -0.63015187945E+02  0.60099372268E+01  0.65250790173E+02  0.00000000000E+00 0.  1.
<mgrwt>
<rscale>  0 0.15633413E+04</rscale>
<asrwt>0</asrwt>
<pdfrwt beam="1">  1        2 0.14070213E+00 0.15633413E+04</pdfrwt>
<pdfrwt beam="2">  1       -1 0.10278274E+00 0.15633413E+04</pdfrwt>
<totfact> 0.28152211E+01</totfact>
</mgrwt>
</event>
<event>
12    6  0.1586493E-007  0.1101175E+04  0.7818608E-02  0.9204048E-01
         -1   -1    0    0    0  501 -0.00000000000E+00  0.00000000000E+00  0.59172866169E+03  0.59172866169E+03  0.00000000000E+00 0.  1.
          2   -1    0    0  501    0  0.00000000000E+00 -0.00000000000E+00 -0.51230657881E+03  0.51230657881E+03  0.00000000000E+00 0. -1.
         24    2    1    2    0    0 -0.15246721530E+03 -0.75662649827E+02  0.10515967922E+03  0.21581205133E+03  0.80902379743E+02 0.  0.
        254    2    1    2    0    0  0.15246721530E+03  0.75662649827E+02 -0.25737596339E+02  0.88822318917E+03  0.87138219031E+03 0.  0.
         23    2    4    4    0    0  0.56418458598E+01  0.27646336834E+03 -0.35871072991E+03  0.46259921772E+03  0.94131950080E+02 0.  0.
         23    2    4    4    0    0  0.14682536944E+03 -0.20080071851E+03  0.33297313357E+03  0.42562397145E+03  0.91684457422E+02 0.  0.
          2    1    3    3  502    0 -0.11434070271E+02 -0.60678225425E+01 -0.13572809489E+02  0.18755734877E+02  0.00000000000E+00 0. -1.
         -1    1    3    3    0  502 -0.14103314503E+03 -0.69594827284E+02  0.11873248871E+03  0.19705631646E+03  0.00000000000E+00 0.  1.
         11    1    5    5    0    0 -0.32372777380E+02  0.43606015862E+02 -0.88921276028E+02  0.10419440803E+03  0.00000000000E+00 0.  1.
        -11    1    5    5    0    0  0.38014623240E+02  0.23285735248E+03 -0.26978945388E+03  0.35840480968E+03  0.00000000000E+00 0. -1.
          3    1    6    6  503    0  0.87709995060E+02 -0.14235268568E+03  0.14989982650E+03  0.22456021095E+03  0.00000000000E+00 0. -1.
         -3    1    6    6    0  503  0.59115374377E+02 -0.58448032826E+02  0.18307330706E+03  0.20106376051E+03  0.00000000000E+00 0.  1.
<mgrwt>
<rscale>  0 0.11011748E+04</rscale>
<asrwt>0</asrwt>
<pdfrwt beam="1">  1        2 0.78816397E-01 0.11011748E+04</pdfrwt>
<pdfrwt beam="2">  1       -1 0.91035179E-01 0.11011748E+04</pdfrwt>
<totfact> 0.80078873E+01</totfact>
</mgrwt>
</event>
<event>
12    6  0.1586493E-007  0.2966878E+04  0.7818608E-02  0.8253253E-01
          2   -1    0    0  501    0  0.00000000000E+00  0.00000000000E+00  0.39215586827E+04  0.39215586827E+04  0.00000000000E+00 0. -1.
         -1   -1    0    0    0  501 -0.00000000000E+00 -0.00000000000E+00 -0.56115207013E+03  0.56115207013E+03  0.00000000000E+00 0.  1.
         24    2    1    2    0    0  0.88817961832E+03  0.70862464815E+03  0.43651845645E+03  0.12198841413E+04  0.80975483643E+02 0.  0.
        254    2    1    2    0    0 -0.88817961832E+03 -0.70862464815E+03  0.29238881562E+04  0.32628266116E+04  0.89772134943E+03 0.  0.
         23    2    4    4    0    0 -0.76485403530E+03 -0.42250208474E+03  0.27589536400E+04  0.28954197677E+04  0.90115131560E+02 0.  0.
         23    2    4    4    0    0 -0.12332558302E+03 -0.28612256340E+03  0.16493451621E+03  0.36740684387E+03  0.10348465381E+03 0.  0.
          4    1    3    3  502    0  0.27233936169E+03  0.18065765533E+03  0.15001760289E+03  0.35959866175E+03  0.00000000000E+00 0. -1.
         -3    1    3    3    0  502  0.61584025663E+03  0.52796699282E+03  0.28650085356E+03  0.86028547953E+03  0.00000000000E+00 0.  1.
         11    1    5    5    0    0 -0.51244171621E+03 -0.23752114316E+03  0.18290852184E+04  0.19143054987E+04  0.00000000000E+00 0. -1.
        -11    1    5    5    0    0 -0.25241231910E+03 -0.18498094158E+03  0.92986842153E+03  0.98111426905E+03  0.00000000000E+00 0.  1.
          3    1    6    6  503    0 -0.32085509529E+02 -0.20092570258E+03  0.10266207893E+03  0.22790375233E+03  0.00000000000E+00 0. -1.
         -3    1    6    6    0  503 -0.91240073490E+02 -0.85196860829E+02  0.62272437277E+02  0.13950309154E+03  0.00000000000E+00 0.  1.
<mgrwt>
<rscale>  0 0.29668777E+04</rscale>
<asrwt>0</asrwt>
<pdfrwt beam="1">  1        2 0.60331670E+00 0.29668777E+04</pdfrwt>
<pdfrwt beam="2">  1       -1 0.86331090E-01 0.29668777E+04</pdfrwt>
<totfact> 0.51000148E-01</totfact>
</mgrwt>
</event>
<event>
12    6  0.1586493E-007  0.1318213E+04  0.7818608E-02  0.9015245E-01
         -1   -1    0    0    0  501 -0.00000000000E+00  0.00000000000E+00  0.20500273401E+03  0.20500273401E+03  0.00000000000E+00 0.  1.
          2   -1    0    0  501    0  0.00000000000E+00 -0.00000000000E+00 -0.21191004675E+04  0.21191004675E+04  0.00000000000E+00 0. -1.
         24    2    1    2    0    0  0.18898914345E+03  0.18045852594E+03 -0.92118367111E+03  0.96101270147E+03  0.81755003211E+02 0.  0.
        254    2    1    2    0    0 -0.18898914345E+03 -0.18045852594E+03 -0.99291406240E+03  0.13630905001E+04  0.89657972322E+03 0.  0.
         23    2    4    4    0    0  0.13171977104E+03  0.27675390244E+03 -0.16567205585E+03  0.36103627111E+03  0.94642159563E+02 0.  0.
         23    2    4    4    0    0 -0.32070891449E+03 -0.45721242838E+03 -0.82724200656E+03  0.10020542289E+04  0.88802746814E+02 0.  0.
          4    1    3    3  502    0  0.19243831257E+03  0.18460323647E+03 -0.91349451943E+03  0.95162129867E+03  0.00000000000E+00 0. -1.
         -3    1    3    3    0  502 -0.34491691168E+01 -0.41447105360E+01 -0.76891516836E+01  0.93914028046E+01  0.00000000000E+00 0.  1.
         11    1    5    5    0    0  0.55859619241E+02  0.44451712865E+02 -0.12081706699E+02  0.72403173101E+02  0.00000000000E+00 0. -1.
        -11    1    5    5    0    0  0.75860151799E+02  0.23230218958E+03 -0.15359034915E+03  0.28863309801E+03  0.00000000000E+00 0.  1.
          3    1    6    6  503    0 -0.20274898012E+03 -0.21551318651E+03 -0.40927996863E+03  0.50503779583E+03  0.00000000000E+00 0. -1.
         -3    1    6    6    0  503 -0.11795993437E+03 -0.24169924187E+03 -0.41796203793E+03  0.49701643311E+03  0.00000000000E+00 0.  1.
<mgrwt>
<rscale>  0 0.13182130E+04</rscale>
<asrwt>0</asrwt>
<pdfrwt beam="1">  1        2 0.32601545E+00 0.13182130E+04</pdfrwt>
<pdfrwt beam="2">  1       -1 0.31538882E-01 0.13182130E+04</pdfrwt>
<totfact> 0.59811238E+01</totfact>
</mgrwt>
</event>
<event>
12    6  0.1586493E-007  0.1121597E+04  0.7818608E-02  0.9184393E-01
         -1   -1    0    0    0  501 -0.00000000000E+00  0.00000000000E+00  0.24904069491E+03  0.24904069491E+03  0.00000000000E+00 0.  1.
          2   -1    0    0  501    0  0.00000000000E+00 -0.00000000000E+00 -0.12628266744E+04  0.12628266744E+04  0.00000000000E+00 0. -1.
         24    2    1    2    0    0 -0.22552178078E+02 -0.13552743747E+03 -0.79915924523E+01  0.15849708347E+03  0.78620435483E+02 0.  0.
        254    2    1    2    0    0  0.22552178078E+02  0.13552743747E+03 -0.10057943870E+04  0.13533702858E+04  0.89504887830E+03 0.  0.
         23    2    4    4    0    0  0.15023217511E+03  0.37082655048E+03 -0.12900632588E+03  0.43219345565E+03  0.10033201885E+03 0.  0.
         23    2    4    4    0    0 -0.12767999703E+03 -0.23529911301E+03 -0.87678806115E+03  0.92117683019E+03  0.90230782309E+02 0.  0.
          2    1    3    3  502    0  0.81706396855E+01 -0.58717054370E+02 -0.38090176749E+02  0.70464979894E+02  0.00000000000E+00 0. -1.
         -1    1    3    3    0  502 -0.30722817763E+02 -0.76810383104E+02  0.30098584297E+02  0.88032103580E+02  0.00000000000E+00 0.  1.
         11    1    5    5    0    0  0.38028026234E+02  0.54741242695E+02  0.13087560267E+02  0.67926568180E+02  0.00000000000E+00 0. -1.
        -11    1    5    5    0    0  0.11220414887E+03  0.31608530779E+03 -0.14209388615E+03  0.36426688747E+03  0.00000000000E+00 0.  1.
          4    1    6    6  503    0 -0.10078014436E+03 -0.13001395073E+03 -0.63729938417E+03  0.65818748844E+03  0.00000000000E+00 0. -1.
         -4    1    6    6    0  503 -0.26899852670E+02 -0.10528516227E+03 -0.23948867698E+03  0.26298934174E+03  0.00000000000E+00 0.  1.
<mgrwt>
<rscale>  0 0.11215975E+04</rscale>
<asrwt>0</asrwt>
<pdfrwt beam="1">  1        2 0.19428103E+00 0.11215975E+04</pdfrwt>
<pdfrwt beam="2">  1       -1 0.38313953E-01 0.11215975E+04</pdfrwt>
<totfact> 0.12934219E+02</totfact>
</mgrwt>
</event>
<event>
12    6  0.1586493E-007  0.1149587E+04  0.7818608E-02  0.9158164E-01
          2   -1    0    0  501    0  0.00000000000E+00  0.00000000000E+00  0.96631392827E+03  0.96631392827E+03  0.00000000000E+00 0. -1.
         -1   -1    0    0    0  501 -0.00000000000E+00 -0.00000000000E+00 -0.34190526426E+03  0.34190526426E+03  0.00000000000E+00 0.  1.
         24    2    1    2    0    0  0.54078623623E+01 -0.21129785334E+03  0.17287079999E+03  0.28246933867E+03  0.72308962079E+02 0.  0.
        254    2    1    2    0    0 -0.54078623623E+01  0.21129785334E+03  0.45153786402E+03  0.10257498539E+04  0.89643755625E+03 0.  0.
         23    2    4    4    0    0  0.26420648938E+03 -0.73004158198E+01  0.58173286171E+03  0.64601388322E+03  0.95196900237E+02 0.  0.
         23    2    4    4    0    0 -0.26961435174E+03  0.21859826916E+03 -0.13019499770E+03  0.37973597064E+03  0.82289537802E+02 0.  0.
          4    1    3    3  502    0  0.26550844203E+02 -0.19290249581E+03  0.15789743917E+03  0.25069487732E+03  0.00000000000E+00 0. -1.
         -3    1    3    3    0  502 -0.21142981841E+02 -0.18395357531E+02  0.14973360820E+02  0.31774461350E+02  0.00000000000E+00 0.  1.
         11    1    5    5    0    0 -0.73278993120E+01 -0.28742957984E+01  0.30726687644E+02  0.31718906321E+02  0.00000000000E+00 0.  1.
        -11    1    5    5    0    0  0.27153438869E+03 -0.44261200214E+01  0.55100617407E+03  0.61429497690E+03  0.00000000000E+00 0. -1.
          3    1    6    6  503    0 -0.19219555224E+03  0.14905963152E+03 -0.12975624661E+03  0.27567115842E+03  0.00000000000E+00 0. -1.
         -3    1    6    6    0  503 -0.77418799502E+02  0.69538637637E+02 -0.43875108597E+00  0.10406481222E+03  0.00000000000E+00 0.  1.
<mgrwt>
<rscale>  0 0.11495874E+04</rscale>
<asrwt>0</asrwt>
<pdfrwt beam="1">  1        2 0.14866368E+00 0.11495874E+04</pdfrwt>
<pdfrwt beam="2">  1       -1 0.52600810E-01 0.11495874E+04</pdfrwt>
<totfact> 0.10891822E+02</totfact>
</mgrwt>
</event>
<event>
12    6  0.1586493E-007  0.2047801E+04  0.7818608E-02  0.8584592E-01
         -1   -1    0    0    0  501 -0.00000000000E+00  0.00000000000E+00  0.84815023502E+03  0.84815023502E+03  0.00000000000E+00 0.  1.
          2   -1    0    0  501    0  0.00000000000E+00 -0.00000000000E+00 -0.12360695181E+04  0.12360695181E+04  0.00000000000E+00 0. -1.
         24    2    1    2    0    0 -0.63655784451E+03  0.10926239365E+03 -0.67719149768E+03  0.93943416808E+03  0.82486796246E+02 0.  0.
        254    2    1    2    0    0  0.63655784451E+03 -0.10926239365E+03  0.28927221464E+03  0.11447855850E+04  0.89983968649E+03 0.  0.
         23    2    4    4    0    0  0.14728500830E+03  0.36598655956E+03  0.18081971011E+02  0.40513293479E+03  0.90369805418E+02 0.  0.
         23    2    4    4    0    0  0.48927283621E+03 -0.47524895321E+03  0.27119024363E+03  0.73965265020E+03  0.91062719721E+02 0.  0.
          4    1    3    3  502    0 -0.56370432207E+03  0.11012792066E+03 -0.63054193813E+03  0.85292078024E+03  0.00000000000E+00 0. -1.
         -3    1    3    3    0  502 -0.72853522443E+02 -0.86552700521E+00 -0.46649559546E+02  0.86513387838E+02  0.00000000000E+00 0.  1.
         11    1    5    5    0    0  0.93770164683E+02  0.24894970879E+03  0.54157347305E+02  0.27148079040E+03  0.00000000000E+00 0. -1.
        -11    1    5    5    0    0  0.53514843615E+02  0.11703685077E+03 -0.36075376294E+02  0.13365214439E+03  0.00000000000E+00 0.  1.
          3    1    6    6  503    0  0.45534759892E+03 -0.46343379474E+03  0.24180108951E+03  0.69323883680E+03  0.00000000000E+00 0. -1.
         -3    1    6    6    0  503  0.33925237289E+02 -0.11815158473E+02  0.29389154123E+02  0.46413813406E+02  0.00000000000E+00 0.  1.
<mgrwt>
<rscale>  0 0.20478014E+04</rscale>
<asrwt>0</asrwt>
<pdfrwt beam="1">  1        2 0.19016454E+00 0.20478014E+04</pdfrwt>
<pdfrwt beam="2">  1       -1 0.13048465E+00 0.20478014E+04</pdfrwt>
<totfact> 0.95557857E+00</totfact>
</mgrwt>
</event>
<event>
12    6  0.1586493E-007  0.2648254E+04  0.7818608E-02  0.8351993E-01
          2   -1    0    0  501    0  0.00000000000E+00  0.00000000000E+00  0.19389755335E+04  0.19389755335E+04  0.00000000000E+00 0. -1.
         -1   -1    0    0    0  501 -0.00000000000E+00 -0.00000000000E+00 -0.90424654498E+03  0.90424654498E+03  0.00000000000E+00 0.  1.
         24    2    1    2    0    0 -0.71746918234E+03 -0.35309807614E+03  0.14012645468E+04  0.16153519743E+04  0.79871094389E+02 0.  0.
        254    2    1    2    0    0  0.71746918234E+03  0.35309807614E+03 -0.36653555831E+03  0.12278701042E+04  0.85666586147E+03 0.  0.
         23    2    4    4    0    0  0.78698183878E+03  0.14185471859E+03 -0.18592618256E+02  0.80495970265E+03  0.90284337995E+02 0.  0.
         23    2    4    4    0    0 -0.69512656434E+02  0.21124335755E+03 -0.34794294006E+03  0.42291040152E+03  0.91286103320E+02 0.  0.
          4    1    3    3  502    0 -0.23322679529E+03 -0.13656427996E+03  0.40963136497E+03  0.49075696202E+03  0.00000000000E+00 0. -1.
         -3    1    3    3    0  502 -0.48424238706E+03 -0.21653379618E+03  0.99163318185E+03  0.11245950123E+04  0.00000000000E+00 0.  1.
         11    1    5    5    0    0  0.11100360275E+02  0.14209295204E+02 -0.42137954237E+01  0.18516968982E+02  0.00000000000E+00 0.  1.
        -11    1    5    5    0    0  0.77588147850E+03  0.12764542339E+03 -0.14378822833E+02  0.78644273367E+03  0.00000000000E+00 0. -1.
          2    1    6    6  503    0 -0.23128850963E+02  0.10099012305E+03 -0.24153271244E+03  0.26281552443E+03  0.00000000000E+00 0. -1.
         -2    1    6    6    0  503 -0.46383805470E+02  0.11025323451E+03 -0.10641022762E+03  0.16009487709E+03  0.00000000000E+00 0.  1.
<mgrwt>
<rscale>  0 0.26482537E+04</rscale>
<asrwt>0</asrwt>
<pdfrwt beam="1">  1        2 0.29830393E+00 0.26482537E+04</pdfrwt>
<pdfrwt beam="2">  1       -1 0.13911485E+00 0.26482537E+04</pdfrwt>
<totfact> 0.30864371E+00</totfact>
</mgrwt>
</event>
<event>
12    6  0.1586493E-007  0.1163081E+04  0.7818608E-02  0.9145800E-01
         -1   -1    0    0    0  501 -0.00000000000E+00  0.00000000000E+00  0.41003163950E+03  0.41003163950E+03  0.00000000000E+00 0.  1.
          2   -1    0    0  501    0  0.00000000000E+00 -0.00000000000E+00 -0.82478880563E+03  0.82478880563E+03  0.00000000000E+00 0. -1.
         24    2    1    2    0    0 -0.34719800141E+02  0.21032724037E+02 -0.32615331152E+03  0.33827687646E+03  0.80046377353E+02 0.  0.
        254    2    1    2    0    0  0.34719800141E+02 -0.21032724037E+02 -0.88603854609E+02  0.89654356867E+03  0.89123054676E+03 0.  0.
         23    2    4    4    0    0  0.84397771754E+02 -0.21690302561E+03  0.33587757690E+03  0.41826846008E+03  0.89246017489E+02 0.  0.
         23    2    4    4    0    0 -0.49677971613E+02  0.19587030157E+03 -0.42448143151E+03  0.47827510859E+03  0.87917676857E+02 0.  0.
          4    1    3    3  502    0 -0.72167385181E+01  0.17204341325E+02 -0.29851837641E+03  0.29910080530E+03  0.00000000000E+00 0. -1.
         -3    1    3    3    0  502 -0.27503061622E+02  0.38283827123E+01 -0.27634935106E+02  0.39176071155E+02  0.00000000000E+00 0.  1.
         11    1    5    5    0    0  0.36425110425E+02 -0.15435884097E+02  0.78584295715E+02  0.87980376905E+02  0.00000000000E+00 0.  1.
        -11    1    5    5    0    0  0.47972661329E+02 -0.20146714151E+03  0.25729328118E+03  0.33028808317E+03  0.00000000000E+00 0. -1.
          3    1    6    6  503    0 -0.13120016300E+02  0.18001382441E+03 -0.34467553439E+03  0.38907368944E+03  0.00000000000E+00 0. -1.
         -3    1    6    6    0  503 -0.36557955313E+02  0.15856477165E+02 -0.79805897116E+02  0.89201419155E+02  0.00000000000E+00 0.  1.
<mgrwt>
<rscale>  0 0.11630813E+04</rscale>
<asrwt>0</asrwt>
<pdfrwt beam="1">  1        2 0.12689059E+00 0.11630813E+04</pdfrwt>
<pdfrwt beam="2">  1       -1 0.63081791E-01 0.11630813E+04</pdfrwt>
<totfact> 0.95158800E+01</totfact>
</mgrwt>
</event>
<event>
12    6  0.1586493E-007  0.2427750E+04  0.7818608E-02  0.8429187E-01
         -1   -1    0    0    0  501 -0.00000000000E+00  0.00000000000E+00  0.53993486370E+03  0.53993486370E+03  0.00000000000E+00 0.  1.
          2   -1    0    0  501    0  0.00000000000E+00 -0.00000000000E+00 -0.27290190296E+04  0.27290190296E+04  0.00000000000E+00 0. -1.
         24    2    1    2    0    0  0.82347806314E+03  0.53367352820E+03 -0.14356848928E+04  0.17408254054E+04  0.79739736426E+02 0.  0.
        254    2    1    2    0    0 -0.82347806314E+03 -0.53367352820E+03 -0.75339927307E+03  0.15281284879E+04  0.89701875988E+03 0.  0.
         23    2    4    4    0    0  0.66402246422E+02  0.15613550535E+03 -0.16692303310E+03  0.25531252695E+03  0.92377665490E+02 0.  0.
         23    2    4    4    0    0 -0.88988030957E+03 -0.68980903355E+03 -0.58647623998E+03  0.12728159609E+04  0.91556661005E+02 0.  0.
          2    1    3    3  502    0  0.28740372749E+03  0.19974656090E+03 -0.57767344170E+03  0.67543037866E+03  0.00000000000E+00 0. -1.
         -1    1    3    3    0  502  0.53607433566E+03  0.33392696730E+03 -0.85801145113E+03  0.10653950268E+04  0.00000000000E+00 0.  1.
         11    1    5    5    0    0  0.76692400166E+02  0.15978852124E+03 -0.16816516288E+03  0.24432277374E+03  0.00000000000E+00 0.  1.
        -11    1    5    5    0    0 -0.10290153745E+02 -0.36530158942E+01  0.12421297825E+01  0.10989753210E+02  0.00000000000E+00 0. -1.
          1    1    6    6  503    0 -0.10399297920E+03 -0.12007150834E+03 -0.75973375932E+02  0.17607856397E+03  0.00000000000E+00 0. -1.
         -1    1    6    6    0  503 -0.78588733036E+03 -0.56973752521E+03 -0.51050286405E+03  0.10967373969E+04  0.00000000000E+00 0.  1.
<mgrwt>
<rscale>  0 0.24277500E+04</rscale>
<asrwt>0</asrwt>
<pdfrwt beam="1">  1        2 0.41984908E+00 0.24277500E+04</pdfrwt>
<pdfrwt beam="2">  1       -1 0.83066903E-01 0.24277500E+04</pdfrwt>
<totfact> 0.37469741E+00</totfact>
</mgrwt>
</event>
<event>
12    6  0.1586493E-007  0.2180747E+04  0.7818608E-02  0.8526484E-01
         -1   -1    0    0    0  501 -0.00000000000E+00  0.00000000000E+00  0.77579572118E+03  0.77579572118E+03  0.00000000000E+00 0.  1.
          2   -1    0    0  501    0  0.00000000000E+00 -0.00000000000E+00 -0.15325102308E+04  0.15325102308E+04  0.00000000000E+00 0. -1.
         24    2    1    2    0    0  0.68392971362E+03  0.33155386450E+03 -0.87195986936E+03  0.11595506143E+04  0.80967865034E+02 0.  0.
        254    2    1    2    0    0 -0.68392971362E+03 -0.33155386450E+03  0.11524535970E+03  0.11487553377E+04  0.85362141181E+03 0.  0.
         23    2    4    4    0    0 -0.23891788505E+03 -0.26162271831E+03  0.45015667935E+03  0.58033540808E+03  0.92843671704E+02 0.  0.
         23    2    4    4    0    0 -0.44501182857E+03 -0.69931146197E+02 -0.33491131965E+03  0.56841992961E+03  0.89497103699E+02 0.  0.
          2    1    3    3  502    0  0.49246413709E+03  0.22833465559E+03 -0.56682922655E+03  0.78482674097E+03  0.00000000000E+00 0. -1.
         -1    1    3    3    0  502  0.19146557653E+03  0.10321920892E+03 -0.30513064280E+03  0.37472387336E+03  0.00000000000E+00 0.  1.
         11    1    5    5    0    0 -0.62339786326E+02 -0.22361240605E+02  0.56951691469E+02  0.87348550084E+02  0.00000000000E+00 0.  1.
        -11    1    5    5    0    0 -0.17657809872E+03 -0.23926147770E+03  0.39320498788E+03  0.49298685799E+03  0.00000000000E+00 0. -1.
          3    1    6    6  503    0 -0.34434263550E+03 -0.84978768971E+02 -0.28532706346E+03  0.45519751201E+03  0.00000000000E+00 0. -1.
         -3    1    6    6    0  503 -0.10066919307E+03  0.15047622774E+02 -0.49584256192E+02  0.11322241760E+03  0.00000000000E+00 0.  1.
<mgrwt>
<rscale>  0 0.21807475E+04</rscale>
<asrwt>0</asrwt>
<pdfrwt beam="1">  1        2 0.23577080E+00 0.21807475E+04</pdfrwt>
<pdfrwt beam="2">  1       -1 0.11935319E+00 0.21807475E+04</pdfrwt>
<totfact> 0.79615765E+00</totfact>
</mgrwt>
</event>
<event>
12    6  0.1586493E-007  0.1421312E+04  0.7818608E-02  0.8938535E-01
          2   -1    0    0  501    0  0.00000000000E+00  0.00000000000E+00  0.98645688900E+03  0.98645688900E+03  0.00000000000E+00 0. -1.
         -1   -1    0    0    0  501 -0.00000000000E+00 -0.00000000000E+00 -0.51196545945E+03  0.51196545945E+03  0.00000000000E+00 0.  1.
         24    2    1    2    0    0  0.21044316213E+03  0.65852666682E+02 -0.23280659298E+03  0.33053745087E+03  0.80207222185E+02 0.  0.
        254    2    1    2    0    0 -0.21044316213E+03 -0.65852666682E+02  0.70729802254E+03  0.11678848976E+04  0.90280769997E+03 0.  0.
         23    2    4    4    0    0 -0.51679694767E+03 -0.17019704372E+03  0.60059290494E+03  0.81557499910E+03  0.91676730334E+02 0.  0.
         23    2    4    4    0    0  0.30635378553E+03  0.10434437703E+03  0.10670511760E+03  0.35230989848E+03  0.89419749042E+02 0.  0.
          4    1    3    3  502    0  0.13867521630E+03  0.57587313548E+02 -0.10334552597E+03  0.18228387761E+03  0.00000000000E+00 0. -1.
         -3    1    3    3    0  502  0.71767945835E+02  0.82653531341E+01 -0.12946106702E+03  0.14825357326E+03  0.00000000000E+00 0.  1.
         11    1    5    5    0    0 -0.42130775971E+03 -0.16056289626E+03  0.45007095831E+03  0.63705929046E+03  0.00000000000E+00 0.  1.
        -11    1    5    5    0    0 -0.95489187959E+02 -0.96341474539E+01  0.15052194663E+03  0.17851570864E+03  0.00000000000E+00 0. -1.
          2    1    6    6  503    0  0.19561022176E+03  0.97275013490E+02  0.37856701786E+02  0.22171810250E+03  0.00000000000E+00 0. -1.
         -2    1    6    6    0  503  0.11074356377E+03  0.70693635448E+01  0.68848415814E+02  0.13059179598E+03  0.00000000000E+00 0.  1.
<mgrwt>
<rscale>  0 0.14213119E+04</rscale>
<asrwt>0</asrwt>
<pdfrwt beam="1">  1        2 0.15176260E+00 0.14213119E+04</pdfrwt>
<pdfrwt beam="2">  1       -1 0.78763917E-01 0.14213119E+04</pdfrwt>
<totfact> 0.45960969E+01</totfact>
</mgrwt>
</event>
<event>
12    6  0.1586493E-007  0.2063421E+04  0.7818608E-02  0.8577530E-01
         -1   -1    0    0    0  501 -0.00000000000E+00  0.00000000000E+00  0.56293919704E+03  0.56293919704E+03  0.00000000000E+00 0.  1.
          2   -1    0    0  501    0  0.00000000000E+00 -0.00000000000E+00 -0.18908376320E+04  0.18908376320E+04  0.00000000000E+00 0. -1.
         24    2    1    2    0    0 -0.48285058829E+02  0.76653149472E+03 -0.14401834009E+03  0.78542062162E+03  0.79008172222E+02 0.  0.
        254    2    1    2    0    0  0.48285058829E+02 -0.76653149472E+03 -0.11838800949E+04  0.16683562075E+04  0.88990919567E+03 0.  0.
         23    2    4    4    0    0 -0.21822823828E+03 -0.55924535268E+03 -0.11701247787E+04  0.13182857312E+04  0.91139139084E+02 0.  0.
         23    2    4    4    0    0  0.26651329711E+03 -0.20728614204E+03 -0.13755316168E+02  0.35007047630E+03  0.91450792462E+02 0.  0.
          2    1    3    3  502    0 -0.34614208151E+02  0.16565521224E+03 -0.54290535328E+02  0.17772803655E+03  0.00000000000E+00 0. -1.
         -1    1    3    3    0  502 -0.13670850678E+02  0.60087628248E+03 -0.89727804758E+02  0.60769258507E+03  0.00000000000E+00 0.  1.
         11    1    5    5    0    0 -0.78419790769E+02 -0.24897999649E+03 -0.41894483275E+03  0.49361470311E+03  0.00000000000E+00 0. -1.
        -11    1    5    5    0    0 -0.13980844751E+03 -0.31026535620E+03 -0.75117994598E+03  0.82467102805E+03  0.00000000000E+00 0.  1.
          2    1    6    6  503    0  0.18308250144E+03 -0.86781923268E+02 -0.18293801894E+02  0.20343295635E+03  0.00000000000E+00 0. -1.
         -2    1    6    6    0  503  0.83430795661E+02 -0.12050421877E+03  0.45384857258E+01  0.14663751995E+03  0.00000000000E+00 0.  1.
<mgrwt>
<rscale>  0 0.20634211E+04</rscale>
<asrwt>0</asrwt>
<pdfrwt beam="1">  1        2 0.29089809E+00 0.20634211E+04</pdfrwt>
<pdfrwt beam="2">  1       -1 0.86606033E-01 0.20634211E+04</pdfrwt>
<totfact> 0.10626872E+01</totfact>
</mgrwt>
</event>
<event>
12    6  0.1586493E-007  0.1739044E+04  0.7818608E-02  0.8739404E-01
         -1   -1    0    0    0  501 -0.00000000000E+00  0.00000000000E+00  0.25781105399E+03  0.25781105399E+03  0.00000000000E+00 0.  1.
          2   -1    0    0  501    0  0.00000000000E+00 -0.00000000000E+00 -0.29326463098E+04  0.29326463098E+04  0.00000000000E+00 0. -1.
         24    2    1    2    0    0 -0.74350056717E+02  0.18798959854E+03  0.11912297495E+03  0.24768917804E+03  0.79319768436E+02 0.  0.
        254    2    1    2    0    0  0.74350056717E+02 -0.18798959854E+03 -0.27939582308E+04  0.29427681858E+04  0.90156196667E+03 0.  0.
         23    2    4    4    0    0  0.16605305365E+03 -0.18147705595E+03 -0.28005658954E+04  0.28128434088E+04  0.91712427767E+02 0.  0.
         23    2    4    4    0    0 -0.91702996935E+02 -0.65125425869E+01  0.66076646072E+01  0.12992477700E+03  0.91569282998E+02 0.  0.
          2    1    3    3  502    0 -0.64943093899E+02  0.61034756684E+02  0.39088353215E+02  0.97317759559E+02  0.00000000000E+00 0. -1.
         -1    1    3    3    0  502 -0.94069628188E+01  0.12695484185E+03  0.80034621735E+02  0.15037141848E+03  0.00000000000E+00 0.  1.
         11    1    5    5    0    0  0.85118984400E+01 -0.52906415821E+02 -0.38136432314E+03  0.38511074799E+03  0.00000000000E+00 0.  1.
        -11    1    5    5    0    0  0.15754115521E+03 -0.12857064013E+03 -0.24192015722E+04  0.24277326608E+04  0.00000000000E+00 0. -1.
          2    1    6    6  503    0 -0.22238663933E+02  0.22152852067E+02  0.37301449682E+02  0.48751463327E+02  0.00000000000E+00 0. -1.
         -2    1    6    6    0  503 -0.69464333003E+02 -0.28665394654E+02 -0.30693785075E+02  0.81173313671E+02  0.00000000000E+00 0.  1.
<mgrwt>
<rscale>  0 0.17390441E+04</rscale>
<asrwt>0</asrwt>
<pdfrwt beam="1">  1        2 0.45117633E+00 0.17390441E+04</pdfrwt>
<pdfrwt beam="2">  1       -1 0.39663241E-01 0.17390441E+04</pdfrwt>
<totfact> 0.12864989E+01</totfact>
</mgrwt>
</event>
<event>
12    6  0.1586493E-007  0.1751229E+04  0.7818608E-02  0.8732674E-01
          2   -1    0    0  501    0  0.00000000000E+00  0.00000000000E+00  0.10215416845E+04  0.10215416845E+04  0.00000000000E+00 0. -1.
         -1   -1    0    0    0  501 -0.00000000000E+00 -0.00000000000E+00 -0.75053279241E+03  0.75053279241E+03  0.00000000000E+00 0.  1.
         24    2    1    2    0    0  0.39538334017E+03  0.37303266465E+03  0.45903227618E+03  0.71599401219E+03  0.80345754911E+02 0.  0.
        254    2    1    2    0    0 -0.39538334017E+03 -0.37303266465E+03 -0.18802338410E+03  0.10560804647E+04  0.88570412688E+03 0.  0.
         23    2    4    4    0    0  0.72976529671E+02 -0.43845654337E+03  0.13845947038E+03  0.47441882835E+03  0.91282448724E+02 0.  0.
         23    2    4    4    0    0 -0.46835986984E+03  0.65423878722E+02 -0.32648285449E+03  0.58166163635E+03  0.89988628974E+02 0.  0.
          2    1    3    3  502    0  0.28181379907E+03  0.30107368818E+03  0.37535170355E+03  0.55763185384E+03  0.00000000000E+00 0. -1.
         -1    1    3    3    0  502  0.11356954110E+03  0.71958976472E+02  0.83680572630E+02  0.15836215835E+03  0.00000000000E+00 0.  1.
         11    1    5    5    0    0 -0.21386544533E+02 -0.10436369560E+03  0.36020248007E+02  0.11245720747E+03  0.00000000000E+00 0.  1.
        -11    1    5    5    0    0  0.94363074205E+02 -0.33409284777E+03  0.10243922238E+03  0.36196162088E+03  0.00000000000E+00 0. -1.
          2    1    6    6  503    0 -0.40374068759E+03  0.85836669564E+02 -0.29215337851E+03  0.50569563299E+03  0.00000000000E+00 0. -1.
         -2    1    6    6    0  503 -0.64619182258E+02 -0.20412790842E+02 -0.34329475977E+02  0.75966003361E+02  0.00000000000E+00 0.  1.
<mgrwt>
<rscale>  0 0.17512287E+04</rscale>
<asrwt>0</asrwt>
<pdfrwt beam="1">  1        2 0.15716026E+00 0.17512287E+04</pdfrwt>
<pdfrwt beam="2">  1       -1 0.11546658E+00 0.17512287E+04</pdfrwt>
<totfact> 0.17935871E+01</totfact>
</mgrwt>
</event>
<event>
12    6  0.1586493E-007  0.2021364E+04  0.7818608E-02  0.8596697E-01
         -1   -1    0    0    0  501 -0.00000000000E+00  0.00000000000E+00  0.71567135998E+03  0.71567135998E+03  0.00000000000E+00 0.  1.
          2   -1    0    0  501    0  0.00000000000E+00 -0.00000000000E+00 -0.14273000581E+04  0.14273000581E+04  0.00000000000E+00 0. -1.
         24    2    1    2    0    0 -0.70149242134E+03 -0.36949764255E+03 -0.47241636919E+03  0.92653917811E+03  0.81715957163E+02 0.  0.
        254    2    1    2    0    0  0.70149242134E+03  0.36949764255E+03 -0.23921232895E+03  0.12164322400E+04  0.89099087037E+03 0.  0.
         23    2    4    4    0    0  0.68900913060E+03  0.66598554173E+02  0.14897982213E+03  0.71525282480E+03  0.10110720310E+03 0.  0.
         23    2    4    4    0    0  0.12483290741E+02  0.30289908838E+03 -0.38819215107E+03  0.50117941518E+03  0.92649715350E+02 0.  0.
          4    1    3    3  502    0 -0.69824850763E+03 -0.37257913919E+03 -0.46514381965E+03  0.91800052632E+03  0.00000000000E+00 0. -1.
         -3    1    3    3    0  502 -0.32439137105E+01  0.30814966373E+01 -0.72725495361E+01  0.85386517930E+01  0.00000000000E+00 0.  1.
         11    1    5    5    0    0  0.68095265599E+03  0.56252745081E+02  0.15529627272E+03  0.70069809715E+03  0.00000000000E+00 0.  1.
        -11    1    5    5    0    0  0.80564746074E+01  0.10345809092E+02 -0.63164505935E+01  0.14554727650E+02  0.00000000000E+00 0. -1.
          4    1    6    6  503    0  0.37485747937E+01  0.22042075933E+03 -0.34011864305E+03  0.40531475955E+03  0.00000000000E+00 0.  1.
         -4    1    6    6    0  503  0.87347159471E+01  0.82478329050E+02 -0.48073508022E+02  0.95864655630E+02  0.00000000000E+00 0. -1.
<mgrwt>
<rscale>  0 0.20213637E+04</rscale>
<asrwt>0</asrwt>
<pdfrwt beam="1">  1        2 0.21958462E+00 0.20213637E+04</pdfrwt>
<pdfrwt beam="2">  1       -1 0.11010329E+00 0.20213637E+04</pdfrwt>
<totfact> 0.11235110E+01</totfact>
</mgrwt>
</event>
<event>
12    6  0.1586493E-007  0.1606677E+04  0.7818608E-02  0.8816456E-01
         -1   -1    0    0    0  501 -0.00000000000E+00  0.00000000000E+00  0.37342367156E+03  0.37342367156E+03  0.00000000000E+00 0.  1.
          2   -1    0    0  501    0  0.00000000000E+00 -0.00000000000E+00 -0.17282056333E+04  0.17282056333E+04  0.00000000000E+00 0. -1.
         24    2    1    2    0    0  0.18422581097E+03  0.42837329232E+02  0.20208892930E+03  0.28800920049E+03  0.79593831524E+02 0.  0.
        254    2    1    2    0    0 -0.18422581097E+03 -0.42837329232E+02 -0.15568708911E+04  0.18136201044E+04  0.91082200535E+03 0.  0.
         23    2    4    4    0    0 -0.43409982925E+03 -0.32230897432E+01 -0.31938373135E+03  0.54718361745E+03  0.94609160700E+02 0.  0.
         23    2    4    4    0    0  0.24987401829E+03 -0.39614239488E+02 -0.12374871597E+04  0.12664364870E+04  0.92090129866E+02 0.  0.
          2    1    3    3  502    0  0.23427947795E+02 -0.58847618771E+01  0.70718073803E+02  0.74729814148E+02  0.00000000000E+00 0. -1.
         -1    1    3    3    0  502  0.16079786317E+03  0.48722091109E+02  0.13137085550E+03  0.21327938634E+03  0.00000000000E+00 0.  1.
         11    1    5    5    0    0 -0.21749178794E+03  0.34199638176E+02 -0.12175418339E+03  0.25158770687E+03  0.00000000000E+00 0.  1.
        -11    1    5    5    0    0 -0.21660804131E+03 -0.37422727920E+02 -0.19762954796E+03  0.29559591058E+03  0.00000000000E+00 0. -1.
          1    1    6    6  503    0  0.14908772444E+03 -0.10477554655E+02 -0.51082070902E+03  0.53223559210E+03  0.00000000000E+00 0. -1.
         -1    1    6    6    0  503  0.10078629385E+03 -0.29136684833E+02 -0.72666645072E+03  0.73420089488E+03  0.00000000000E+00 0.  1.
<mgrwt>
<rscale>  0 0.16066772E+04</rscale>
<asrwt>0</asrwt>
<pdfrwt beam="1">  1        2 0.26587779E+00 0.16066772E+04</pdfrwt>
<pdfrwt beam="2">  1       -1 0.57449795E-01 0.16066772E+04</pdfrwt>
<totfact> 0.31689508E+01</totfact>
</mgrwt>
</event>
<event>
12    6  0.1586493E-007  0.1400987E+04  0.7818608E-02  0.8953105E-01
          2   -1    0    0  501    0  0.00000000000E+00  0.00000000000E+00  0.21216273702E+03  0.21216273702E+03  0.00000000000E+00 0. -1.
         -1   -1    0    0    0  501 -0.00000000000E+00 -0.00000000000E+00 -0.23128046338E+04  0.23128046338E+04  0.00000000000E+00 0.  1.
         24    2    1    2    0    0 -0.65782734165E+01 -0.40339670281E+03 -0.68808306094E+03  0.80184850405E+03  0.82039936409E+02 0.  0.
        254    2    1    2    0    0  0.65782734165E+01  0.40339670281E+03 -0.14125588358E+04  0.17231188668E+04  0.90057980812E+03 0.  0.
         23    2    4    4    0    0  0.21191564154E+03 -0.19114330742E+03 -0.73673328442E+03  0.79544949744E+03  0.92303670036E+02 0.  0.
         23    2    4    4    0    0 -0.20533736812E+03  0.59454001023E+03 -0.67582555140E+03  0.92766936931E+03  0.90493228075E+02 0.  0.
          2    1    3    3  502    0 -0.11225932351E+02 -0.38269125881E+03 -0.60391709513E+03  0.71504858501E+03  0.00000000000E+00 0. -1.
         -1    1    3    3    0  502  0.46476589345E+01 -0.20705444004E+02 -0.84165965806E+02  0.86799919038E+02  0.00000000000E+00 0.  1.
         11    1    5    5    0    0  0.12930688042E+03 -0.96827779275E+02 -0.52591683161E+03  0.55016761258E+03  0.00000000000E+00 0. -1.
        -11    1    5    5    0    0  0.82608761123E+02 -0.94315528147E+02 -0.21081645281E+03  0.24528188486E+03  0.00000000000E+00 0.  1.
          4    1    6    6  503    0 -0.41574243535E+02  0.17398469921E+03 -0.24815091953E+03  0.30590516855E+03  0.00000000000E+00 0.  1.
         -4    1    6    6    0  503 -0.16376312459E+03  0.42055531103E+03 -0.42767463187E+03  0.62176420077E+03  0.00000000000E+00 0. -1.
<mgrwt>
<rscale>  0 0.14009867E+04</rscale>
<asrwt>0</asrwt>
<pdfrwt beam="1">  1        2 0.32640419E-01 0.14009867E+04</pdfrwt>
<pdfrwt beam="2">  1       -1 0.35581612E+00 0.14009867E+04</pdfrwt>
<totfact> 0.25854054E+00</totfact>
</mgrwt>
</event>
<event>
12    6  0.1586493E-007  0.2054996E+04  0.7818608E-02  0.8581331E-01
          2   -1    0    0  501    0  0.00000000000E+00  0.00000000000E+00  0.13858517745E+04  0.13858517745E+04  0.00000000000E+00 0. -1.
         -1   -1    0    0    0  501 -0.00000000000E+00 -0.00000000000E+00 -0.76180731966E+03  0.76180731966E+03  0.00000000000E+00 0.  1.
         24    2    1    2    0    0 -0.77071597936E+03  0.32992977335E+03  0.33997837211E+03  0.90821786699E+03  0.80110075733E+02 0.  0.
        254    2    1    2    0    0  0.77071597936E+03 -0.32992977335E+03  0.28406608273E+03  0.12394412272E+04  0.86756223988E+03 0.  0.
         23    2    4    4    0    0  0.40618156855E+02  0.10356252332E+03  0.35433562562E+03  0.38253171287E+03  0.91661032421E+02 0.  0.
         23    2    4    4    0    0  0.73009782250E+03 -0.43349229667E+03 -0.70269542889E+02  0.85690951430E+03  0.91638994659E+02 0.  0.
          4    1    3    3  502    0 -0.54980052040E+03  0.21837839208E+03  0.27482941552E+03  0.65230433235E+03  0.00000000000E+00 0. -1.
         -3    1    3    3    0  502 -0.22091545895E+03  0.11155138126E+03  0.65148956592E+02  0.25591353464E+03  0.00000000000E+00 0.  1.
         11    1    5    5    0    0 -0.52738600407E+01  0.37666811663E+01  0.15336838025E+03  0.15350524925E+03  0.00000000000E+00 0.  1.
        -11    1    5    5    0    0  0.45892016895E+02  0.99795842158E+02  0.20096724536E+03  0.22902646362E+03  0.00000000000E+00 0. -1.
          3    1    6    6  503    0  0.26656117673E+03 -0.21040008455E+03 -0.29018022667E+02  0.34083001945E+03  0.00000000000E+00 0. -1.
         -3    1    6    6    0  503  0.46353664578E+03 -0.22309221212E+03 -0.41251520222E+02  0.51607949485E+03  0.00000000000E+00 0.  1.
<mgrwt>
<rscale>  0 0.20549959E+04</rscale>
<asrwt>0</asrwt>
<pdfrwt beam="1">  1        2 0.21320797E+00 0.20549959E+04</pdfrwt>
<pdfrwt beam="2">  1       -1 0.11720113E+00 0.20549959E+04</pdfrwt>
<totfact> 0.10191278E+01</totfact>
</mgrwt>
</event>
<event>
12    6  0.1586493E-007  0.1359223E+04  0.7818608E-02  0.8983876E-01
          2   -1    0    0  501    0  0.00000000000E+00  0.00000000000E+00  0.57837080541E+03  0.57837080541E+03  0.00000000000E+00 0. -1.
         -1   -1    0    0    0  501 -0.00000000000E+00 -0.00000000000E+00 -0.79857402292E+03  0.79857402292E+03  0.00000000000E+00 0.  1.
         24    2    1    2    0    0  0.27550824678E+03 -0.42607548005E+02  0.52288148469E+02  0.29477135765E+03  0.80224096303E+02 0.  0.
        254    2    1    2    0    0 -0.27550824678E+03  0.42607548005E+02 -0.27249136598E+03  0.10821734707E+04  0.10095185382E+04 0.  0.
         23    2    4    4    0    0 -0.60538180351E+03  0.20107684831E+03 -0.55993965990E+02  0.64706616346E+03  0.92953045740E+02 0.  0.
         23    2    4    4    0    0  0.32987355673E+03 -0.15846930031E+03 -0.21649739999E+03  0.43510730722E+03  0.92293889417E+02 0.  0.
          4    1    3    3  502    0  0.12019067690E+03 -0.26155171631E+02  0.63036608809E+02  0.13821543281E+03  0.00000000000E+00 0. -1.
         -3    1    3    3    0  502  0.15531756988E+03 -0.16452376374E+02 -0.10748460340E+02  0.15655592483E+03  0.00000000000E+00 0.  1.
         11    1    5    5    0    0 -0.56780595142E+03  0.20331536236E+03 -0.69441492016E+02  0.60709377846E+03  0.00000000000E+00 0. -1.
        -11    1    5    5    0    0 -0.37575852098E+02 -0.22385140459E+01  0.13447526027E+02  0.39972384996E+02  0.00000000000E+00 0.  1.
          1    1    6    6  503    0  0.30584998684E+03 -0.11723435459E+03 -0.20361089381E+03  0.38567538737E+03  0.00000000000E+00 0. -1.
         -1    1    6    6    0  503  0.24023569891E+02 -0.41234945715E+02 -0.12886506183E+02  0.49431919850E+02  0.00000000000E+00 0.  1.
<mgrwt>
<rscale>  0 0.13592232E+04</rscale>
<asrwt>0</asrwt>
<pdfrwt beam="1">  1        2 0.88980124E-01 0.13592232E+04</pdfrwt>
<pdfrwt beam="2">  1       -1 0.12285754E+00 0.13592232E+04</pdfrwt>
<totfact> 0.33800671E+01</totfact>
</mgrwt>
</event>
<event>
12    6  0.1586493E-007  0.1411953E+04  0.7818608E-02  0.8945212E-01
         -1   -1    0    0    0  501 -0.00000000000E+00  0.00000000000E+00  0.36407927082E+03  0.36407927082E+03  0.00000000000E+00 0.  1.
          2   -1    0    0  501    0  0.00000000000E+00 -0.00000000000E+00 -0.13689400062E+04  0.13689400062E+04  0.00000000000E+00 0. -1.
         24    2    1    2    0    0 -0.88629158305E+01  0.36576960366E+03 -0.48020752897E+02  0.37842742696E+03  0.83877115639E+02 0.  0.
        254    2    1    2    0    0  0.88629158305E+01 -0.36576960366E+03 -0.95683998252E+03  0.13545918501E+04  0.88629023121E+03 0.  0.
         23    2    4    4    0    0  0.32952644642E+03 -0.18170923745E+03 -0.88539719963E+03  0.96640111926E+03  0.91635126160E+02 0.  0.
         23    2    4    4    0    0 -0.32066353059E+03 -0.18406036621E+03 -0.71442782890E+02  0.38819073082E+03  0.94258442653E+02 0.  0.
          2    1    3    3  502    0 -0.12474510960E+02  0.29764815277E+03 -0.53373426759E+01  0.29795725113E+03  0.00000000000E+00 0. -1.
         -1    1    3    3    0  502  0.36115951295E+01  0.68121450889E+02 -0.42683410221E+02  0.80470175834E+02  0.00000000000E+00 0.  1.
         11    1    5    5    0    0  0.23086283102E+03 -0.14537185922E+03 -0.53465797086E+03  0.60024142643E+03  0.00000000000E+00 0. -1.
        -11    1    5    5    0    0  0.98663615401E+02 -0.36337378223E+02 -0.35073922877E+03  0.36615969284E+03  0.00000000000E+00 0.  1.
          1    1    6    6  503    0 -0.24454919860E+03 -0.11844729887E+03 -0.13207461793E+02  0.27204505177E+03  0.00000000000E+00 0. -1.
         -1    1    6    6    0  503 -0.76114331992E+02 -0.65613067340E+02 -0.58235321097E+02  0.11614567906E+03  0.00000000000E+00 0.  1.
<mgrwt>
<rscale>  0 0.14119528E+04</rscale>
<asrwt>0</asrwt>
<pdfrwt beam="1">  1        2 0.21060615E+00 0.14119528E+04</pdfrwt>
<pdfrwt beam="2">  1       -1 0.56012196E-01 0.14119528E+04</pdfrwt>
<totfact> 0.53882223E+01</totfact>
</mgrwt>
</event>
<event>
12    6  0.1586493E-007  0.1292949E+04  0.7818608E-02  0.9035175E-01
         -1   -1    0    0    0  501 -0.00000000000E+00  0.00000000000E+00  0.17572038556E+03  0.17572038556E+03  0.00000000000E+00 0.  1.
          2   -1    0    0  501    0  0.00000000000E+00 -0.00000000000E+00 -0.23783774035E+04  0.23783774035E+04  0.00000000000E+00 0. -1.
         24    2    1    2    0    0  0.11559548986E+03  0.17979625469E+03 -0.86877364976E+02  0.24380658741E+03  0.78771600499E+02 0.  0.
        254    2    1    2    0    0 -0.11559548986E+03 -0.17979625469E+03 -0.21157796529E+04  0.23102912016E+04  0.90290247869E+03 0.  0.
         23    2    4    4    0    0 -0.11133772611E+03  0.33806387098E+03 -0.58081697990E+03  0.68772371391E+03  0.94510700032E+02 0.  0.
         23    2    4    4    0    0 -0.42577637408E+01 -0.51786012567E+03 -0.15349626730E+04  0.16225674877E+04  0.91747513496E+02 0.  0.
          4    1    3    3  502    0 -0.45165046420E+01  0.22270634620E+01 -0.17916028004E+02  0.18610284396E+02  0.00000000000E+00 0. -1.
         -3    1    3    3    0  502  0.12011199450E+03  0.17756919123E+03 -0.68961336972E+02  0.22519630302E+03  0.00000000000E+00 0.  1.
         11    1    5    5    0    0 -0.88868935873E+01  0.17789110915E+03 -0.27818119775E+03  0.33031651847E+03  0.00000000000E+00 0. -1.
        -11    1    5    5    0    0 -0.10245083253E+03  0.16017276183E+03 -0.30263578215E+03  0.35740719545E+03  0.00000000000E+00 0.  1.
          2    1    6    6  503    0 -0.75818926771E+01 -0.52028002251E+03 -0.15069438438E+04  0.15942485802E+04  0.00000000000E+00 0. -1.
         -2    1    6    6    0  503  0.33241289363E+01  0.24198968394E+01 -0.28018829193E+02  0.28318907522E+02  0.00000000000E+00 0.  1.
<mgrwt>
<rscale>  0 0.12929492E+04</rscale>
<asrwt>0</asrwt>
<pdfrwt beam="1">  1        2 0.36590422E+00 0.12929492E+04</pdfrwt>
<pdfrwt beam="2">  1       -1 0.27033905E-01 0.12929492E+04</pdfrwt>
<totfact> 0.56119932E+01</totfact>
</mgrwt>
</event>
<event>
12    6  0.1586493E-007  0.1985490E+04  0.7818608E-02  0.8613435E-01
          2   -1    0    0  501    0  0.00000000000E+00  0.00000000000E+00  0.10840636272E+04  0.10840636272E+04  0.00000000000E+00 0. -1.
         -1   -1    0    0    0  501 -0.00000000000E+00 -0.00000000000E+00 -0.90911839999E+03  0.90911839999E+03  0.00000000000E+00 0.  1.
         24    2    1    2    0    0 -0.33777626424E+03 -0.65621677863E+03 -0.19249491358E+03  0.76683393461E+03  0.79162657028E+02 0.  0.
        254    2    1    2    0    0  0.33777626424E+03  0.65621677863E+03  0.36744014084E+03  0.12263480926E+04  0.90785688406E+03 0.  0.
         23    2    4    4    0    0 -0.20489621254E+03  0.44492859182E+03 -0.55721215191E+02  0.50065687339E+03  0.87226952972E+02 0.  0.
         23    2    4    4    0    0  0.54267247678E+03  0.21128818682E+03  0.42316135604E+03  0.72569121923E+03  0.91793776899E+02 0.  0.
          2    1    3    3  502    0 -0.19016670389E+02 -0.55900059647E+02 -0.36661624700E+02  0.69501979446E+02  0.00000000000E+00 0. -1.
         -1    1    3    3    0  502 -0.31875959385E+03 -0.60031671899E+03 -0.15583328888E+03  0.69733195516E+03  0.00000000000E+00 0.  1.
         11    1    5    5    0    0 -0.19771266488E+03  0.44774524149E+03 -0.52384083599E+02  0.49225013088E+03  0.00000000000E+00 0. -1.
        -11    1    5    5    0    0 -0.71835476657E+01 -0.28166496791E+01 -0.33371315922E+01  0.84067425168E+01  0.00000000000E+00 0.  1.
          1    1    6    6  503    0  0.12862832780E+03  0.31548094473E+02  0.55792163484E+02  0.14371254115E+03  0.00000000000E+00 0. -1.
         -1    1    6    6    0  503  0.41404414899E+03  0.17974009235E+03  0.36736919255E+03  0.58197867808E+03  0.00000000000E+00 0.  1.
<mgrwt>
<rscale>  0 0.19854896E+04</rscale>
<asrwt>0</asrwt>
<pdfrwt beam="1">  1        2 0.16677902E+00 0.19854896E+04</pdfrwt>
<pdfrwt beam="2">  1       -1 0.13986437E+00 0.19854896E+04</pdfrwt>
<totfact> 0.99361561E+00</totfact>
</mgrwt>
</event>
<event>
12    6  0.1586493E-007  0.1821110E+04  0.7818608E-02  0.8695153E-01
         -1   -1    0    0    0  501 -0.00000000000E+00  0.00000000000E+00  0.30521411962E+03  0.30521411962E+03  0.00000000000E+00 0.  1.
          2   -1    0    0  501    0  0.00000000000E+00 -0.00000000000E+00 -0.27164875532E+04  0.27164875532E+04  0.00000000000E+00 0. -1.
         24    2    1    2    0    0  0.22871579668E+03 -0.59785116087E+03 -0.13345741871E+04  0.14823044516E+04  0.80008126727E+02 0.  0.
        254    2    1    2    0    0 -0.22871579668E+03  0.59785116087E+03 -0.10766992465E+04  0.15393972212E+04  0.89483272791E+03 0.  0.
         23    2    4    4    0    0 -0.12904350265E+03  0.10722894255E+03 -0.10080637030E+04  0.10259244970E+04  0.90434355147E+02 0.  0.
         23    2    4    4    0    0 -0.99672294029E+02  0.49062221832E+03 -0.68635543508E+02  0.51347272416E+03  0.91097054390E+02 0.  0.
          2    1    3    3  502    0  0.19445006908E+03 -0.49284536631E+03 -0.11665195210E+04  0.12812006780E+04  0.00000000000E+00 0. -1.
         -1    1    3    3    0  502  0.34265727598E+02 -0.10500579456E+03 -0.16805466607E+03  0.20110377363E+03  0.00000000000E+00 0.  1.
         11    1    5    5    0    0 -0.30031487170E+02  0.54673167175E+02 -0.18432815729E+03  0.19459680111E+03  0.00000000000E+00 0. -1.
        -11    1    5    5    0    0 -0.99012015483E+02  0.52555775376E+02 -0.82373554570E+03  0.83132769591E+03  0.00000000000E+00 0.  1.
          2    1    6    6  503    0 -0.74835276951E+02  0.18985343162E+03 -0.43807958939E+00  0.20407066445E+03  0.00000000000E+00 0. -1.
         -2    1    6    6    0  503 -0.24837017079E+02  0.30076878670E+03 -0.68197463919E+02  0.30940205971E+03  0.00000000000E+00 0.  1.
<mgrwt>
<rscale>  0 0.18211099E+04</rscale>
<asrwt>0</asrwt>
<pdfrwt beam="1">  1        2 0.41792114E+00 0.18211099E+04</pdfrwt>
<pdfrwt beam="2">  1       -1 0.46956020E-01 0.18211099E+04</pdfrwt>
<totfact> 0.12620281E+01</totfact>
</mgrwt>
</event>
<event>
12    6  0.1586493E-007  0.3255035E+04  0.7818608E-02  0.8174432E-01
         -1   -1    0    0    0  501 -0.00000000000E+00  0.00000000000E+00  0.14926712197E+04  0.14926712197E+04  0.00000000000E+00 0.  1.
          2   -1    0    0  501    0  0.00000000000E+00 -0.00000000000E+00 -0.17745456025E+04  0.17745456025E+04  0.00000000000E+00 0. -1.
         24    2    1    2    0    0  0.75149453778E+03 -0.18040059564E+03  0.11611150799E+04  0.13968672763E+04  0.75904831718E+02 0.  0.
        254    2    1    2    0    0 -0.75149453778E+03  0.18040059564E+03 -0.14429894628E+04  0.18703495460E+04  0.90482065590E+03 0.  0.
         23    2    4    4    0    0  0.15017692759E+03 -0.12477055580E+03 -0.40642784223E+03  0.46008886109E+03  0.91527962852E+02 0.  0.
         23    2    4    4    0    0 -0.90167146537E+03  0.30517115145E+03 -0.10365616205E+04  0.14102606849E+04  0.90743281230E+02 0.  0.
          4    1    3    3  502    0  0.34592817422E+02  0.18463472706E+01  0.77062088395E+02  0.84490457942E+02  0.00000000000E+00 0. -1.
         -1    1    3    3    0  502  0.71690172036E+03 -0.18224694291E+03  0.10840529915E+04  0.13123768183E+04  0.00000000000E+00 0.  1.
         11    1    5    5    0    0 -0.89413561118E+01 -0.26687772954E+02 -0.65282649071E+02  0.71091556068E+02  0.00000000000E+00 0. -1.
        -11    1    5    5    0    0  0.15911828370E+03 -0.98082782850E+02 -0.34114519316E+03  0.38899730503E+03  0.00000000000E+00 0.  1.
          3    1    6    6  503    0 -0.35262309627E+03  0.99570800567E+02 -0.34058225103E+03  0.50025359776E+03  0.00000000000E+00 0. -1.
         -3    1    6    6    0  503 -0.54904836910E+03  0.20560035088E+03 -0.69597936948E+03  0.91000708713E+03  0.00000000000E+00 0.  1.
<mgrwt>
<rscale>  0 0.32550350E+04</rscale>
<asrwt>0</asrwt>
<pdfrwt beam="1">  1        2 0.27300702E+00 0.32550350E+04</pdfrwt>
<pdfrwt beam="2">  1       -1 0.22964173E+00 0.32550350E+04</pdfrwt>
<totfact> 0.80708254E-01</totfact>
</mgrwt>
</event>
<event>
12    6  0.1586493E-007  0.1611660E+04  0.7818608E-02  0.8813417E-01
         -1   -1    0    0    0  501 -0.00000000000E+00  0.00000000000E+00  0.21672484757E+03  0.21672484757E+03  0.00000000000E+00 0.  1.
          2   -1    0    0  501    0  0.00000000000E+00 -0.00000000000E+00 -0.29962499568E+04  0.29962499568E+04  0.00000000000E+00 0. -1.
         24    2    1    2    0    0  0.29271077891E+03 -0.35427152422E+03 -0.15516825045E+04  0.16202496845E+04  0.79388489322E+02 0.  0.
        254    2    1    2    0    0 -0.29271077891E+03  0.35427152422E+03 -0.12278426047E+04  0.15927251199E+04  0.90442685311E+03 0.  0.
         23    2    4    4    0    0 -0.10159526904E+03 -0.22766857761E+03 -0.79144520838E+03  0.83460440480E+03  0.89579097548E+02 0.  0.
         23    2    4    4    0    0 -0.19111550987E+03  0.58194010183E+03 -0.43639739632E+03  0.75812071508E+03  0.95524399485E+02 0.  0.
          4    1    3    3  502    0  0.24376616952E+03 -0.28448558813E+03 -0.11450551408E+04  0.12047843254E+04  0.00000000000E+00 0. -1.
         -3    1    3    3    0  502  0.48944609395E+02 -0.69785936091E+02 -0.40662736371E+03  0.41546535907E+03  0.00000000000E+00 0.  1.
         11    1    5    5    0    0 -0.44564948165E+02 -0.13477756218E+03 -0.57498404084E+03  0.59224798277E+03  0.00000000000E+00 0.  1.
        -11    1    5    5    0    0 -0.57030320871E+02 -0.92891015425E+02 -0.21646116754E+03  0.24235642203E+03  0.00000000000E+00 0. -1.
          1    1    6    6  503    0 -0.28762910426E+02  0.92628052427E+02 -0.11567662835E+03  0.15095808511E+03  0.00000000000E+00 0. -1.
         -1    1    6    6    0  503 -0.16235259945E+03  0.48931204940E+03 -0.32072076797E+03  0.60716262998E+03  0.00000000000E+00 0.  1.
<mgrwt>
<rscale>  0 0.16116598E+04</rscale>
<asrwt>0</asrwt>
<pdfrwt beam="1">  1        2 0.46096151E+00 0.16116598E+04</pdfrwt>
<pdfrwt beam="2">  1       -1 0.33342286E-01 0.16116598E+04</pdfrwt>
<totfact> 0.16257650E+01</totfact>
</mgrwt>
</event>
<event>
12    6  0.1586493E-007  0.1645467E+04  0.7818608E-02  0.8793092E-01
          2   -1    0    0  501    0  0.00000000000E+00  0.00000000000E+00  0.31652245602E+04  0.31652245602E+04  0.00000000000E+00 0. -1.
         -1   -1    0    0    0  501 -0.00000000000E+00 -0.00000000000E+00 -0.21385236539E+03  0.21385236539E+03  0.00000000000E+00 0.  1.
         24    2    1    2    0    0  0.56158720679E+03  0.80733017783E+02  0.10665290452E+04  0.12107212720E+04  0.80397657326E+02 0.  0.
        254    2    1    2    0    0 -0.56158720679E+03 -0.80733017783E+02  0.18848431496E+04  0.21683556535E+04  0.90952434310E+03 0.  0.
         23    2    4    4    0    0 -0.12510170471E+03  0.15787273185E+03  0.54325856844E+01  0.22202476288E+03  0.93226854289E+02 0.  0.
         23    2    4    4    0    0 -0.43648550208E+03 -0.23860574964E+03  0.18794105639E+04  0.19463308907E+04  0.92561173988E+02 0.  0.
          4    1    3    3  502    0  0.50300891623E+03  0.84986228825E+02  0.90545550512E+03  0.10392739296E+04  0.00000000000E+00 0. -1.
         -3    1    3    3    0  502  0.58578290558E+02 -0.42532110419E+01  0.16107354007E+03  0.17144734247E+03  0.00000000000E+00 0.  1.
         11    1    5    5    0    0 -0.36148775932E+02  0.75340417923E+01  0.27378242936E+02  0.45968075590E+02  0.00000000000E+00 0. -1.
        -11    1    5    5    0    0 -0.88952928773E+02  0.15033869006E+03 -0.21945657252E+02  0.17605668729E+03  0.00000000000E+00 0.  1.
          1    1    6    6  503    0 -0.37695763598E+02 -0.38755100704E+02  0.31345441487E+03  0.31808269149E+03  0.00000000000E+00 0. -1.
         -1    1    6    6    0  503 -0.39878973848E+03 -0.19985064893E+03  0.15659561490E+04  0.16282481992E+04  0.00000000000E+00 0.  1.
<mgrwt>
<rscale>  0 0.16454674E+04</rscale>
<asrwt>0</asrwt>
<pdfrwt beam="1">  1        2 0.48695759E+00 0.16454674E+04</pdfrwt>
<pdfrwt beam="2">  1       -1 0.32900366E-01 0.16454674E+04</pdfrwt>
<totfact> 0.12973914E+01</totfact>
</mgrwt>
</event>
<event>
12    6  0.1586493E-007  0.1684364E+04  0.7818608E-02  0.8770333E-01
         -1   -1    0    0    0  501 -0.00000000000E+00  0.00000000000E+00  0.12226159285E+04  0.12226159285E+04  0.00000000000E+00 0.  1.
          2   -1    0    0  501    0  0.00000000000E+00 -0.00000000000E+00 -0.58012512371E+03  0.58012512371E+03  0.00000000000E+00 0. -1.
         24    2    1    2    0    0 -0.19095952795E+03  0.38089264595E+03  0.71361702946E+03  0.83465065125E+03  0.76470228459E+02 0.  0.
        254    2    1    2    0    0  0.19095952795E+03 -0.38089264595E+03 -0.71126224641E+02  0.96809040100E+03  0.86636905278E+03 0.  0.
         23    2    4    4    0    0 -0.15811750010E+03 -0.45002796963E+03 -0.26399679659E+03  0.55284570518E+03  0.91748285208E+02 0.  0.
         23    2    4    4    0    0  0.34907702804E+03  0.69135323674E+02  0.19287057195E+03  0.41524469582E+03  0.92707256444E+02 0.  0.
          2    1    3    3  502    0 -0.28124677011E+01  0.33972466344E+02  0.30577276470E+02  0.45793102979E+02  0.00000000000E+00 0. -1.
         -3    1    3    3    0  502 -0.18814706025E+03  0.34692017961E+03  0.68303975299E+03  0.78885754827E+03  0.00000000000E+00 0.  1.
         11    1    5    5    0    0 -0.13676352086E+03 -0.42357139522E+03 -0.26644577792E+03  0.51875846022E+03  0.00000000000E+00 0. -1.
        -11    1    5    5    0    0 -0.21353979239E+02 -0.26456574411E+02  0.24489813298E+01  0.34087244952E+02  0.00000000000E+00 0.  1.
          1    1    6    6  503    0  0.11557538812E+03  0.27760757629E+02  0.11567219531E+03  0.16585652466E+03  0.00000000000E+00 0. -1.
         -1    1    6    6    0  503  0.23350163992E+03  0.41374566045E+02  0.77198376638E+02  0.24938817116E+03  0.00000000000E+00 0.  1.
<mgrwt>
<rscale>  0 0.16843636E+04</rscale>
<asrwt>0</asrwt>
<pdfrwt beam="1">  1        2 0.89250019E-01 0.16843636E+04</pdfrwt>
<pdfrwt beam="2">  1       -1 0.18809476E+00 0.16843636E+04</pdfrwt>
<totfact> 0.10245191E+01</totfact>
</mgrwt>
</event>
<event>
12    6  0.1586493E-007  0.1494618E+04  0.7818608E-02  0.8888040E-01
          2   -1    0    0  501    0  0.00000000000E+00  0.00000000000E+00  0.17282440410E+04  0.17282440410E+04  0.00000000000E+00 0. -1.
         -1   -1    0    0    0  501 -0.00000000000E+00 -0.00000000000E+00 -0.32314362885E+03  0.32314362885E+03  0.00000000000E+00 0.  1.
         24    2    1    2    0    0  0.14642889965E+03  0.41531330859E+03  0.20236973174E+03  0.49120093470E+03  0.79989267947E+02 0.  0.
        254    2    1    2    0    0 -0.14642889965E+03 -0.41531330859E+03  0.12027306804E+04  0.15601867351E+04  0.89089561228E+03 0.  0.
         23    2    4    4    0    0 -0.22580162988E+03 -0.62020325985E+03  0.11286157412E+04  0.13108345128E+04  0.94208115367E+02 0.  0.
         23    2    4    4    0    0  0.79372730231E+02  0.20488995127E+03  0.74114939152E+02  0.24935222233E+03  0.91671064899E+02 0.  0.
          4    1    3    3  502    0  0.40607264253E+02  0.14754220649E+03  0.11128496155E+03  0.18921415188E+03  0.00000000000E+00 0. -1.
         -3    1    3    3    0  502  0.10582163540E+03  0.26777110210E+03  0.91084770189E+02  0.30198678282E+03  0.00000000000E+00 0.  1.
         11    1    5    5    0    0 -0.16530419847E+03 -0.52727747458E+03  0.98477425314E+03  0.11292153660E+04  0.00000000000E+00 0.  1.
        -11    1    5    5    0    0 -0.60497431414E+02 -0.92925785276E+02  0.14384148807E+03  0.18161914675E+03  0.00000000000E+00 0. -1.
          4    1    6    6  503    0  0.38799367410E+02  0.15201353830E+02  0.27256690125E+02  0.49793566113E+02  0.00000000000E+00 0. -1.
         -4    1    6    6    0  503  0.40573362821E+02  0.18968859744E+03  0.46858249027E+02  0.19955865621E+03  0.00000000000E+00 0.  1.
<mgrwt>
<rscale>  0 0.14946184E+04</rscale>
<asrwt>0</asrwt>
<pdfrwt beam="1">  1        2 0.26588369E+00 0.14946184E+04</pdfrwt>
<pdfrwt beam="2">  1       -1 0.49714405E-01 0.14946184E+04</pdfrwt>
<totfact> 0.42262895E+01</totfact>
</mgrwt>
</event>
<event>
12    6  0.1586493E-007  0.3156200E+04  0.7818608E-02  0.8200481E-01
         -1   -1    0    0    0  501 -0.00000000000E+00  0.00000000000E+00  0.15607595281E+04  0.15607595281E+04  0.00000000000E+00 0.  1.
          2   -1    0    0  501    0  0.00000000000E+00 -0.00000000000E+00 -0.15956327322E+04  0.15956327322E+04  0.00000000000E+00 0. -1.
         24    2    1    2    0    0  0.58479593194E+03 -0.50464683273E+03 -0.12397287139E+04  0.14628514234E+04  0.79701285900E+02 0.  0.
        254    2    1    2    0    0 -0.58479593194E+03  0.50464683273E+03  0.12048555099E+04  0.16935408370E+04  0.90539994422E+03 0.  0.
         23    2    4    4    0    0 -0.71294656037E+03  0.28758776475E+03  0.11959627256E+04  0.14247417833E+04  0.92535332528E+02 0.  0.
         23    2    4    4    0    0  0.12815062843E+03  0.21705906799E+03  0.88927842785E+01  0.26879905364E+03  0.92933455041E+02 0.  0.
          4    1    3    3  502    0  0.45616735287E+03 -0.43000570225E+03 -0.97296231135E+03  0.11574321652E+04  0.00000000000E+00 0. -1.
         -3    1    3    3    0  502  0.12862857908E+03 -0.74641130484E+02 -0.26676640254E+03  0.30541925814E+03  0.00000000000E+00 0.  1.
         11    1    5    5    0    0 -0.21703910101E+03  0.55698281647E+02  0.29419155148E+03  0.36980662367E+03  0.00000000000E+00 0. -1.
        -11    1    5    5    0    0 -0.49590745936E+03  0.23188948310E+03  0.90177117409E+03  0.10549351596E+04  0.00000000000E+00 0.  1.
          2    1    6    6  503    0  0.16255463780E+02  0.45814403137E+02 -0.34595747668E+02  0.59666283563E+02  0.00000000000E+00 0. -1.
         -2    1    6    6    0  503  0.11189516464E+03  0.17124466485E+03  0.43488531946E+02  0.20913277008E+03  0.00000000000E+00 0.  1.
<mgrwt>
<rscale>  0 0.31561996E+04</rscale>
<asrwt>0</asrwt>
<pdfrwt beam="1">  1        2 0.24548196E+00 0.31561996E+04</pdfrwt>
<pdfrwt beam="2">  1       -1 0.24011685E+00 0.31561996E+04</pdfrwt>
<totfact> 0.87317449E-01</totfact>
</mgrwt>
</event>
<event>
12    6  0.1586493E-007  0.2007028E+04  0.7818608E-02  0.8603342E-01
          2   -1    0    0  501    0  0.00000000000E+00  0.00000000000E+00  0.14034821605E+04  0.14034821605E+04  0.00000000000E+00 0. -1.
         -1   -1    0    0    0  501 -0.00000000000E+00 -0.00000000000E+00 -0.71752991578E+03  0.71752991578E+03  0.00000000000E+00 0.  1.
         24    2    1    2    0    0  0.64766405695E+03  0.44571044048E+03  0.11231875039E+03  0.79821960793E+03  0.80078170361E+02 0.  0.
        254    2    1    2    0    0 -0.64766405695E+03 -0.44571044048E+03  0.57363349435E+03  0.13227924684E+04  0.89587834060E+03 0.  0.
         23    2    4    4    0    0  0.46671408831E+02 -0.47802390034E+03  0.24608226323E+03  0.54883958477E+03  0.99916664444E+02 0.  0.
         23    2    4    4    0    0 -0.69433546578E+03  0.32313459856E+02  0.32755123112E+03  0.77395288362E+03  0.92560025509E+02 0.  0.
          2    1    3    3  502    0  0.61681240132E+03  0.41258987693E+03  0.12169304180E+03  0.75199543974E+03  0.00000000000E+00 0. -1.
         -1    1    3    3    0  502  0.30851655631E+02  0.33120563549E+02 -0.93742914088E+01  0.46224168185E+02  0.00000000000E+00 0.  1.
         11    1    5    5    0    0  0.72219568402E+02 -0.36327776662E+03  0.16176174434E+03  0.40416984513E+03  0.00000000000E+00 0. -1.
        -11    1    5    5    0    0 -0.25548159572E+02 -0.11474613372E+03  0.84320518888E+02  0.14466973964E+03  0.00000000000E+00 0.  1.
          3    1    6    6  503    0 -0.62306671966E+03  0.52336808800E+02  0.27441467283E+03  0.68282844944E+03  0.00000000000E+00 0. -1.
         -3    1    6    6    0  503 -0.71268746120E+02 -0.20023348944E+02  0.53136558297E+02  0.91124434177E+02  0.00000000000E+00 0.  1.
<mgrwt>
<rscale>  0 0.20070281E+04</rscale>
<asrwt>0</asrwt>
<pdfrwt beam="1">  1        2 0.21592033E+00 0.20070281E+04</pdfrwt>
<pdfrwt beam="2">  1       -1 0.11038922E+00 0.20070281E+04</pdfrwt>
<totfact> 0.11536069E+01</totfact>
</mgrwt>
</event>
<event>
12    6  0.1586493E-007  0.1965237E+04  0.7818608E-02  0.8623048E-01
          2   -1    0    0  501    0  0.00000000000E+00  0.00000000000E+00  0.10670398677E+04  0.10670398677E+04  0.00000000000E+00 0. -1.
         -1   -1    0    0    0  501 -0.00000000000E+00 -0.00000000000E+00 -0.90487624810E+03  0.90487624810E+03  0.00000000000E+00 0.  1.
         24    2    1    2    0    0  0.29470827870E+03 -0.59605631516E+03 -0.29777444510E+03  0.73271691799E+03  0.77899687915E+02 0.  0.
        254    2    1    2    0    0 -0.29470827870E+03  0.59605631516E+03  0.45993806469E+03  0.12391991978E+04  0.93911422527E+03 0.  0.
         23    2    4    4    0    0  0.30232128111E+03  0.39620733437E+02  0.20883146146E+03  0.38034212592E+03  0.89897685875E+02 0.  0.
         23    2    4    4    0    0 -0.59702955981E+03  0.55643558172E+03  0.25110660323E+03  0.85885707188E+03  0.92282673626E+02 0.  0.
          2    1    3    3  502    0  0.10773781324E+03 -0.23214770349E+03 -0.15595960754E+03  0.29970550849E+03  0.00000000000E+00 0. -1.
         -1    1    3    3    0  502  0.18697046546E+03 -0.36390861167E+03 -0.14181483756E+03  0.43301140950E+03  0.00000000000E+00 0.  1.
         11    1    5    5    0    0  0.18002424915E+03  0.21803931616E+01  0.16756419318E+03  0.24594967622E+03  0.00000000000E+00 0. -1.
        -11    1    5    5    0    0  0.12229703196E+03  0.37440340275E+02  0.41267268283E+02  0.13439244970E+03  0.00000000000E+00 0.  1.
          1    1    6    6  503    0 -0.53498140275E+03  0.52843994641E+03  0.21660735508E+03  0.78254241069E+03  0.00000000000E+00 0. -1.
         -1    1    6    6    0  503 -0.62048157053E+02  0.27995635311E+02  0.34499248153E+02  0.76314661195E+02  0.00000000000E+00 0.  1.
<mgrwt>
<rscale>  0 0.19652369E+04</rscale>
<asrwt>0</asrwt>
<pdfrwt beam="1">  1        2 0.16415998E+00 0.19652369E+04</pdfrwt>
<pdfrwt beam="2">  1       -1 0.13921173E+00 0.19652369E+04</pdfrwt>
<totfact> 0.10324808E+01</totfact>
</mgrwt>
</event>
<event>
12    6  0.1586493E-007  0.1292471E+04  0.7818608E-02  0.9035557E-01
          2   -1    0    0  501    0  0.00000000000E+00  0.00000000000E+00  0.65958122889E+03  0.65958122889E+03  0.00000000000E+00 0. -1.
         -1   -1    0    0    0  501 -0.00000000000E+00 -0.00000000000E+00 -0.63315948536E+03  0.63315948536E+03  0.00000000000E+00 0.  1.
         24    2    1    2    0    0  0.31747499980E+03 -0.77910038820E+02  0.44332046928E+02  0.33879925643E+03  0.77196218352E+02 0.  0.
        254    2    1    2    0    0 -0.31747499980E+03  0.77910038820E+02 -0.17910303398E+02  0.95394145782E+03  0.89600400464E+03 0.  0.
         23    2    4    4    0    0 -0.46606087274E+03 -0.22858142786E+03 -0.18909107740E+03  0.55992330907E+03  0.91084961595E+02 0.  0.
         23    2    4    4    0    0  0.14858587294E+03  0.30649146668E+03  0.17118077400E+03  0.39401814875E+03  0.99662748159E+02 0.  0.
          4    1    3    3  502    0  0.26143521417E+03 -0.64646170308E+02  0.65984659780E+02  0.27727508700E+03  0.00000000000E+00 0. -1.
         -3    1    3    3    0  502  0.56039785632E+02 -0.13263868512E+02 -0.21652612852E+02  0.61524169436E+02  0.00000000000E+00 0.  1.
         11    1    5    5    0    0 -0.21056489036E+03 -0.15344681843E+03 -0.10060068333E+03  0.27929195589E+03  0.00000000000E+00 0. -1.
        -11    1    5    5    0    0 -0.25549598237E+03 -0.75134609432E+02 -0.88490394064E+02  0.28063135318E+03  0.00000000000E+00 0.  1.
          3    1    6    6  503    0  0.15854887191E+03  0.28245262879E+03  0.13858884751E+03  0.35231250467E+03  0.00000000000E+00 0. -1.
         -3    1    6    6    0  503 -0.99629989714E+01  0.24038837896E+02  0.32591926487E+02  0.41705644078E+02  0.00000000000E+00 0.  1.
<mgrwt>
<rscale>  0 0.12924707E+04</rscale>
<asrwt>0</asrwt>
<pdfrwt beam="1">  1        2 0.10147404E+00 0.12924707E+04</pdfrwt>
<pdfrwt beam="2">  1       -1 0.97409152E-01 0.12924707E+04</pdfrwt>
<totfact> 0.50080825E+01</totfact>
</mgrwt>
</event>
<event>
12    6  0.1586493E-007  0.1543902E+04  0.7818608E-02  0.8855772E-01
         -1   -1    0    0    0  501 -0.00000000000E+00  0.00000000000E+00  0.53514930190E+03  0.53514930190E+03  0.00000000000E+00 0.  1.
          2   -1    0    0  501    0  0.00000000000E+00 -0.00000000000E+00 -0.11135361256E+04  0.11135361256E+04  0.00000000000E+00 0. -1.
         24    2    1    2    0    0  0.41737415750E+03 -0.28184807953E+03 -0.19969338562E+03  0.54847061707E+03  0.85457838964E+02 0.  0.
        254    2    1    2    0    0 -0.41737415750E+03  0.28184807953E+03 -0.37869343808E+03  0.11002148104E+04  0.90190042785E+03 0.  0.
         23    2    4    4    0    0 -0.57024502204E+03  0.41765138002E+03 -0.47492162369E+03  0.85640110093E+03  0.90885843908E+02 0.  0.
         23    2    4    4    0    0  0.15287086455E+03 -0.13580330048E+03  0.96228185610E+02  0.24381370950E+03  0.91505319983E+02 0.  0.
          4    1    3    3  502    0  0.13886234500E+03 -0.50507455237E+02 -0.73634725312E+02  0.16509338771E+03  0.00000000000E+00 0. -1.
         -3    1    3    3    0  502  0.27851181250E+03 -0.23134062430E+03 -0.12605866031E+03  0.38337722936E+03  0.00000000000E+00 0.  1.
         11    1    5    5    0    0 -0.14602048581E+03  0.62018630778E+02 -0.11840347013E+03  0.19795876990E+03  0.00000000000E+00 0. -1.
        -11    1    5    5    0    0 -0.42422453623E+03  0.35563274924E+03 -0.35651815356E+03  0.65844233103E+03  0.00000000000E+00 0.  1.
          4    1    6    6  503    0  0.81492265716E+02 -0.22669719907E+02  0.11240628555E+02  0.85330283619E+02  0.00000000000E+00 0. -1.
         -4    1    6    6    0  503  0.71378598832E+02 -0.11313358058E+03  0.84987557055E+02  0.15848342588E+03  0.00000000000E+00 0.  1.
<mgrwt>
<rscale>  0 0.15439017E+04</rscale>
<asrwt>0</asrwt>
<pdfrwt beam="1">  1        2 0.17131325E+00 0.15439017E+04</pdfrwt>
<pdfrwt beam="2">  1       -1 0.82330664E-01 0.15439017E+04</pdfrwt>
<totfact> 0.34437583E+01</totfact>
</mgrwt>
</event>
<event>
12    6  0.1586493E-007  0.1828955E+04  0.7818608E-02  0.8691051E-01
          2   -1    0    0  501    0  0.00000000000E+00  0.00000000000E+00  0.28048731789E+04  0.28048731789E+04  0.00000000000E+00 0. -1.
         -1   -1    0    0    0  501 -0.00000000000E+00 -0.00000000000E+00 -0.29814856794E+03  0.29814856794E+03  0.00000000000E+00 0.  1.
         24    2    1    2    0    0  0.86784439750E+02 -0.62383329959E+03  0.13798080768E+04  0.15188045486E+04  0.78723588625E+02 0.  0.
        254    2    1    2    0    0 -0.86784439750E+02  0.62383329959E+03  0.11269165342E+04  0.15842171983E+04  0.91820680220E+03 0.  0.
         23    2    4    4    0    0 -0.43940385211E+03  0.56204755754E+03  0.89358492022E+03  0.11471395286E+04  0.91988511557E+02 0.  0.
         23    2    4    4    0    0  0.35261941236E+03  0.61785742046E+02  0.23333161396E+03  0.43707766966E+03  0.91843994599E+02 0.  0.
          4    1    3    3  502    0  0.97814119078E+02 -0.53613618158E+03  0.11505014175E+04  0.12730526772E+04  0.00000000000E+00 0. -1.
         -1    1    3    3    0  502 -0.11029679327E+02 -0.87697118011E+02  0.22930665926E+03  0.24575187144E+03  0.00000000000E+00 0.  1.
         11    1    5    5    0    0 -0.37599754390E+03  0.45038519196E+03  0.77758226559E+03  0.97409196379E+03  0.00000000000E+00 0. -1.
        -11    1    5    5    0    0 -0.63406308213E+02  0.11166236558E+03  0.11600265463E+03  0.17304756482E+03  0.00000000000E+00 0.  1.
          2    1    6    6  503    0  0.20256632829E+03  0.80993035188E+02  0.13165304655E+03  0.25480485429E+03  0.00000000000E+00 0. -1.
         -2    1    6    6    0  503  0.15005308408E+03 -0.19207293142E+02  0.10167856741E+03  0.18227281537E+03  0.00000000000E+00 0.  1.
<mgrwt>
<rscale>  0 0.18289548E+04</rscale>
<asrwt>0</asrwt>
<pdfrwt beam="1">  1        2 0.43151893E+00 0.18289548E+04</pdfrwt>
<pdfrwt beam="2">  1       -1 0.45869012E-01 0.18289548E+04</pdfrwt>
<totfact> 0.11665355E+01</totfact>
</mgrwt>
</event>
<event>
12    6  0.1586493E-007  0.2173436E+04  0.7818608E-02  0.8529567E-01
         -1   -1    0    0    0  501 -0.00000000000E+00  0.00000000000E+00  0.14374687278E+04  0.14374687278E+04  0.00000000000E+00 0.  1.
          2   -1    0    0  501    0  0.00000000000E+00 -0.00000000000E+00 -0.82155217015E+03  0.82155217015E+03  0.00000000000E+00 0. -1.
         24    2    1    2    0    0 -0.68328640099E+03 -0.53339818300E+03  0.35721764463E+01  0.86893505377E+03  0.60344343663E+02 0.  0.
        254    2    1    2    0    0  0.68328640099E+03  0.53339818300E+03  0.61234438124E+03  0.13900858442E+04  0.89776337954E+03 0.  0.
         23    2    4    4    0    0  0.75259016172E+03  0.67298057818E+03  0.65187812506E+03  0.12051797042E+04  0.90654394607E+02 0.  0.
         23    2    4    4    0    0 -0.69303760734E+02 -0.13958239518E+03 -0.39533743827E+02  0.18490614005E+03  0.91329663485E+02 0.  0.
          2    1    3    3  502    0 -0.47702421927E+03 -0.36428423407E+03  0.29590083655E+02  0.60094149633E+03  0.00000000000E+00 0. -1.
         -1    1    3    3    0  502 -0.20626218172E+03 -0.16911394893E+03 -0.26017907209E+02  0.26799355743E+03  0.00000000000E+00 0.  1.
         11    1    5    5    0    0  0.41582660875E+03  0.42989491522E+03  0.37197407477E+03  0.70433381218E+03  0.00000000000E+00 0.  1.
        -11    1    5    5    0    0  0.33676355297E+03  0.24308566296E+03  0.27990405029E+03  0.50084589198E+03  0.00000000000E+00 0. -1.
          3    1    6    6  503    0 -0.79117580161E+02 -0.96006966533E+02  0.12624062907E+01  0.12441271150E+03  0.00000000000E+00 0. -1.
         -3    1    6    6    0  503  0.98138194272E+01 -0.43575428646E+02 -0.40796150118E+02  0.60493428551E+02  0.00000000000E+00 0.  1.
<mgrwt>
<rscale>  0 0.21734356E+04</rscale>
<asrwt>0</asrwt>
<pdfrwt beam="1">  1        2 0.12639264E+00 0.21734356E+04</pdfrwt>
<pdfrwt beam="2">  1       -1 0.22114904E+00 0.21734356E+04</pdfrwt>
<totfact> 0.37557369E+00</totfact>
</mgrwt>
</event>
<event>
12    6  0.1586493E-007  0.1570175E+04  0.7818608E-02  0.8839083E-01
          2   -1    0    0  501    0  0.00000000000E+00  0.00000000000E+00  0.82553052617E+03  0.82553052617E+03  0.00000000000E+00 0. -1.
         -1   -1    0    0    0  501 -0.00000000000E+00 -0.00000000000E+00 -0.74662621559E+03  0.74662621559E+03  0.00000000000E+00 0.  1.
         24    2    1    2    0    0  0.16216036624E+03  0.29475710041E+03  0.42231233477E+03  0.54743168554E+03  0.90310628472E+02 0.  0.
        254    2    1    2    0    0 -0.16216036624E+03 -0.29475710041E+03 -0.34340802419E+03  0.10247250562E+04  0.90496112466E+03 0.  0.
         23    2    4    4    0    0 -0.48045864762E+02 -0.49034019438E+03  0.10719293359E+03  0.51223487218E+03  0.90290242664E+02 0.  0.
         23    2    4    4    0    0 -0.11411450148E+03  0.19558309397E+03 -0.45060095778E+03  0.51249018404E+03  0.91269378757E+02 0.  0.
          4    1    3    3  502    0  0.14950878243E+03  0.21703078834E+03  0.36424656325E+03  0.44958958835E+03  0.00000000000E+00 0. -1.
         -3    1    3    3    0  502  0.12651583806E+02  0.77726312068E+02  0.58065771516E+02  0.97842097188E+02  0.00000000000E+00 0.  1.
         11    1    5    5    0    0 -0.11654311540E+02 -0.20655129451E+03  0.51193357824E+00  0.20688045417E+03  0.00000000000E+00 0.  1.
        -11    1    5    5    0    0 -0.36391553222E+02 -0.28378889987E+03  0.10668100001E+03  0.30535441801E+03  0.00000000000E+00 0. -1.
          2    1    6    6  503    0 -0.73554111955E+02  0.60111796473E+02 -0.24664486483E+03  0.26430536280E+03  0.00000000000E+00 0. -1.
         -2    1    6    6    0  503 -0.40560389523E+02  0.13547129750E+03 -0.20395609295E+03  0.24818482124E+03  0.00000000000E+00 0.  1.
<mgrwt>
<rscale>  0 0.15701754E+04</rscale>
<asrwt>0</asrwt>
<pdfrwt beam="1">  1        2 0.12700470E+00 0.15701754E+04</pdfrwt>
<pdfrwt beam="2">  1       -1 0.11486557E+00 0.15701754E+04</pdfrwt>
<totfact> 0.24947772E+01</totfact>
</mgrwt>
</event>
<event>
12    6  0.1586493E-007  0.1678995E+04  0.7818608E-02  0.8773436E-01
         -1   -1    0    0    0  501 -0.00000000000E+00  0.00000000000E+00  0.36368047418E+03  0.36368047418E+03  0.00000000000E+00 0.  1.
          2   -1    0    0  501    0  0.00000000000E+00 -0.00000000000E+00 -0.19378431785E+04  0.19378431785E+04  0.00000000000E+00 0. -1.
         24    2    1    2    0    0 -0.38121773720E+03 -0.40995592282E+03 -0.77834148268E+03  0.96211517819E+03  0.80369961021E+02 0.  0.
        254    2    1    2    0    0  0.38121773720E+03  0.40995592282E+03 -0.79582122168E+03  0.13394084745E+04  0.92048510199E+03 0.  0.
         23    2    4    4    0    0 -0.10822967938E+03  0.50377019465E+03 -0.21085809935E+03  0.56556597822E+03  0.99527208040E+02 0.  0.
         23    2    4    4    0    0  0.48944741657E+03 -0.93814271828E+02 -0.58496312233E+03  0.77384249632E+03  0.91051982092E+02 0.  0.
          4    1    3    3  502    0 -0.39579534957E+02 -0.50380804590E+02 -0.13800006982E+03  0.15214724555E+03  0.00000000000E+00 0. -1.
         -3    1    3    3    0  502 -0.34163820224E+03 -0.35957511823E+03 -0.64034141286E+03  0.80996793264E+03  0.00000000000E+00 0.  1.
         11    1    5    5    0    0  0.47786448080E+01 -0.16836484058E+01  0.21991364454E+01  0.55232525980E+01  0.00000000000E+00 0. -1.
        -11    1    5    5    0    0 -0.11300832418E+03  0.50545384305E+03 -0.21305723580E+03  0.56004272562E+03  0.00000000000E+00 0.  1.
          2    1    6    6  503    0  0.87651443369E+02  0.14664416499E+02 -0.12721238620E+03  0.15517993375E+03  0.00000000000E+00 0. -1.
         -2    1    6    6    0  503  0.40179597320E+03 -0.10847868833E+03 -0.45775073613E+03  0.61866256258E+03  0.00000000000E+00 0.  1.
<mgrwt>
<rscale>  0 0.16789946E+04</rscale>
<asrwt>0</asrwt>
<pdfrwt beam="1">  1        2 0.29812972E+00 0.16789946E+04</pdfrwt>
<pdfrwt beam="2">  1       -1 0.55950842E-01 0.16789946E+04</pdfrwt>
<totfact> 0.25380908E+01</totfact>
</mgrwt>
</event>
<event>
12    6  0.1586493E-007  0.1326919E+04  0.7818608E-02  0.9008487E-01
         -1   -1    0    0    0  501 -0.00000000000E+00  0.00000000000E+00  0.31002249604E+03  0.31002249604E+03  0.00000000000E+00 0.  1.
          2   -1    0    0  501    0  0.00000000000E+00 -0.00000000000E+00 -0.14198268782E+04  0.14198268782E+04  0.00000000000E+00 0. -1.
         24    2    1    2    0    0 -0.20963591716E+03  0.94705510754E+02 -0.66495773342E+03  0.70794054623E+03  0.78068420137E+02 0.  0.
        254    2    1    2    0    0  0.20963591716E+03 -0.94705510754E+02 -0.44484664878E+03  0.10219088281E+04  0.89078210601E+03 0.  0.
         23    2    4    4    0    0 -0.29491642428E+03 -0.11586000561E+03 -0.38211835351E+03  0.50505707079E+03  0.93107306103E+02 0.  0.
         23    2    4    4    0    0  0.50455234144E+03  0.21154494856E+02 -0.62728295264E+02  0.51685175727E+03  0.90445132846E+02 0.  0.
          4    1    3    3  502    0 -0.16686257705E+03  0.10717741262E+03 -0.53737817300E+03  0.57280486922E+03  0.00000000000E+00 0. -1.
         -3    1    3    3    0  502 -0.42773340116E+02 -0.12471901861E+02 -0.12757956043E+03  0.13513567700E+03  0.00000000000E+00 0.  1.
         11    1    5    5    0    0 -0.11763192692E+03 -0.43688272687E+02 -0.22412903614E+03  0.25686525698E+03  0.00000000000E+00 0. -1.
        -11    1    5    5    0    0 -0.17728449736E+03 -0.72171732924E+02 -0.15798931737E+03  0.24819181381E+03  0.00000000000E+00 0.  1.
          1    1    6    6  503    0  0.69968912618E+02 -0.14115146197E+02 -0.36199785075E+02  0.80033183896E+02  0.00000000000E+00 0. -1.
         -1    1    6    6    0  503  0.43458342883E+03  0.35269641053E+02 -0.26528510189E+02  0.43681857337E+03  0.00000000000E+00 0.  1.
<mgrwt>
<rscale>  0 0.13269186E+04</rscale>
<asrwt>0</asrwt>
<pdfrwt beam="1">  1        2 0.21843490E+00 0.13269186E+04</pdfrwt>
<pdfrwt beam="2">  1       -1 0.47695770E-01 0.13269186E+04</pdfrwt>
<totfact> 0.68985080E+01</totfact>
</mgrwt>
</event>
<event>
12    6  0.1586493E-007  0.1402194E+04  0.7818608E-02  0.8952232E-01
          2   -1    0    0  501    0  0.00000000000E+00  0.00000000000E+00  0.90890404562E+03  0.90890404562E+03  0.00000000000E+00 0. -1.
         -1   -1    0    0    0  501 -0.00000000000E+00 -0.00000000000E+00 -0.54080221631E+03  0.54080221631E+03  0.00000000000E+00 0.  1.
         24    2    1    2    0    0  0.16113333793E+03 -0.19235267992E+03  0.45038422782E+03  0.52136789918E+03  0.77556608786E+02 0.  0.
        254    2    1    2    0    0 -0.16113333793E+03  0.19235267992E+03 -0.82282398508E+02  0.92833836275E+03  0.88998776204E+03 0.  0.
         23    2    4    4    0    0  0.12235368356E+03 -0.12389173754E+03 -0.36171807401E+03  0.41184181094E+03  0.91946319435E+02 0.  0.
         23    2    4    4    0    0 -0.28348702149E+03  0.31624441745E+03  0.27943567551E+03  0.51649655181E+03  0.91153542804E+02 0.  0.
          2    1    3    3  502    0  0.16156401860E+03 -0.15850008566E+03  0.41286550784E+03  0.47083238719E+03  0.00000000000E+00 0. -1.
         -1    1    3    3    0  502 -0.43068066656E+00 -0.33852594261E+02  0.37518719980E+02  0.50535511999E+02  0.00000000000E+00 0.  1.
         11    1    5    5    0    0  0.10784811225E+02 -0.70137195109E+02 -0.16173736230E+03  0.17661968366E+03  0.00000000000E+00 0. -1.
        -11    1    5    5    0    0  0.11156887233E+03 -0.53754542428E+02 -0.19998071171E+03  0.23522212728E+03  0.00000000000E+00 0.  1.
          3    1    6    6  503    0 -0.17494624572E+02  0.53514829701E+02  0.14099784974E+02  0.58040527419E+02  0.00000000000E+00 0. -1.
         -3    1    6    6    0  503 -0.26599239692E+03  0.26272958775E+03  0.26533589053E+03  0.45845602439E+03  0.00000000000E+00 0.  1.
<mgrwt>
<rscale>  0 0.14021945E+04</rscale>
<asrwt>0</asrwt>
<pdfrwt beam="1">  1        2 0.13983139E+00 0.14021945E+04</pdfrwt>
<pdfrwt beam="2">  1       -1 0.83200341E-01 0.14021945E+04</pdfrwt>
<totfact> 0.46070399E+01</totfact>
</mgrwt>
</event>
<event>
12    6  0.1586493E-007  0.1174348E+04  0.7818608E-02  0.9135611E-01
          2   -1    0    0  501    0  0.00000000000E+00  0.00000000000E+00  0.74022551020E+03  0.74022551020E+03  0.00000000000E+00 0. -1.
         -1   -1    0    0    0  501 -0.00000000000E+00 -0.00000000000E+00 -0.46576781268E+03  0.46576781268E+03  0.00000000000E+00 0.  1.
         24    2    1    2    0    0 -0.18034419300E+03 -0.11978916490E+03  0.22145129037E+02  0.23108493806E+03  0.77694078806E+02 0.  0.
        254    2    1    2    0    0  0.18034419300E+03  0.11978916490E+03  0.25231256848E+03  0.97490838482E+03  0.91646672313E+03 0.  0.
         23    2    4    4    0    0 -0.32550556050E+03  0.20387381145E+03 -0.62406058558E+00  0.39462715277E+03  0.90618978924E+02 0.  0.
         23    2    4    4    0    0  0.50584975350E+03 -0.84084646551E+02  0.25293662906E+03  0.58028123204E+03  0.98970546301E+02 0.  0.
          2    1    3    3  502    0 -0.82363079542E+02 -0.48916131132E+02  0.48421276364E+02  0.10733631613E+03  0.00000000000E+00 0. -1.
         -1    1    3    3    0  502 -0.97981113460E+02 -0.70873033768E+02 -0.26276147327E+02  0.12374862193E+03  0.00000000000E+00 0.  1.
         11    1    5    5    0    0 -0.18581842800E+03  0.14645149836E+03  0.35750507147E+02  0.23927939384E+03  0.00000000000E+00 0. -1.
        -11    1    5    5    0    0 -0.13968713250E+03  0.57422313095E+02 -0.36374567733E+02  0.15534775894E+03  0.00000000000E+00 0.  1.
          2    1    6    6  503    0  0.16951765838E+03  0.86189296321E+01  0.51255480339E+02  0.17730664600E+03  0.00000000000E+00 0.  1.
         -2    1    6    6    0  503  0.33633209513E+03 -0.92703576183E+02  0.20168114872E+03  0.40297458605E+03  0.00000000000E+00 0. -1.
<mgrwt>
<rscale>  0 0.11743478E+04</rscale>
<asrwt>0</asrwt>
<pdfrwt beam="1">  1        2 0.11388085E+00 0.11743478E+04</pdfrwt>
<pdfrwt beam="2">  1       -1 0.71656586E-01 0.11743478E+04</pdfrwt>
<totfact> 0.84668476E+01</totfact>
</mgrwt>
</event>
<event>
12    6  0.1586493E-007  0.4215644E+04  0.7818608E-02  0.7962403E-01
          2   -1    0    0  501    0  0.00000000000E+00  0.00000000000E+00  0.31368759178E+04  0.31368759178E+04  0.00000000000E+00 0. -1.
         -1   -1    0    0    0  501 -0.00000000000E+00 -0.00000000000E+00 -0.14163496678E+04  0.14163496678E+04  0.00000000000E+00 0.  1.
         24    2    1    2    0    0 -0.12588084917E+04 -0.68146448113E+03  0.23477694798E+04  0.27508662908E+04  0.79064288790E+02 0.  0.
        254    2    1    2    0    0  0.12588084917E+04  0.68146448113E+03 -0.62724322988E+03  0.18023592948E+04  0.89781529300E+03 0.  0.
         23    2    4    4    0    0  0.12849290569E+04  0.77996448304E+03 -0.68384540173E+03  0.16538555333E+04  0.90588716106E+02 0.  0.
         23    2    4    4    0    0 -0.26120565234E+02 -0.98500001905E+02  0.56602171858E+02  0.14850376149E+03  0.92005581423E+02 0.  0.
          4    1    3    3  502    0 -0.10156761278E+04 -0.55794750382E+03  0.19564647594E+04  0.22739080387E+04  0.00000000000E+00 0. -1.
         -3    1    3    3    0  502 -0.24313236389E+03 -0.12351697731E+03  0.39130472044E+03  0.47695825215E+03  0.00000000000E+00 0.  1.
         11    1    5    5    0    0  0.10304613468E+04  0.60057466137E+03 -0.50896916432E+03  0.12967613972E+04  0.00000000000E+00 0. -1.
        -11    1    5    5    0    0  0.25446771013E+03  0.17938982167E+03 -0.17487623741E+03  0.35709413609E+03  0.00000000000E+00 0.  1.
          3    1    6    6  503    0 -0.59837574968E+02 -0.75337559891E+02  0.43142933811E+02  0.10544001160E+03  0.00000000000E+00 0. -1.
         -3    1    6    6    0  503  0.33717009734E+02 -0.23162442014E+02  0.13459238046E+02  0.43063749886E+02  0.00000000000E+00 0.  1.
<mgrwt>
<rscale>  0 0.42156438E+04</rscale>
<asrwt>0</asrwt>
<pdfrwt beam="1">  1        2 0.48259629E+00 0.42156438E+04</pdfrwt>
<pdfrwt beam="2">  1       -1 0.21789995E+00 0.42156438E+04</pdfrwt>
<totfact> 0.14249819E-01</totfact>
</mgrwt>
</event>
<event>
12    6  0.1586493E-007  0.2612496E+04  0.7818608E-02  0.8363969E-01
          2   -1    0    0  501    0  0.00000000000E+00  0.00000000000E+00  0.84074196515E+03  0.84074196515E+03  0.00000000000E+00 0. -1.
         -1   -1    0    0    0  501 -0.00000000000E+00 -0.00000000000E+00 -0.20294968755E+04  0.20294968755E+04  0.00000000000E+00 0.  1.
         24    2    1    2    0    0  0.97265298096E+03 -0.55269140235E+03 -0.26918189111E+03  0.11532716126E+04  0.77813329465E+02 0.  0.
        254    2    1    2    0    0 -0.97265298096E+03  0.55269140235E+03 -0.91957301927E+03  0.17169672281E+04  0.92241005904E+03 0.  0.
         23    2    4    4    0    0 -0.17287233103E+01  0.45232275373E+03 -0.37990991632E+03  0.59705136611E+03  0.86832754385E+02 0.  0.
         23    2    4    4    0    0 -0.97092425765E+03  0.10036864862E+03 -0.53966310295E+03  0.11199158620E+04  0.10103214110E+03 0.  0.
          2    1    3    3  502    0  0.70139726400E+03 -0.41164128420E+03 -0.16166940472E+03  0.82918252829E+03  0.00000000000E+00 0. -1.
         -1    1    3    3    0  502  0.27125571696E+03 -0.14105011815E+03 -0.10751248639E+03  0.32408908427E+03  0.00000000000E+00 0.  1.
         11    1    5    5    0    0 -0.25292616570E+01 -0.37254681728E+01 -0.30324824750E+01  0.54288329867E+01  0.00000000000E+00 0. -1.
        -11    1    5    5    0    0  0.80053834670E+00  0.45604822190E+03 -0.37687743384E+03  0.59162253312E+03  0.00000000000E+00 0.  1.
          4    1    6    6  503    0 -0.33799406868E+03  0.82417373013E+02 -0.20302677351E+03  0.40280576535E+03  0.00000000000E+00 0. -1.
         -4    1    6    6    0  503 -0.63293018897E+03  0.17951275604E+02 -0.33663632944E+03  0.71711009664E+03  0.00000000000E+00 0.  1.
<mgrwt>
<rscale>  0 0.26124955E+04</rscale>
<asrwt>0</asrwt>
<pdfrwt beam="1">  1        2 0.12934492E+00 0.26124955E+04</pdfrwt>
<pdfrwt beam="2">  1       -1 0.31223029E+00 0.26124955E+04</pdfrwt>
<totfact> 0.89284204E-01</totfact>
</mgrwt>
</event>
<event>
12    6  0.1586493E-007  0.1434100E+04  0.7818608E-02  0.8929499E-01
         -1   -1    0    0    0  501 -0.00000000000E+00  0.00000000000E+00  0.23290954191E+03  0.23290954191E+03  0.00000000000E+00 0.  1.
          2   -1    0    0  501    0  0.00000000000E+00 -0.00000000000E+00 -0.22075550807E+04  0.22075550807E+04  0.00000000000E+00 0. -1.
         24    2    1    2    0    0 -0.27055190864E+03 -0.20730875769E+03 -0.10890017185E+04  0.11440285381E+04  0.81861448963E+02 0.  0.
        254    2    1    2    0    0  0.27055190864E+03  0.20730875769E+03 -0.88564382029E+03  0.12964360845E+04  0.88329286678E+03 0.  0.
         23    2    4    4    0    0  0.40903340060E+03 -0.55034815939E+01 -0.93049581166E+03  0.10203067419E+04  0.88683599882E+02 0.  0.
         23    2    4    4    0    0 -0.13848149196E+03  0.21281223928E+03  0.44851991377E+02  0.27612934262E+03  0.98840983020E+02 0.  0.
          4    1    3    3  502    0 -0.26451205495E+03 -0.17382997838E+03 -0.98272553704E+03  0.10324402984E+04  0.00000000000E+00 0. -1.
         -3    1    3    3    0  502 -0.60398536872E+01 -0.33478779308E+02 -0.10627618147E+03  0.11158823972E+03  0.00000000000E+00 0.  1.
         11    1    5    5    0    0  0.35592209622E+03  0.20919471608E+02 -0.83431473681E+03  0.90730328057E+03  0.00000000000E+00 0.  1.
        -11    1    5    5    0    0  0.53111304379E+02 -0.26422953202E+02 -0.96181074852E+02  0.11300346131E+03  0.00000000000E+00 0. -1.
          4    1    6    6  503    0  0.96677619806E+01  0.48405864585E+02 -0.38950017315E+01  0.49515294470E+02  0.00000000000E+00 0. -1.
         -4    1    6    6    0  503 -0.14814925394E+03  0.16440637469E+03  0.48746993108E+02  0.22661404815E+03  0.00000000000E+00 0.  1.
<mgrwt>
<rscale>  0 0.14340999E+04</rscale>
<asrwt>0</asrwt>
<pdfrwt beam="1">  1        2 0.33962385E+00 0.14340999E+04</pdfrwt>
<pdfrwt beam="2">  1       -1 0.35832238E-01 0.14340999E+04</pdfrwt>
<totfact> 0.42123951E+01</totfact>
</mgrwt>
</event>
<event>
12    6  0.1586493E-007  0.1743255E+04  0.7818608E-02  0.8737072E-01
         -1   -1    0    0    0  501 -0.00000000000E+00  0.00000000000E+00  0.11284813091E+04  0.11284813091E+04  0.00000000000E+00 0.  1.
          2   -1    0    0  501    0  0.00000000000E+00 -0.00000000000E+00 -0.67323635195E+03  0.67323635195E+03  0.00000000000E+00 0. -1.
         24    2    1    2    0    0  0.42804908399E+03 -0.39834256777E+02  0.50854932532E+03  0.67113377576E+03  0.83578360586E+02 0.  0.
        254    2    1    2    0    0 -0.42804908399E+03  0.39834256777E+02 -0.53304368165E+02  0.11305838853E+04  0.10443015751E+04 0.  0.
         23    2    4    4    0    0 -0.24214573903E+03  0.35164546541E+03 -0.42064890406E+03  0.60622485563E+03  0.90961435896E+02 0.  0.
         23    2    4    4    0    0 -0.18590334497E+03 -0.31181120863E+03  0.36734453590E+03  0.52435902967E+03  0.90686826147E+02 0.  0.
          4    1    3    3  502    0  0.39359586374E+02  0.60022792201E+01  0.88295005104E+02  0.96856658634E+02  0.00000000000E+00 0. -1.
         -1    1    3    3    0  502  0.38868949762E+03 -0.45836535997E+02  0.42025432022E+03  0.57427711713E+03  0.00000000000E+00 0.  1.
         11    1    5    5    0    0 -0.17266361140E+03  0.17216370389E+03 -0.22500327594E+03  0.33178236514E+03  0.00000000000E+00 0. -1.
        -11    1    5    5    0    0 -0.69482127627E+02  0.17948176152E+03 -0.19564562813E+03  0.27444249049E+03  0.00000000000E+00 0.  1.
          3    1    6    6  503    0 -0.39311593774E+02 -0.14515683174E+03  0.12321636493E+03  0.19441753983E+03  0.00000000000E+00 0. -1.
         -3    1    6    6    0  503 -0.14659175119E+03 -0.16665437689E+03  0.24412817097E+03  0.32994148984E+03  0.00000000000E+00 0.  1.
<mgrwt>
<rscale>  0 0.17432552E+04</rscale>
<asrwt>0</asrwt>
<pdfrwt beam="1">  1        2 0.10357482E+00 0.17432552E+04</pdfrwt>
<pdfrwt beam="2">  1       -1 0.17361251E+00 0.17432552E+04</pdfrwt>
<totfact> 0.10790269E+01</totfact>
</mgrwt>
</event>
<event>
12    6  0.1586493E-007  0.1577364E+04  0.7818608E-02  0.8834576E-01
          2   -1    0    0  501    0  0.00000000000E+00  0.00000000000E+00  0.14746102315E+04  0.14746102315E+04  0.00000000000E+00 0. -1.
         -1   -1    0    0    0  501 -0.00000000000E+00 -0.00000000000E+00 -0.42181921644E+03  0.42181921644E+03  0.00000000000E+00 0.  1.
         24    2    1    2    0    0  0.13735559155E+03  0.51744540555E+01 -0.25596810147E+03  0.30140971893E+03  0.80217306077E+02 0.  0.
        254    2    1    2    0    0 -0.13735559155E+03 -0.51744540555E+01  0.13087591165E+04  0.15950197290E+04  0.90130137986E+03 0.  0.
         23    2    4    4    0    0 -0.29855315938E+03 -0.17222883970E+03  0.11344826158E+03  0.37441773475E+03  0.92311266036E+02 0.  0.
         23    2    4    4    0    0  0.16119756783E+03  0.16705438565E+03  0.11953108549E+04  0.12206019943E+04  0.84907978409E+02 0.  0.
          2    1    3    3  502    0  0.25900987645E+01 -0.12324442194E+02 -0.11845540336E+01  0.12649255126E+02  0.00000000000E+00 0. -1.
         -1    1    3    3    0  502  0.13476549278E+03  0.17498896249E+02 -0.25478354743E+03  0.28876046381E+03  0.00000000000E+00 0.  1.
         11    1    5    5    0    0 -0.64992203798E+02 -0.48657949521E+02  0.68836229004E+02  0.10644251514E+03  0.00000000000E+00 0.  1.
        -11    1    5    5    0    0 -0.23356095558E+03 -0.12357089018E+03  0.44612032574E+02  0.26797521961E+03  0.00000000000E+00 0. -1.
          3    1    6    6  503    0  0.60243213292E+02  0.57161254318E+02  0.64846452805E+03  0.65376058147E+03  0.00000000000E+00 0. -1.
         -3    1    6    6    0  503  0.10095435454E+03  0.10989313133E+03  0.54684632689E+03  0.56684141279E+03  0.00000000000E+00 0.  1.
<mgrwt>
<rscale>  0 0.15773635E+04</rscale>
<asrwt>0</asrwt>
<pdfrwt beam="1">  1        2 0.22686311E+00 0.15773635E+04</pdfrwt>
<pdfrwt beam="2">  1       -1 0.64895265E-01 0.15773635E+04</pdfrwt>
<totfact> 0.34577755E+01</totfact>
</mgrwt>
</event>
<event>
12    6  0.1586493E-007  0.2036678E+04  0.7818608E-02  0.8589662E-01
         -1   -1    0    0    0  501 -0.00000000000E+00  0.00000000000E+00  0.59849301734E+03  0.59849301734E+03  0.00000000000E+00 0.  1.
          2   -1    0    0  501    0  0.00000000000E+00 -0.00000000000E+00 -0.17327095299E+04  0.17327095299E+04  0.00000000000E+00 0. -1.
         24    2    1    2    0    0  0.27468540978E+03  0.73749495883E+03 -0.69053022427E+03  0.10499859215E+04  0.79294111496E+02 0.  0.
        254    2    1    2    0    0 -0.27468540978E+03 -0.73749495883E+03 -0.44368628826E+03  0.12812166257E+04  0.90846443568E+03 0.  0.
         23    2    4    4    0    0  0.25325291202E+03 -0.27176808207E+03 -0.42378483928E+03  0.57087527164E+03  0.91159518904E+02 0.  0.
         23    2    4    4    0    0 -0.52793832180E+03 -0.46572687676E+03 -0.19901448979E+02  0.71034135405E+03  0.92565524041E+02 0.  0.
          4    1    3    3  502    0  0.24743450319E+03  0.67695070985E+03 -0.60054689947E+03  0.93815919512E+03  0.00000000000E+00 0. -1.
         -3    1    3    3    0  502  0.27250906594E+02  0.60544248982E+02 -0.89983324802E+02  0.11182672640E+03  0.00000000000E+00 0.  1.
         11    1    5    5    0    0  0.10283887912E+02 -0.14667973746E+02 -0.63425203504E+02  0.65906481046E+02  0.00000000000E+00 0.  1.
        -11    1    5    5    0    0  0.24296902411E+03 -0.25710010832E+03 -0.36035963577E+03  0.50496879059E+03  0.00000000000E+00 0. -1.
          2    1    6    6  503    0 -0.45187014502E+03 -0.34997690612E+03 -0.15105786903E+02  0.57175051165E+03  0.00000000000E+00 0. -1.
         -2    1    6    6    0  503 -0.76068176780E+02 -0.11574997064E+03 -0.47956620760E+01  0.13859084240E+03  0.00000000000E+00 0.  1.
<mgrwt>
<rscale>  0 0.20366782E+04</rscale>
<asrwt>0</asrwt>
<pdfrwt beam="1">  1        2 0.26657069E+00 0.20366782E+04</pdfrwt>
<pdfrwt beam="2">  1       -1 0.92075850E-01 0.20366782E+04</pdfrwt>
<totfact> 0.11392503E+01</totfact>
</mgrwt>
</event>
<event>
12    6  0.1586493E-007  0.2130562E+04  0.7818608E-02  0.8547899E-01
         -1   -1    0    0    0  501 -0.00000000000E+00  0.00000000000E+00  0.10381406455E+04  0.10381406455E+04  0.00000000000E+00 0.  1.
          2   -1    0    0  501    0  0.00000000000E+00 -0.00000000000E+00 -0.10931310127E+04  0.10931310127E+04  0.00000000000E+00 0. -1.
         24    2    1    2    0    0  0.85522331361E+02 -0.13224716381E+03 -0.88205989501E+03  0.90002499691E+03  0.84923231099E+02 0.  0.
        254    2    1    2    0    0 -0.85522331361E+02  0.13224716381E+03  0.82706952781E+03  0.12312466612E+04  0.89839910703E+03 0.  0.
         23    2    4    4    0    0 -0.17552599023E+03  0.43698802259E+03  0.19767641243E+03  0.51937719053E+03  0.94386423158E+02 0.  0.
         23    2    4    4    0    0  0.90003658873E+02 -0.30474085878E+03  0.62939311538E+03  0.71186947072E+03  0.98258841978E+02 0.  0.
          2    1    3    3  502    0  0.69952742353E+02 -0.34510284218E+02 -0.32399958960E+03  0.33325677779E+03  0.00000000000E+00 0. -1.
         -1    1    3    3    0  502  0.15569589008E+02 -0.97736879594E+02 -0.55806030541E+03  0.56676821912E+03  0.00000000000E+00 0.  1.
         11    1    5    5    0    0 -0.96449603953E+02  0.13210833153E+03  0.46774243154E+02  0.17012632713E+03  0.00000000000E+00 0. -1.
        -11    1    5    5    0    0 -0.79076386280E+02  0.30487969107E+03  0.15090216928E+03  0.34925086340E+03  0.00000000000E+00 0.  1.
          4    1    6    6  503    0  0.10998732684E+03 -0.22667609503E+03  0.48291511821E+03  0.54468915495E+03  0.00000000000E+00 0. -1.
         -4    1    6    6    0  503 -0.19983667963E+02 -0.78064763757E+02  0.14647799717E+03  0.16718031577E+03  0.00000000000E+00 0.  1.
<mgrwt>
<rscale>  0 0.21305621E+04</rscale>
<asrwt>0</asrwt>
<pdfrwt beam="1">  1        2 0.16817400E+00 0.21305621E+04</pdfrwt>
<pdfrwt beam="2">  1       -1 0.15971394E+00 0.21305621E+04</pdfrwt>
<totfact> 0.67736718E+00</totfact>
</mgrwt>
</event>
<event>
12    6  0.1586493E-007  0.1247919E+04  0.7818608E-02  0.9071917E-01
          2   -1    0    0  501    0  0.00000000000E+00  0.00000000000E+00  0.23620262045E+04  0.23620262045E+04  0.00000000000E+00 0. -1.
         -1   -1    0    0    0  501 -0.00000000000E+00 -0.00000000000E+00 -0.16482690542E+03  0.16482690542E+03  0.00000000000E+00 0.  1.
         24    2    1    2    0    0  0.23196419032E+03  0.51094820019E+02  0.60617251462E+03  0.65591023783E+03  0.79718607510E+02 0.  0.
        254    2    1    2    0    0 -0.23196419032E+03 -0.51094820019E+02  0.15910267844E+04  0.18709428721E+04  0.95532347168E+03 0.  0.
         23    2    4    4    0    0 -0.34435495655E+03 -0.78357063059E+02  0.10819038982E+03  0.38076893172E+03  0.92518395346E+02 0.  0.
         23    2    4    4    0    0  0.11239076623E+03  0.27262243040E+02  0.14828363946E+04  0.14901739403E+04  0.91867758770E+02 0.  0.
          2    1    3    3  502    0  0.21367668065E+03  0.25176917175E+02  0.55983523433E+03  0.59975585917E+03  0.00000000000E+00 0. -1.
         -1    1    3    3    0  502  0.18287509672E+02  0.25917902844E+02  0.46337280291E+02  0.56154378659E+02  0.00000000000E+00 0.  1.
         11    1    5    5    0    0 -0.17336430630E+03 -0.24272422322E+02  0.77697797482E+01  0.17522757392E+03  0.00000000000E+00 0.  1.
        -11    1    5    5    0    0 -0.17099065025E+03 -0.54084640737E+02  0.10042061007E+03  0.20554135779E+03  0.00000000000E+00 0. -1.
          2    1    6    6  503    0  0.48906391889E+02 -0.32494787765E+02  0.71390750430E+03  0.71631813540E+03  0.00000000000E+00 0. -1.
         -2    1    6    6    0  503  0.63484374344E+02  0.59757030804E+02  0.76892889029E+03  0.77385580494E+03  0.00000000000E+00 0.  1.
<mgrwt>
<rscale>  0 0.12479190E+04</rscale>
<asrwt>0</asrwt>
<pdfrwt beam="1">  1        2 0.36338862E+00 0.12479190E+04</pdfrwt>
<pdfrwt beam="2">  1       -1 0.25357987E-01 0.12479190E+04</pdfrwt>
<totfact> 0.64263447E+01</totfact>
</mgrwt>
</event>
<event>
12    6  0.1586493E-007  0.1382802E+04  0.7818608E-02  0.8966362E-01
          2   -1    0    0  501    0  0.00000000000E+00  0.00000000000E+00  0.58910552858E+03  0.58910552858E+03  0.00000000000E+00 0. -1.
         -1   -1    0    0    0  501 -0.00000000000E+00 -0.00000000000E+00 -0.81145926460E+03  0.81145926460E+03  0.00000000000E+00 0.  1.
         24    2    1    2    0    0 -0.33025831662E+03 -0.45570596195E+02  0.14099789784E+03  0.37569071660E+03  0.10057769340E+03 0.  0.
        254    2    1    2    0    0  0.33025831662E+03  0.45570596195E+02 -0.36335163386E+03  0.10248740766E+04  0.89844044216E+03 0.  0.
         23    2    4    4    0    0  0.69592488354E+02 -0.40543052907E+01  0.29116642048E+03  0.31280679500E+03  0.90612663350E+02 0.  0.
         23    2    4    4    0    0  0.26066582826E+03  0.49624901486E+02 -0.65451805434E+03  0.71206728158E+03  0.90755854763E+02 0.  0.
          2    1    3    3  502    0 -0.21989433253E+03 -0.62808279554E+02  0.56322558093E+02  0.23552203296E+03  0.00000000000E+00 0. -1.
         -1    1    3    3    0  502 -0.11036398408E+03  0.17237683359E+02  0.84675339747E+02  0.14016868363E+03  0.00000000000E+00 0.  1.
         11    1    5    5    0    0  0.80606743775E+02  0.51383896108E+01  0.14533337913E+03  0.16626978463E+03  0.00000000000E+00 0.  1.
        -11    1    5    5    0    0 -0.11014255420E+02 -0.91926949014E+01  0.14583304135E+03  0.14653701038E+03  0.00000000000E+00 0. -1.
          3    1    6    6  503    0  0.11365793235E+03  0.16862475692E+01 -0.17901825112E+03  0.21205778281E+03  0.00000000000E+00 0. -1.
         -3    1    6    6    0  503  0.14700789591E+03  0.47938653916E+02 -0.47549980322E+03  0.50000949877E+03  0.00000000000E+00 0.  1.
<mgrwt>
<rscale>  0 0.13828017E+04</rscale>
<asrwt>0</asrwt>
<pdfrwt beam="1">  1        2 0.90631621E-01 0.13828017E+04</pdfrwt>
<pdfrwt beam="2">  1       -1 0.12483989E+00 0.13828017E+04</pdfrwt>
<totfact> 0.31715835E+01</totfact>
</mgrwt>
</event>
<event>
12    6  0.1586493E-007  0.1131297E+04  0.7818608E-02  0.9175214E-01
         -3   -1    0    0    0  501 -0.00000000000E+00  0.00000000000E+00  0.12617871917E+04  0.12617871917E+04  0.00000000000E+00 0.  1.
          4   -1    0    0  501    0  0.00000000000E+00 -0.00000000000E+00 -0.25357522736E+03  0.25357522736E+03  0.00000000000E+00 0. -1.
         24    2    1    2    0    0  0.28996404600E+02 -0.10955817628E+03 -0.33699587858E+02  0.14190714905E+03  0.78474143887E+02 0.  0.
        254    2    1    2    0    0 -0.28996404600E+02  0.10955817628E+03  0.10419115522E+04  0.13734552700E+04  0.88766880686E+03 0.  0.
         23    2    4    4    0    0  0.35927514092E+03 -0.16730148689E+03  0.52871828999E+03  0.66698299945E+03  0.90856353571E+02 0.  0.
         23    2    4    4    0    0 -0.38827154552E+03  0.27685966317E+03  0.51319326223E+03  0.70647227059E+03  0.91267072691E+02 0.  0.
          2    1    3    3  502    0  0.42319994068E+01 -0.11179821467E+03 -0.34351090200E+02  0.11703310652E+03  0.00000000000E+00 0. -1.
         -1    1    3    3    0  502  0.24764405193E+02  0.22400383887E+01  0.65150234227E+00  0.24874042531E+02  0.00000000000E+00 0.  1.
         11    1    5    5    0    0  0.38996942811E+02  0.14093846914E+01  0.90703656919E+02  0.98741588463E+02  0.00000000000E+00 0.  1.
        -11    1    5    5    0    0  0.32027819811E+03 -0.16871087158E+03  0.43801463308E+03  0.56824141099E+03  0.00000000000E+00 0. -1.
          1    1    6    6  503    0 -0.31499679344E+03  0.23952770458E+03  0.46712585773E+03  0.61221162035E+03  0.00000000000E+00 0. -1.
         -1    1    6    6    0  503 -0.73274752083E+02  0.37331958596E+02  0.46067404505E+02  0.94260650239E+02  0.00000000000E+00 0.  1.
<mgrwt>
<rscale>  0 0.11312966E+04</rscale>
<asrwt>0</asrwt>
<pdfrwt beam="1">  1        4 0.39011574E-01 0.11312966E+04</pdfrwt>
<pdfrwt beam="2">  1       -3 0.19412110E+00 0.11312966E+04</pdfrwt>
<totfact> 0.23244410E+00</totfact>
</mgrwt>
</event>
<event>
12    6  0.1586493E-007  0.1799192E+04  0.7818608E-02  0.8706729E-01
         -1   -1    0    0    0  501 -0.00000000000E+00  0.00000000000E+00  0.44684866794E+03  0.44684866794E+03  0.00000000000E+00 0.  1.
          2   -1    0    0  501    0  0.00000000000E+00 -0.00000000000E+00 -0.18110676056E+04  0.18110676056E+04  0.00000000000E+00 0. -1.
         24    2    1    2    0    0  0.10401858910E+02  0.10128294235E+03  0.32024731001E+03  0.34519235306E+03  0.78949274629E+02 0.  0.
        254    2    1    2    0    0 -0.10401858910E+02 -0.10128294235E+03 -0.16844662476E+04  0.19127239204E+04  0.90039981304E+03 0.  0.
         23    2    4    4    0    0 -0.26047446430E+03 -0.22810914896E+03 -0.15466473328E+04  0.15875384517E+04  0.90992490543E+02 0.  0.
         23    2    4    4    0    0  0.25007260539E+03  0.12682620661E+03 -0.13781891487E+03  0.32518546872E+03  0.90168404254E+02 0.  0.
          2    1    3    3  502    0 -0.92065226003E+01 -0.11013121571E+02  0.27232324127E+02  0.30783898104E+02  0.00000000000E+00 0. -1.
         -1    1    3    3    0  502  0.19608381510E+02  0.11229606392E+03  0.29301498588E+03  0.31440845496E+03  0.00000000000E+00 0.  1.
         11    1    5    5    0    0 -0.23850348563E+03 -0.22245901739E+03 -0.15067316372E+04  0.15416264637E+04  0.00000000000E+00 0.  1.
        -11    1    5    5    0    0 -0.21970978669E+02 -0.56501315698E+01 -0.39915695603E+02  0.45911988041E+02  0.00000000000E+00 0. -1.
          1    1    6    6  503    0 -0.24919681018E+01  0.56706979632E+01 -0.20629770602E+02  0.21539595064E+02  0.00000000000E+00 0. -1.
         -1    1    6    6    0  503  0.25256457349E+03  0.12115550865E+03 -0.11718914427E+03  0.30364587366E+03  0.00000000000E+00 0.  1.
<mgrwt>
<rscale>  0 0.17991922E+04</rscale>
<asrwt>0</asrwt>
<pdfrwt beam="1">  1        2 0.27862579E+00 0.17991922E+04</pdfrwt>
<pdfrwt beam="2">  1       -1 0.68745949E-01 0.17991922E+04</pdfrwt>
<totfact> 0.19588022E+01</totfact>
</mgrwt>
</event>
<event>
12    6  0.1586493E-007  0.1303018E+04  0.7818608E-02  0.9027175E-01
         -1   -1    0    0    0  501 -0.00000000000E+00  0.00000000000E+00  0.46440986722E+03  0.46440986722E+03  0.00000000000E+00 0.  1.
          2   -1    0    0  501    0  0.00000000000E+00 -0.00000000000E+00 -0.91398578080E+03  0.91398578080E+03  0.00000000000E+00 0. -1.
         24    2    1    2    0    0  0.28525835037E+03  0.12395987360E+03  0.48079540754E+02  0.32596163169E+03  0.84858507938E+02 0.  0.
        254    2    1    2    0    0 -0.28525835037E+03 -0.12395987360E+03 -0.49765545434E+03  0.10524340163E+04  0.87362350631E+03 0.  0.
         23    2    4    4    0    0 -0.24283910364E+03 -0.24717110928E+03  0.14689314328E+03  0.38719601111E+03  0.90987735230E+02 0.  0.
         23    2    4    4    0    0 -0.42419246738E+02  0.12321123568E+03 -0.64454859761E+03  0.66523800522E+03  0.10058979972E+03 0.  0.
          4    1    3    3  502    0  0.30727206489E+02  0.27339670916E+01 -0.18914847411E+02  0.36185732647E+02  0.00000000000E+00 0. -1.
         -3    1    3    3    0  502  0.25453114389E+03  0.12122590651E+03  0.66994388165E+02  0.28977589904E+03  0.00000000000E+00 0.  1.
         11    1    5    5    0    0 -0.10041556628E+03 -0.16193161265E+03  0.97406392738E+02  0.21399331409E+03  0.00000000000E+00 0. -1.
        -11    1    5    5    0    0 -0.14242353735E+03 -0.85239496629E+02  0.49486750538E+02  0.17320269703E+03  0.00000000000E+00 0.  1.
          1    1    6    6  503    0 -0.39575989154E+02  0.63695750719E+02 -0.15620200054E+03  0.17326994128E+03  0.00000000000E+00 0. -1.
         -1    1    6    6    0  503 -0.28432575839E+01  0.59515484959E+02 -0.48834659707E+03  0.49196806394E+03  0.00000000000E+00 0.  1.
<mgrwt>
<rscale>  0 0.13030181E+04</rscale>
<asrwt>0</asrwt>
<pdfrwt beam="1">  1        2 0.14061320E+00 0.13030181E+04</pdfrwt>
<pdfrwt beam="2">  1       -1 0.71447672E-01 0.13030181E+04</pdfrwt>
<totfact> 0.63478844E+01</totfact>
</mgrwt>
</event>
<event>
12    6  0.1586493E-007  0.3285917E+04  0.7818608E-02  0.8166488E-01
          2   -1    0    0  501    0  0.00000000000E+00  0.00000000000E+00  0.11320245945E+04  0.11320245945E+04  0.00000000000E+00 0. -1.
         -1   -1    0    0    0  501 -0.00000000000E+00 -0.00000000000E+00 -0.23845001784E+04  0.23845001784E+04  0.00000000000E+00 0.  1.
         24    2    1    2    0    0  0.31171989948E+03 -0.90766878885E+03 -0.18376850515E+04  0.20748971093E+04  0.84141188556E+02 0.  0.
        254    2    1    2    0    0 -0.31171989948E+03  0.90766878885E+03  0.58520946761E+03  0.14416276636E+04  0.90265623220E+03 0.  0.
         23    2    4    4    0    0 -0.16306482024E+03  0.10308351284E+04  0.31023354295E+03  0.10929575612E+04  0.95394872612E+02 0.  0.
         23    2    4    4    0    0 -0.14865507924E+03 -0.12316633959E+03  0.27497592465E+03  0.34867010244E+03  0.93224467854E+02 0.  0.
          4    1    3    3  502    0  0.10022177904E+03 -0.26446565505E+03 -0.46374226171E+03  0.54317895117E+03  0.00000000000E+00 0. -1.
         -3    1    3    3    0  502  0.21149812044E+03 -0.64320313380E+03 -0.13739427898E+04  0.15317181581E+04  0.00000000000E+00 0.  1.
         11    1    5    5    0    0  0.83447050874E+01  0.12616131549E+03  0.23733047258E+02  0.12864512879E+03  0.00000000000E+00 0.  1.
        -11    1    5    5    0    0 -0.17140952533E+03  0.90467381294E+03  0.28650049570E+03  0.96431243238E+03  0.00000000000E+00 0. -1.
          3    1    6    6  503    0 -0.99165547843E+02 -0.51209582813E+02  0.21648123846E+03  0.24355770129E+03  0.00000000000E+00 0. -1.
         -3    1    6    6    0  503 -0.49489531397E+02 -0.71956756776E+02  0.58494686191E+02  0.10511240115E+03  0.00000000000E+00 0.  1.
<mgrwt>
<rscale>  0 0.32859171E+04</rscale>
<asrwt>0</asrwt>
<pdfrwt beam="1">  1        2 0.17415763E+00 0.32859171E+04</pdfrwt>
<pdfrwt beam="2">  1       -1 0.36684618E+00 0.32859171E+04</pdfrwt>
<totfact> 0.23781523E-01</totfact>
</mgrwt>
</event>
<event>
12    6  0.1586493E-007  0.2644548E+04  0.7818608E-02  0.8353225E-01
         -1   -1    0    0    0  501 -0.00000000000E+00  0.00000000000E+00  0.83279009521E+03  0.83279009521E+03  0.00000000000E+00 0.  1.
          2   -1    0    0  501    0  0.00000000000E+00 -0.00000000000E+00 -0.20994587616E+04  0.20994587616E+04  0.00000000000E+00 0. -1.
         24    2    1    2    0    0 -0.41706575133E+03  0.80593326246E+03  0.25545470959E+03  0.94604864160E+03  0.79237990539E+02 0.  0.
        254    2    1    2    0    0  0.41706575133E+03 -0.80593326246E+03 -0.15221233759E+04  0.19862002152E+04  0.89702812593E+03 0.  0.
         23    2    4    4    0    0 -0.15927690332E+03 -0.31871815963E+03 -0.99395681911E+03  0.10598759877E+04  0.91850714945E+02 0.  0.
         23    2    4    4    0    0  0.57634265466E+03 -0.48721510282E+03 -0.52816655682E+03  0.92632422747E+03  0.97812323638E+02 0.  0.
          2    1    3    3  502    0 -0.31295574717E+02  0.63190595734E+02 -0.15343948528E+01  0.70532395065E+02  0.00000000000E+00 0. -1.
         -1    1    3    3    0  502 -0.38577017662E+03  0.74274266672E+03  0.25698910445E+03  0.87551624653E+03  0.00000000000E+00 0.  1.
         11    1    5    5    0    0 -0.48375758678E+02 -0.65504046832E+02 -0.13632406531E+03  0.15879308852E+03  0.00000000000E+00 0.  1.
        -11    1    5    5    0    0 -0.11090114464E+03 -0.25321411280E+03 -0.85763275380E+03  0.90108289918E+03  0.00000000000E+00 0. -1.
          2    1    6    6  503    0  0.27984026757E+03 -0.28392585388E+03 -0.23766804163E+03  0.46412343602E+03  0.00000000000E+00 0. -1.
         -2    1    6    6    0  503  0.29650238708E+03 -0.20328924895E+03 -0.29049851519E+03  0.46220079144E+03  0.00000000000E+00 0.  1.
<mgrwt>
<rscale>  0 0.26445479E+04</rscale>
<asrwt>0</asrwt>
<pdfrwt beam="1">  1        2 0.32299366E+00 0.26445479E+04</pdfrwt>
<pdfrwt beam="2">  1       -1 0.12812155E+00 0.26445479E+04</pdfrwt>
<totfact> 0.31011525E+00</totfact>
</mgrwt>
</event>
<event>
12    6  0.1586493E-007  0.1340415E+04  0.7818608E-02  0.8998116E-01
          2   -1    0    0  501    0  0.00000000000E+00  0.00000000000E+00  0.13901572228E+04  0.13901572228E+04  0.00000000000E+00 0. -1.
         -1   -1    0    0    0  501 -0.00000000000E+00 -0.00000000000E+00 -0.32311299226E+03  0.32311299226E+03  0.00000000000E+00 0.  1.
         24    2    1    2    0    0  0.93486729957E+02 -0.23360546534E+03  0.59518087051E+03  0.65109229785E+03  0.79809959207E+02 0.  0.
        254    2    1    2    0    0 -0.93486729957E+02  0.23360546534E+03  0.47186336006E+03  0.10621779172E+04  0.91774485298E+03 0.  0.
         23    2    4    4    0    0  0.29900415382E+03  0.23283557153E+03  0.52890360914E+03  0.65646894911E+03  0.87158281365E+02 0.  0.
         23    2    4    4    0    0 -0.39249088378E+03  0.76989380167E+00 -0.57040249082E+02  0.40570896812E+03  0.85419495506E+02 0.  0.
          2    1    3    3  502    0  0.75817224380E+02 -0.19368914380E+03  0.39730271010E+03  0.44845644091E+03  0.00000000000E+00 0. -1.
         -1    1    3    3    0  502  0.17669505577E+02 -0.39916321532E+02  0.19787816041E+03  0.20263585694E+03  0.00000000000E+00 0.  1.
         11    1    5    5    0    0  0.12738804267E+03  0.47055150387E+02  0.17632992893E+03  0.22256267529E+03  0.00000000000E+00 0.  1.
        -11    1    5    5    0    0  0.17161611115E+03  0.18578042115E+03  0.35257368020E+03  0.43390627382E+03  0.00000000000E+00 0. -1.
          2    1    6    6  503    0 -0.44570360737E+02 -0.12862416228E+02  0.17591814283E+02  0.49612808197E+02  0.00000000000E+00 0. -1.
         -2    1    6    6    0  503 -0.34792052304E+03  0.13632310029E+02 -0.74632063365E+02  0.35609615992E+03  0.00000000000E+00 0.  1.
<mgrwt>
<rscale>  0 0.13404147E+04</rscale>
<asrwt>0</asrwt>
<pdfrwt beam="1">  1        2 0.21387034E+00 0.13404147E+04</pdfrwt>
<pdfrwt beam="2">  1       -1 0.49709692E-01 0.13404147E+04</pdfrwt>
<totfact> 0.66266880E+01</totfact>
</mgrwt>
</event>
<event>
12    6  0.1827789E-007  0.2365133E+04  0.7818608E-02  0.8452674E-01
          2   -1    0    0  501    0  0.00000000000E+00  0.00000000000E+00  0.18087976564E+04  0.18087976564E+04  0.00000000000E+00 0. -1.
         -1   -1    0    0    0  501 -0.00000000000E+00 -0.00000000000E+00 -0.77314520451E+03  0.77314520451E+03  0.00000000000E+00 0.  1.
         24    2    1    2    0    0  0.21581377615E+03 -0.45621144359E+03 -0.51165334323E+03  0.72318976104E+03  0.80683453086E+02 0.  0.
        254    2    1    2    0    0 -0.21581377615E+03  0.45621144359E+03  0.15473057951E+04  0.18587530999E+04  0.89783260990E+03 0.  0.
         23    2    4    4    0    0 -0.34928453356E+03  0.50571733292E+03  0.15690671436E+04  0.16876633039E+04  0.92119596224E+02 0.  0.
         23    2    4    4    0    0  0.13347075741E+03 -0.49505889325E+02 -0.21761348453E+02  0.17108979599E+03  0.92373620923E+02 0.  0.
          2    1    3    3  502    0 -0.20275885527E+01  0.16251096876E+01 -0.84836091548E+01  0.88726389043E+01  0.00000000000E+00 0. -1.
         -1    1    3    3    0  502  0.21784136470E+03 -0.45783655328E+03 -0.50316973408E+03  0.71431712214E+03  0.00000000000E+00 0.  1.
         11    1    5    5    0    0 -0.91062001181E+02  0.77323621263E+02  0.25435427266E+03  0.28101125687E+03  0.00000000000E+00 0. -1.
        -11    1    5    5    0    0 -0.25822253237E+03  0.42839371165E+03  0.13147128709E+04  0.14066520470E+04  0.00000000000E+00 0.  1.
          4    1    6    6  503    0  0.69899226364E+02 -0.66919131904E+02 -0.36719240333E+02  0.10350060228E+03  0.00000000000E+00 0.  1.
         -4    1    6    6    0  503  0.63571531047E+02  0.17413242579E+02  0.14957891880E+02  0.67589193709E+02  0.00000000000E+00 0. -1.
<mgrwt>
<rscale>  0 0.23651328E+04</rscale>
<asrwt>0</asrwt>
<pdfrwt beam="1">  1        2 0.27827656E+00 0.23651328E+04</pdfrwt>
<pdfrwt beam="2">  1       -1 0.11894542E+00 0.23651328E+04</pdfrwt>
<totfact> 0.55411458E+00</totfact>
</mgrwt>
</event>
<event>
12    6  0.1586493E-007  0.1485636E+04  0.7818608E-02  0.8894061E-01
         -1   -1    0    0    0  501 -0.00000000000E+00  0.00000000000E+00  0.35288387674E+03  0.35288387674E+03  0.00000000000E+00 0.  1.
          2   -1    0    0  501    0  0.00000000000E+00 -0.00000000000E+00 -0.15636265055E+04  0.15636265055E+04  0.00000000000E+00 0. -1.
         24    2    1    2    0    0 -0.12929827555E+03 -0.16460896558E+03  0.14802510059E+03  0.26955700747E+03  0.83279014521E+02 0.  0.
        254    2    1    2    0    0  0.12929827555E+03  0.16460896558E+03 -0.13587677294E+04  0.16469533748E+04  0.90685804884E+03 0.  0.
         23    2    4    4    0    0  0.31377288351E+03  0.26964625336E+03 -0.13510185130E+04  0.14159658092E+04  0.92442555100E+02 0.  0.
         23    2    4    4    0    0 -0.18447460796E+03 -0.10503728778E+03 -0.77492163752E+01  0.23098756559E+03  0.90727571856E+02 0.  0.
          2    1    3    3  502    0 -0.56219763670E+02 -0.45602555321E+02  0.97738563859E+01  0.73046445140E+02  0.00000000000E+00 0. -1.
         -1    1    3    3    0  502 -0.73078511880E+02 -0.11900641026E+03  0.13825124421E+03  0.19651056233E+03  0.00000000000E+00 0.  1.
         11    1    5    5    0    0  0.31129942333E+03  0.24484352239E+03 -0.12225265578E+04  0.12850785447E+04  0.00000000000E+00 0. -1.
        -11    1    5    5    0    0  0.24734601817E+01  0.24802730972E+02 -0.12849195522E+03  0.13088726456E+03  0.00000000000E+00 0.  1.
          3    1    6    6  503    0 -0.14095130685E+03 -0.85087186832E+02 -0.44592984637E+02  0.17057442524E+03  0.00000000000E+00 0. -1.
         -3    1    6    6    0  503 -0.43523301107E+02 -0.19950100953E+02  0.36843768261E+02  0.60413140350E+02  0.00000000000E+00 0.  1.
<mgrwt>
<rscale>  0 0.14856360E+04</rscale>
<asrwt>0</asrwt>
<pdfrwt beam="1">  1        2 0.24055792E+00 0.14856360E+04</pdfrwt>
<pdfrwt beam="2">  1       -1 0.54289828E-01 0.14856360E+04</pdfrwt>
<totfact> 0.44132888E+01</totfact>
</mgrwt>
</event>
<event>
12    6  0.1586493E-007  0.2325250E+04  0.7818608E-02  0.8468031E-01
         -3   -1    0    0    0  501 -0.00000000000E+00  0.00000000000E+00  0.59574815742E+03  0.59574815742E+03  0.00000000000E+00 0.  1.
          2   -1    0    0  501    0  0.00000000000E+00 -0.00000000000E+00 -0.22689066078E+04  0.22689066078E+04  0.00000000000E+00 0. -1.
         24    2    1    2    0    0 -0.72981200044E+03 -0.64110742080E+03 -0.59651435970E+03  0.11427284127E+04  0.79715511594E+02 0.  0.
        254    2    1    2    0    0  0.72981200044E+03  0.64110742080E+03 -0.10766440907E+04  0.17219263526E+04  0.92855995211E+03 0.  0.
         23    2    4    4    0    0  0.36623756504E+03  0.14431802145E+03 -0.10198177975E+04  0.10969800761E+04  0.91538526901E+02 0.  0.
         23    2    4    4    0    0  0.36357443540E+03  0.49678939935E+03 -0.56826293182E+02  0.62494627646E+03  0.91337525036E+02 0.  0.
          4    1    3    3  502    0 -0.18176892255E+03 -0.17987797086E+03 -0.12057067583E+03  0.28272480166E+03  0.00000000000E+00 0. -1.
         -3    1    3    3    0  502 -0.54804307789E+03 -0.46122944993E+03 -0.47594368387E+03  0.86000361100E+03  0.00000000000E+00 0.  1.
         11    1    5    5    0    0  0.20679154627E+03  0.11633539684E+03 -0.51936579210E+03  0.57099693009E+03  0.00000000000E+00 0.  1.
        -11    1    5    5    0    0  0.15944601877E+03  0.27982624603E+02 -0.50045200540E+03  0.52598314602E+03  0.00000000000E+00 0. -1.
          3    1    6    6  503    0  0.26898109470E+03  0.36956227601E+03 -0.82115391166E+02  0.46440288826E+03  0.00000000000E+00 0. -1.
         -3    1    6    6    0  503  0.94593340701E+02  0.12722712334E+03  0.25289097984E+02  0.16054338820E+03  0.00000000000E+00 0.  1.
<mgrwt>
<rscale>  0 0.23252500E+04</rscale>
<asrwt>0</asrwt>
<pdfrwt beam="1">  1        2 0.34906255E+00 0.23252500E+04</pdfrwt>
<pdfrwt beam="2">  1       -3 0.91653563E-01 0.23252500E+04</pdfrwt>
<totfact> 0.29189821E+00</totfact>
</mgrwt>
</event>
<event>
12    6  0.1586493E-007  0.1292691E+04  0.7818608E-02  0.9035382E-01
         -1   -1    0    0    0  501 -0.00000000000E+00  0.00000000000E+00  0.25057365564E+03  0.25057365564E+03  0.00000000000E+00 0.  1.
          2   -1    0    0  501    0  0.00000000000E+00 -0.00000000000E+00 -0.16672237124E+04  0.16672237124E+04  0.00000000000E+00 0. -1.
         24    2    1    2    0    0  0.23157386738E+03  0.15319887409E+03 -0.96059992241E+02  0.30443692670E+03  0.79736874494E+02 0.  0.
        254    2    1    2    0    0 -0.23157386738E+03 -0.15319887409E+03 -0.13205900645E+04  0.16133604413E+04  0.88423834121E+03 0.  0.
         23    2    4    4    0    0 -0.53865217676E+03  0.40834546103E+02 -0.86553970361E+03  0.10244195430E+04  0.91993445107E+02 0.  0.
         23    2    4    4    0    0  0.30707830938E+03 -0.19403342019E+03 -0.45505036089E+03  0.58894089828E+03  0.88512679782E+02 0.  0.
          2    1    3    3  502    0 -0.31570891735E+01  0.17090890029E+02 -0.33637530379E+01  0.17702558248E+02  0.00000000000E+00 0. -1.
         -1    1    3    3    0  502  0.23473095656E+03  0.13610798406E+03 -0.92696239203E+02  0.28673436845E+03  0.00000000000E+00 0.  1.
         11    1    5    5    0    0 -0.58393379265E+02 -0.63403856840E+01 -0.51620643516E+02  0.78196407012E+02  0.00000000000E+00 0.  1.
        -11    1    5    5    0    0 -0.48025879749E+03  0.47174931787E+02 -0.81391906010E+03  0.94622313602E+03  0.00000000000E+00 0. -1.
          2    1    6    6  503    0  0.95414606028E+02 -0.17357087374E+02 -0.98552031077E+02  0.13826683751E+03  0.00000000000E+00 0. -1.
         -2    1    6    6    0  503  0.21166370335E+03 -0.17667633282E+03 -0.35649832981E+03  0.45067406077E+03  0.00000000000E+00 0.  1.
<mgrwt>
<rscale>  0 0.12926907E+04</rscale>
<asrwt>0</asrwt>
<pdfrwt beam="1">  1        2 0.25649596E+00 0.12926907E+04</pdfrwt>
<pdfrwt beam="2">  1       -1 0.38549792E-01 0.12926907E+04</pdfrwt>
<totfact> 0.74451254E+01</totfact>
</mgrwt>
</event>
<event>
12    6  0.1586493E-007  0.1409070E+04  0.7818608E-02  0.8947279E-01
          2   -1    0    0  501    0  0.00000000000E+00  0.00000000000E+00  0.60421404181E+03  0.60421404181E+03  0.00000000000E+00 0. -1.
         -1   -1    0    0    0  501 -0.00000000000E+00 -0.00000000000E+00 -0.82151264870E+03  0.82151264870E+03  0.00000000000E+00 0.  1.
         24    2    1    2    0    0 -0.25593615142E+03 -0.17624206840E+03 -0.33302483206E+03  0.46223830525E+03  0.78702806762E+02 0.  0.
        254    2    1    2    0    0  0.25593615142E+03  0.17624206840E+03  0.11572622516E+03  0.96348838526E+03  0.90462850335E+03 0.  0.
         23    2    4    4    0    0 -0.24115566072E+02 -0.66692027876E+01  0.46288681803E+03  0.47135909059E+03  0.85376502530E+02 0.  0.
         23    2    4    4    0    0  0.28005171749E+03  0.18291127119E+03 -0.34716059286E+03  0.49212929468E+03  0.98920512756E+02 0.  0.
          2    1    3    3  502    0 -0.17731259332E+03 -0.12341289766E+03 -0.17509875912E+03  0.27808285547E+03  0.00000000000E+00 0. -1.
         -1    1    3    3    0  502 -0.78623558094E+02 -0.52829170740E+02 -0.15792607294E+03  0.18415544978E+03  0.00000000000E+00 0.  1.
         11    1    5    5    0    0 -0.37325627856E+02  0.17867862174E+02  0.40505476016E+03  0.40716313895E+03  0.00000000000E+00 0.  1.
        -11    1    5    5    0    0  0.13210061785E+02 -0.24537064962E+02  0.57832057871E+02  0.64195951640E+02  0.00000000000E+00 0. -1.
          3    1    6    6  503    0  0.14558794855E+03  0.13110806295E+03 -0.14442260623E+03  0.24339898135E+03  0.00000000000E+00 0. -1.
         -3    1    6    6    0  503  0.13446376894E+03  0.51803208237E+02 -0.20273798663E+03  0.24873031332E+03  0.00000000000E+00 0.  1.
<mgrwt>
<rscale>  0 0.14090699E+04</rscale>
<asrwt>0</asrwt>
<pdfrwt beam="1">  1        2 0.92956007E-01 0.14090699E+04</pdfrwt>
<pdfrwt beam="2">  1       -1 0.12638656E+00 0.14090699E+04</pdfrwt>
<totfact> 0.29767411E+01</totfact>
</mgrwt>
</event>
<event>
12    6  0.1586493E-007  0.1908607E+04  0.7818608E-02  0.8650584E-01
          2   -1    0    0  501    0  0.00000000000E+00  0.00000000000E+00  0.13038318875E+04  0.13038318875E+04  0.00000000000E+00 0. -1.
         -1   -1    0    0    0  501 -0.00000000000E+00 -0.00000000000E+00 -0.69847612179E+03  0.69847612179E+03  0.00000000000E+00 0.  1.
         24    2    1    2    0    0 -0.27842231792E+03  0.59606088683E+03  0.60196923579E+03  0.89498008341E+03  0.76254973167E+02 0.  0.
        254    2    1    2    0    0  0.27842231792E+03 -0.59606088683E+03  0.33865299218E+01  0.11073279259E+04  0.89070539403E+03 0.  0.
         23    2    4    4    0    0  0.38882816440E+03 -0.70892150949E+03  0.20128382855E+03  0.83811175170E+03  0.90327629605E+02 0.  0.
         23    2    4    4    0    0 -0.11040584647E+03  0.11286062266E+03 -0.19789729862E+03  0.26921617419E+03  0.91580765221E+02 0.  0.
          4    1    3    3  502    0 -0.28236498727E+03  0.59193792433E+03  0.59206535390E+03  0.88355072044E+03  0.00000000000E+00 0. -1.
         -3    1    3    3    0  502  0.39426693458E+01  0.41229624937E+01  0.99038818993E+01  0.11429362973E+02  0.00000000000E+00 0.  1.
         11    1    5    5    0    0  0.27242046330E+02 -0.19024290746E+02  0.18542869383E+02  0.38051159398E+02  0.00000000000E+00 0.  1.
        -11    1    5    5    0    0  0.36158611807E+03 -0.68989721874E+03  0.18274095916E+03  0.80006059231E+03  0.00000000000E+00 0. -1.
          3    1    6    6  503    0 -0.10876655935E+03  0.60063846167E+02 -0.16655895917E+03  0.20779729769E+03  0.00000000000E+00 0. -1.
         -3    1    6    6    0  503 -0.16392871248E+01  0.52796776491E+02 -0.31338339459E+02  0.61418876497E+02  0.00000000000E+00 0.  1.
<mgrwt>
<rscale>  0 0.19086073E+04</rscale>
<asrwt>0</asrwt>
<pdfrwt beam="1">  1        2 0.20058952E+00 0.19086073E+04</pdfrwt>
<pdfrwt beam="2">  1       -1 0.10745787E+00 0.19086073E+04</pdfrwt>
<totfact> 0.14151454E+01</totfact>
</mgrwt>
</event>
<event>
12    6  0.1586493E-007  0.1539559E+04  0.7818608E-02  0.8858565E-01
         -1   -1    0    0    0  501 -0.00000000000E+00  0.00000000000E+00  0.49814730950E+03  0.49814730950E+03  0.00000000000E+00 0.  1.
          2   -1    0    0  501    0  0.00000000000E+00 -0.00000000000E+00 -0.11895287314E+04  0.11895287314E+04  0.00000000000E+00 0. -1.
         24    2    1    2    0    0 -0.46428913412E+03  0.11267299882E+03 -0.43175871335E+03  0.64850862555E+03  0.76734908204E+02 0.  0.
        254    2    1    2    0    0  0.46428913412E+03 -0.11267299882E+03 -0.25962270856E+03  0.10391674154E+04  0.88555370342E+03 0.  0.
         23    2    4    4    0    0  0.11320489327E+03  0.15885231425E+02  0.31529534913E+03  0.34739064523E+03  0.90561662802E+02 0.  0.
         23    2    4    4    0    0  0.35108424085E+03 -0.12855823025E+03 -0.57491805769E+03  0.69177677015E+03  0.90757720964E+02 0.  0.
          2    1    3    3  502    0 -0.43770804966E+03  0.88125717060E+02 -0.41064660341E+03  0.60661776403E+03  0.00000000000E+00 0. -1.
         -1    1    3    3    0  502 -0.26581084459E+02  0.24547281763E+02 -0.21112109942E+02  0.41890861524E+02  0.00000000000E+00 0.  1.
         11    1    5    5    0    0  0.82232930743E+02  0.35621134657E+02  0.12632253762E+03  0.15488222507E+03  0.00000000000E+00 0.  1.
        -11    1    5    5    0    0  0.30971962523E+02 -0.19735903232E+02  0.18897281151E+03  0.19250842015E+03  0.00000000000E+00 0. -1.
          3    1    6    6  503    0  0.24292924237E+03 -0.12326346868E+03 -0.45402897435E+03  0.52948164185E+03  0.00000000000E+00 0. -1.
         -3    1    6    6    0  503  0.10815499848E+03 -0.52947615673E+01 -0.12088908335E+03  0.16229512830E+03  0.00000000000E+00 0.  1.
<mgrwt>
<rscale>  0 0.15395591E+04</rscale>
<asrwt>0</asrwt>
<pdfrwt beam="1">  1        2 0.18300442E+00 0.15395591E+04</pdfrwt>
<pdfrwt beam="2">  1       -1 0.76638048E-01 0.15395591E+04</pdfrwt>
<totfact> 0.36069739E+01</totfact>
</mgrwt>
</event>
<event>
12    6  0.1586493E-007  0.3421550E+04  0.7818608E-02  0.8132637E-01
          2   -1    0    0  501    0  0.00000000000E+00  0.00000000000E+00  0.34850464839E+04  0.34850464839E+04  0.00000000000E+00 0. -1.
         -1   -1    0    0    0  501 -0.00000000000E+00 -0.00000000000E+00 -0.83980284427E+03  0.83980284427E+03  0.00000000000E+00 0.  1.
         24    2    1    2    0    0  0.15769546755E+04  0.15632512461E+03  0.10679140925E+04  0.19125327010E+04  0.78212726276E+02 0.  0.
        254    2    1    2    0    0 -0.15769546755E+04 -0.15632512461E+03  0.15773295471E+04  0.24123166271E+04  0.90558236296E+03 0.  0.
         23    2    4    4    0    0 -0.12319009446E+03 -0.23224898326E+03  0.19831028354E+02  0.27833360397E+03  0.89224076412E+02 0.  0.
         23    2    4    4    0    0 -0.14537645810E+04  0.75923858650E+02  0.15574985188E+04  0.21339830231E+04  0.94265676527E+02 0.  0.
          2    1    3    3  502    0  0.69743191497E+03  0.35536895618E+02  0.44643351634E+03  0.82884077571E+03  0.00000000000E+00 0. -1.
         -1    1    3    3    0  502  0.87952276049E+03  0.12078822899E+03  0.62148057613E+03  0.10836919253E+04  0.00000000000E+00 0.  1.
         11    1    5    5    0    0 -0.93210265141E+02 -0.15574145483E+03 -0.27392283901E+02  0.18355895919E+03  0.00000000000E+00 0. -1.
        -11    1    5    5    0    0 -0.29979829324E+02 -0.76507528431E+02  0.47223312255E+02  0.94774644780E+02  0.00000000000E+00 0.  1.
          1    1    6    6  503    0 -0.10886335965E+04  0.96918004963E+02  0.11549894053E+04  0.15901310429E+04  0.00000000000E+00 0. -1.
         -1    1    6    6    0  503 -0.36513098453E+03 -0.20994146313E+02  0.40250911346E+03  0.54385198029E+03  0.00000000000E+00 0.  1.
<mgrwt>
<rscale>  0 0.34215505E+04</rscale>
<asrwt>0</asrwt>
<pdfrwt beam="1">  1        2 0.53616099E+00 0.34215505E+04</pdfrwt>
<pdfrwt beam="2">  1       -1 0.12920044E+00 0.34215505E+04</pdfrwt>
<totfact> 0.40213416E-01</totfact>
</mgrwt>
</event>
<event>
12    6  0.1586493E-007  0.1781391E+04  0.7818608E-02  0.8716259E-01
          2   -1    0    0  501    0  0.00000000000E+00  0.00000000000E+00  0.52370655309E+03  0.52370655309E+03  0.00000000000E+00 0. -1.
         -1   -1    0    0    0  501 -0.00000000000E+00 -0.00000000000E+00 -0.15148528830E+04  0.15148528830E+04  0.00000000000E+00 0.  1.
         24    2    1    2    0    0 -0.12070922130E+03  0.26240628895E+03 -0.10510036777E+04  0.10929288257E+04  0.80354906704E+02 0.  0.
        254    2    1    2    0    0  0.12070922130E+03 -0.26240628895E+03  0.59857347703E+02  0.94563061043E+03  0.89844675564E+03 0.  0.
         23    2    4    4    0    0 -0.85045453418E+02  0.17959754876E+03 -0.27143715354E+03  0.34916163786E+03  0.93529205945E+02 0.  0.
         23    2    4    4    0    0  0.20575467471E+03 -0.44200383771E+03  0.33129450124E+03  0.59646897257E+03  0.91196545840E+02 0.  0.
          2    1    3    3  502    0 -0.11481217640E+02 -0.16250846726E+01 -0.77361663962E+02  0.78225867267E+02  0.00000000000E+00 0. -1.
         -1    1    3    3    0  502 -0.10922800366E+03  0.26403137362E+03 -0.97364201370E+03  0.10147029584E+04  0.00000000000E+00 0.  1.
         11    1    5    5    0    0  0.15327661213E+02  0.41771423177E+02 -0.30288697446E+02  0.53825590433E+02  0.00000000000E+00 0. -1.
        -11    1    5    5    0    0 -0.10037311463E+03  0.13782612558E+03 -0.24114845609E+03  0.29533604742E+03  0.00000000000E+00 0.  1.
          3    1    6    6  503    0  0.80653385255E+01 -0.67310955972E+02  0.19777159383E+02  0.70618344023E+02  0.00000000000E+00 0. -1.
         -3    1    6    6    0  503  0.19768933619E+03 -0.37469288174E+03  0.31151734186E+03  0.52585062855E+03  0.00000000000E+00 0.  1.
<mgrwt>
<rscale>  0 0.17813909E+04</rscale>
<asrwt>0</asrwt>
<pdfrwt beam="1">  1        2 0.80570239E-01 0.17813909E+04</pdfrwt>
<pdfrwt beam="2">  1       -1 0.23305429E+00 0.17813909E+04</pdfrwt>
<totfact> 0.56772219E+00</totfact>
</mgrwt>
</event>
<event>
12    6  0.1586493E-007  0.1713580E+04  0.7818608E-02  0.8753657E-01
          2   -1    0    0  501    0  0.00000000000E+00  0.00000000000E+00  0.19650394774E+04  0.19650394774E+04  0.00000000000E+00 0. -1.
         -1   -1    0    0    0  501 -0.00000000000E+00 -0.00000000000E+00 -0.37357472208E+03  0.37357472208E+03  0.00000000000E+00 0.  1.
         24    2    1    2    0    0 -0.50559950521E+02  0.19501696425E+03  0.14017779476E+04  0.14183973925E+04  0.79257955767E+02 0.  0.
        254    2    1    2    0    0  0.50559950521E+02 -0.19501696425E+03  0.18968680768E+03  0.92021680700E+03  0.87762746193E+03 0.  0.
         23    2    4    4    0    0  0.41907693416E+02 -0.40102159830E+03 -0.20836270422E+03  0.46280706423E+03  0.90558186358E+02 0.  0.
         23    2    4    4    0    0  0.86522571059E+01  0.20600463405E+03  0.39804951190E+03  0.45740974277E+03  0.90925728217E+02 0.  0.
          4    1    3    3  502    0 -0.70822267538E+02  0.16624596125E+03  0.12097855841E+04  0.12232067170E+04  0.00000000000E+00 0. -1.
         -3    1    3    3    0  502  0.20262317016E+02  0.28771002996E+02  0.19199236355E+03  0.19519067541E+03  0.00000000000E+00 0.  1.
         11    1    5    5    0    0  0.68483987221E+02 -0.23656641785E+03 -0.13400428392E+03  0.28037630904E+03  0.00000000000E+00 0. -1.
        -11    1    5    5    0    0 -0.26576293806E+02 -0.16445518045E+03 -0.74358420302E+02  0.18243075519E+03  0.00000000000E+00 0.  1.
          4    1    6    6  503    0 -0.21072594305E+02  0.18812011886E+03  0.31651340174E+03  0.36880071425E+03  0.00000000000E+00 0. -1.
         -4    1    6    6    0  503  0.29724851411E+02  0.17884515196E+02  0.81536110161E+02  0.88609028521E+02  0.00000000000E+00 0.  1.
<mgrwt>
<rscale>  0 0.17135800E+04</rscale>
<asrwt>0</asrwt>
<pdfrwt beam="1">  1        2 0.30231376E+00 0.17135800E+04</pdfrwt>
<pdfrwt beam="2">  1       -1 0.57473035E-01 0.17135800E+04</pdfrwt>
<totfact> 0.23194842E+01</totfact>
</mgrwt>
</event>
<event>
12    6  0.1586493E-007  0.1768727E+04  0.7818608E-02  0.8723109E-01
         -1   -1    0    0    0  501 -0.00000000000E+00  0.00000000000E+00  0.69196926306E+03  0.69196926306E+03  0.00000000000E+00 0.  1.
          2   -1    0    0  501    0  0.00000000000E+00 -0.00000000000E+00 -0.11302508096E+04  0.11302508096E+04  0.00000000000E+00 0. -1.
         24    2    1    2    0    0  0.25930106939E+03  0.25350582149E+03 -0.71397551143E+03  0.80472841993E+03  0.79527057098E+02 0.  0.
        254    2    1    2    0    0 -0.25930106939E+03 -0.25350582149E+03  0.27569396487E+03  0.10174916527E+04  0.90982407917E+03 0.  0.
         23    2    4    4    0    0  0.24003018428E+03  0.17529627301E+03  0.13616314425E+03  0.33836567026E+03  0.87221856539E+02 0.  0.
         23    2    4    4    0    0 -0.49933125367E+03 -0.42880209450E+03  0.13953082062E+03  0.67912598249E+03  0.92413814198E+02 0.  0.
          2    1    3    3  502    0  0.18410498906E+03  0.20126034639E+03 -0.59547487895E+03  0.65497382046E+03  0.00000000000E+00 0. -1.
         -1    1    3    3    0  502  0.75196080331E+02  0.52245475098E+02 -0.11850063248E+03  0.14975459947E+03  0.00000000000E+00 0.  1.
         11    1    5    5    0    0  0.22008176818E+03  0.17931166656E+03  0.14169407694E+03  0.31727885195E+03  0.00000000000E+00 0. -1.
        -11    1    5    5    0    0  0.19948416095E+02 -0.40153935428E+01 -0.55309326947E+01  0.21086818311E+02  0.00000000000E+00 0.  1.
          2    1    6    6  503    0 -0.26952509695E+03 -0.29115375172E+03  0.84740744162E+02  0.40570343694E+03  0.00000000000E+00 0. -1.
         -2    1    6    6    0  503 -0.22980615672E+03 -0.13764834278E+03  0.54790076458E+02  0.27342254555E+03  0.00000000000E+00 0.  1.
<mgrwt>
<rscale>  0 0.17687270E+04</rscale>
<asrwt>0</asrwt>
<pdfrwt beam="1">  1        2 0.17388474E+00 0.17687270E+04</pdfrwt>
<pdfrwt beam="2">  1       -1 0.10645681E+00 0.17687270E+04</pdfrwt>
<totfact> 0.18575180E+01</totfact>
</mgrwt>
</event>
<event>
12    6  0.1586493E-007  0.1622212E+04  0.7818608E-02  0.8807018E-01
         -1   -1    0    0    0  501 -0.00000000000E+00  0.00000000000E+00  0.33188959488E+03  0.33188959488E+03  0.00000000000E+00 0.  1.
          2   -1    0    0  501    0  0.00000000000E+00 -0.00000000000E+00 -0.19822635792E+04  0.19822635792E+04  0.00000000000E+00 0. -1.
         24    2    1    2    0    0  0.21574748788E+03  0.35671005295E+03 -0.44443682404E+02  0.42671374658E+03  0.79500567369E+02 0.  0.
        254    2    1    2    0    0 -0.21574748788E+03 -0.35671005295E+03 -0.16059303019E+04  0.18874394275E+04  0.89979243020E+03 0.  0.
         23    2    4    4    0    0 -0.27878254666E+03 -0.15470606316E+03 -0.16238518320E+04  0.16572296188E+04  0.88665453701E+02 0.  0.
         23    2    4    4    0    0  0.63035058781E+02 -0.20200398979E+03  0.17921530101E+02  0.23020980872E+03  0.88861376671E+02 0.  0.
          4    1    3    3  502    0  0.15696345296E+02  0.85088726351E+02 -0.52174078267E+00  0.86525943053E+02  0.00000000000E+00 0. -1.
         -3    1    3    3    0  502  0.20005114258E+03  0.27162132660E+03 -0.43921941621E+02  0.34018780353E+03  0.00000000000E+00 0.  1.
         11    1    5    5    0    0 -0.27345841880E+03 -0.15098468571E+03 -0.14504051770E+04  0.14836613696E+04  0.00000000000E+00 0.  1.
        -11    1    5    5    0    0 -0.53241278551E+01 -0.37213774446E+01 -0.17344665504E+03  0.17356824920E+03  0.00000000000E+00 0. -1.
          2    1    6    6  503    0  0.38039602839E+00 -0.75966668391E+02 -0.29777927739E+02  0.81595369893E+02  0.00000000000E+00 0. -1.
         -2    1    6    6    0  503  0.62654662752E+02 -0.12603732140E+03  0.47699457840E+02  0.14861443883E+03  0.00000000000E+00 0.  1.
<mgrwt>
<rscale>  0 0.16222116E+04</rscale>
<asrwt>0</asrwt>
<pdfrwt beam="1">  1        2 0.30496363E+00 0.16222116E+04</pdfrwt>
<pdfrwt beam="2">  1       -1 0.51059937E-01 0.16222116E+04</pdfrwt>
<totfact> 0.28743464E+01</totfact>
</mgrwt>
</event>
<event>
12    6  0.1586493E-007  0.1218294E+04  0.7818608E-02  0.9096993E-01
         -1   -1    0    0    0  501 -0.00000000000E+00  0.00000000000E+00  0.88942959664E+03  0.88942959664E+03  0.00000000000E+00 0.  1.
          2   -1    0    0  501    0  0.00000000000E+00 -0.00000000000E+00 -0.41718875491E+03  0.41718875491E+03  0.00000000000E+00 0. -1.
         24    2    1    2    0    0 -0.68790158751E+02 -0.25414804539E+03  0.18673132783E+03  0.33274867574E+03  0.80807038642E+02 0.  0.
        254    2    1    2    0    0  0.68790158751E+02  0.25414804539E+03  0.28550951390E+03  0.97386967582E+03  0.89307510772E+03 0.  0.
         23    2    4    4    0    0 -0.29741943113E+03  0.41396365934E+03  0.12451858723E+03  0.53257464621E+03  0.91140802864E+02 0.  0.
         23    2    4    4    0    0  0.36620958988E+03 -0.15981561395E+03  0.16099092667E+03  0.44129502961E+03  0.95774372894E+02 0.  0.
          4    1    3    3  502    0 -0.45760109331E+01  0.59497254887E+01  0.49305857865E+01  0.89805225710E+01  0.00000000000E+00 0. -1.
         -3    1    3    3    0  502 -0.64214147818E+02 -0.26009777088E+03  0.18180074204E+03  0.32376815316E+03  0.00000000000E+00 0.  1.
         11    1    5    5    0    0 -0.93999476835E+02  0.18252003606E+03  0.16136756051E+02  0.20593654388E+03  0.00000000000E+00 0.  1.
        -11    1    5    5    0    0 -0.20341995430E+03  0.23144362328E+03  0.10838183118E+03  0.32663810233E+03  0.00000000000E+00 0. -1.
          4    1    6    6  503    0  0.33395847663E+03 -0.11796145005E+03  0.11845623773E+03  0.37346358332E+03  0.00000000000E+00 0. -1.
         -4    1    6    6    0  503  0.32251113257E+02 -0.41854163905E+02  0.42534688948E+02  0.67831446294E+02  0.00000000000E+00 0.  1.
<mgrwt>
<rscale>  0 0.12182939E+04</rscale>
<asrwt>0</asrwt>
<pdfrwt beam="1">  1        2 0.64182885E-01 0.12182939E+04</pdfrwt>
<pdfrwt beam="2">  1       -1 0.13683532E+00 0.12182939E+04</pdfrwt>
<totfact> 0.38051067E+01</totfact>
</mgrwt>
</event>
<event>
12    6  0.1586493E-007  0.1869300E+04  0.7818608E-02  0.8670290E-01
          2   -1    0    0  501    0  0.00000000000E+00  0.00000000000E+00  0.14471921513E+04  0.14471921513E+04  0.00000000000E+00 0. -1.
         -1   -1    0    0    0  501 -0.00000000000E+00 -0.00000000000E+00 -0.60363131896E+03  0.60363131896E+03  0.00000000000E+00 0.  1.
         24    2    1    2    0    0  0.61910190506E+03 -0.70887912654E+02 -0.60401120361E+02  0.63114933541E+03  0.79930740224E+02 0.  0.
        254    2    1    2    0    0 -0.61910190506E+03  0.70887912654E+02  0.90396195274E+03  0.14196741349E+04  0.90000842900E+03 0.  0.
         23    2    4    4    0    0  0.16962321160E+03 -0.11470381963E+03  0.40855579381E+03  0.46566127992E+03  0.89406883476E+02 0.  0.
         23    2    4    4    0    0 -0.78872511667E+03  0.18559173228E+03  0.49540615893E+03  0.95401285497E+03  0.90452553255E+02 0.  0.
          2    1    3    3  502    0  0.74578112011E+02  0.15666170964E+02 -0.17035088543E+02  0.78086605416E+02  0.00000000000E+00 0. -1.
         -1    1    3    3    0  502  0.54452379305E+03 -0.86554083618E+02 -0.43366031818E+02  0.55306272999E+03  0.00000000000E+00 0.  1.
         11    1    5    5    0    0  0.16028049146E+03 -0.68553578909E+02  0.34524324072E+03  0.38675874183E+03  0.00000000000E+00 0.  1.
        -11    1    5    5    0    0  0.93427201481E+01 -0.46150240719E+02  0.63312553087E+02  0.78902538087E+02  0.00000000000E+00 0. -1.
          4    1    6    6  503    0 -0.14706401790E+03 -0.96524462447E+00  0.88670739314E+02  0.17173018683E+03  0.00000000000E+00 0. -1.
         -4    1    6    6    0  503 -0.64166109877E+03  0.18655697691E+03  0.40673541962E+03  0.78228266814E+03  0.00000000000E+00 0.  1.
<mgrwt>
<rscale>  0 0.18692999E+04</rscale>
<asrwt>0</asrwt>
<pdfrwt beam="1">  1        2 0.22264495E+00 0.18692999E+04</pdfrwt>
<pdfrwt beam="2">  1       -1 0.92866357E-01 0.18692999E+04</pdfrwt>
<totfact> 0.16394182E+01</totfact>
</mgrwt>
</event>
<event>
12    6  0.1586493E-007  0.1437729E+04  0.7818608E-02  0.8926952E-01
          2   -1    0    0  501    0  0.00000000000E+00  0.00000000000E+00  0.66847936683E+03  0.66847936683E+03  0.00000000000E+00 0. -1.
         -1   -1    0    0    0  501 -0.00000000000E+00 -0.00000000000E+00 -0.77304749273E+03  0.77304749273E+03  0.00000000000E+00 0.  1.
         24    2    1    2    0    0 -0.28379564892E+03  0.28799543770E+02  0.29863785451E+03  0.42063027061E+03  0.79849059741E+02 0.  0.
        254    2    1    2    0    0  0.28379564892E+03 -0.28799543770E+02 -0.40320598041E+03  0.10208965890E+04  0.89346818557E+03 0.  0.
         23    2    4    4    0    0  0.60904427324E+02 -0.20760626536E+03 -0.61191288624E+03  0.65527068718E+03  0.90180831959E+02 0.  0.
         23    2    4    4    0    0  0.22289122159E+03  0.17880672159E+03  0.20870690583E+03  0.36562590177E+03  0.92040138818E+02 0.  0.
          4    1    3    3  502    0 -0.28882957570E+03  0.31389045744E+02  0.29212328090E+03  0.41199976606E+03  0.00000000000E+00 0. -1.
         -3    1    3    3    0  502  0.50339267872E+01 -0.25895019738E+01  0.65145736126E+01  0.86305045464E+01  0.00000000000E+00 0.  1.
         11    1    5    5    0    0  0.38183203686E+02 -0.86181492482E+02 -0.39062496643E+03  0.40183712010E+03  0.00000000000E+00 0.  1.
        -11    1    5    5    0    0  0.22721223638E+02 -0.12142477288E+03 -0.22128791980E+03  0.25343356708E+03  0.00000000000E+00 0. -1.
          3    1    6    6  503    0  0.14460165221E+03  0.15031083737E+03  0.10784949701E+03  0.23480736713E+03  0.00000000000E+00 0. -1.
         -3    1    6    6    0  503  0.78289569383E+02  0.28495884223E+02  0.10085740882E+03  0.13081853464E+03  0.00000000000E+00 0.  1.
<mgrwt>
<rscale>  0 0.14377292E+04</rscale>
<asrwt>0</asrwt>
<pdfrwt beam="1">  1        2 0.10284298E+00 0.14377292E+04</pdfrwt>
<pdfrwt beam="2">  1       -1 0.11893038E+00 0.14377292E+04</pdfrwt>
<totfact> 0.30477880E+01</totfact>
</mgrwt>
</event>
<event>
12    6  0.1586493E-007  0.1453396E+04  0.7818608E-02  0.8916049E-01
          2   -1    0    0  501    0  0.00000000000E+00  0.00000000000E+00  0.11301046372E+04  0.11301046372E+04  0.00000000000E+00 0. -1.
         -1   -1    0    0    0  501 -0.00000000000E+00 -0.00000000000E+00 -0.46729307363E+03  0.46729307363E+03  0.00000000000E+00 0.  1.
         24    2    1    2    0    0  0.52494450155E+02  0.30723159716E+03  0.55532562862E+03  0.64233224077E+03  0.84007333792E+02 0.  0.
        254    2    1    2    0    0 -0.52494450155E+02 -0.30723159716E+03  0.10748593496E+03  0.95506547008E+03  0.89635367145E+03 0.  0.
         23    2    4    4    0    0 -0.16283117203E+03  0.15751794233E+03 -0.25126588892E+03  0.35071426595E+03  0.92412427015E+02 0.  0.
         23    2    4    4    0    0  0.11033672188E+03 -0.46474953949E+03  0.35875182388E+03  0.60435120413E+03  0.91494153576E+02 0.  0.
          4    1    3    3  502    0  0.68325978521E+02  0.23780699244E+03  0.38415908162E+03  0.45694507874E+03  0.00000000000E+00 0. -1.
         -3    1    3    3    0  502 -0.15831528366E+02  0.69424604723E+02  0.17116654700E+03  0.18538716203E+03  0.00000000000E+00 0.  1.
         11    1    5    5    0    0 -0.22685992565E+02  0.75889425122E+02 -0.56666359555E+02  0.97390633067E+02  0.00000000000E+00 0. -1.
        -11    1    5    5    0    0 -0.14014517947E+03  0.81628517212E+02 -0.19459952936E+03  0.25332363288E+03  0.00000000000E+00 0.  1.
          2    1    6    6  503    0 -0.77871272314E+01 -0.16397781669E+02  0.65598087084E-01  0.18152985906E+02  0.00000000000E+00 0. -1.
         -2    1    6    6    0  503  0.11812384911E+03 -0.44835175782E+03  0.35868622579E+03  0.58619821822E+03  0.00000000000E+00 0.  1.
<mgrwt>
<rscale>  0 0.14533961E+04</rscale>
<asrwt>0</asrwt>
<pdfrwt beam="1">  1        2 0.17386225E+00 0.14533961E+04</pdfrwt>
<pdfrwt beam="2">  1       -1 0.71891242E-01 0.14533961E+04</pdfrwt>
<totfact> 0.45083088E+01</totfact>
</mgrwt>
</event>
<event>
12    6  0.1586493E-007  0.1835320E+04  0.7818608E-02  0.8687739E-01
         -1   -1    0    0    0  501 -0.00000000000E+00  0.00000000000E+00  0.62377018595E+03  0.62377018595E+03  0.00000000000E+00 0.  1.
          2   -1    0    0  501    0  0.00000000000E+00 -0.00000000000E+00 -0.13500160449E+04  0.13500160449E+04  0.00000000000E+00 0. -1.
         24    2    1    2    0    0  0.36186588690E+03 -0.55655423015E+03 -0.47591927300E+03  0.82364060022E+03  0.10575988234E+03 0.  0.
        254    2    1    2    0    0 -0.36186588690E+03  0.55655423015E+03 -0.25032658593E+03  0.11501456306E+04  0.90524695017E+03 0.  0.
         23    2    4    4    0    0  0.56701594844E+02  0.29232534468E+03  0.28039382346E+03  0.41874052992E+03  0.89742727602E+02 0.  0.
         23    2    4    4    0    0 -0.41856748174E+03  0.26422888547E+03 -0.53072040939E+03  0.73140510069E+03  0.90959483775E+02 0.  0.
          2    1    3    3  502    0  0.36187932484E+03 -0.51439211530E+03 -0.43367855568E+03  0.76395875784E+03  0.00000000000E+00 0. -1.
         -3    1    3    3    0  502 -0.13437940929E-01 -0.42162114856E+02 -0.42240717328E+02  0.59681842381E+02  0.00000000000E+00 0.  1.
         11    1    5    5    0    0  0.76629637471E+02  0.22399648183E+03  0.23899783643E+03  0.33640227560E+03  0.00000000000E+00 0.  1.
        -11    1    5    5    0    0 -0.19928042628E+02  0.68328862847E+02  0.41395987037E+02  0.82338254315E+02  0.00000000000E+00 0. -1.
          4    1    6    6  503    0 -0.16618251203E+03  0.59934080269E+02 -0.21803316140E+03  0.28061928079E+03  0.00000000000E+00 0. -1.
         -4    1    6    6    0  503 -0.25238496971E+03  0.20429480520E+03 -0.31268724800E+03  0.45078581991E+03  0.00000000000E+00 0.  1.
<mgrwt>
<rscale>  0 0.18353199E+04</rscale>
<asrwt>0</asrwt>
<pdfrwt beam="1">  1        2 0.20769478E+00 0.18353199E+04</pdfrwt>
<pdfrwt beam="2">  1       -1 0.95964644E-01 0.18353199E+04</pdfrwt>
<totfact> 0.17365957E+01</totfact>
</mgrwt>
</event>
<event>
12    6  0.1586493E-007  0.2832003E+04  0.7818608E-02  0.8293401E-01
         -1   -1    0    0    0  501 -0.00000000000E+00  0.00000000000E+00  0.23124469407E+04  0.23124469407E+04  0.00000000000E+00 0.  1.
          2   -1    0    0  501    0  0.00000000000E+00 -0.00000000000E+00 -0.86707275556E+03  0.86707275556E+03  0.00000000000E+00 0. -1.
         24    2    1    2    0    0  0.81100944388E+03  0.92646836148E+03  0.29193641171E+03  0.12678514225E+04  0.78360820182E+02 0.  0.
        254    2    1    2    0    0 -0.81100944388E+03 -0.92646836148E+03  0.11534377735E+04  0.19116682738E+04  0.89887538013E+03 0.  0.
         23    2    4    4    0    0 -0.50120094086E+03 -0.79016697177E+03  0.12344741310E+04  0.15516527547E+04  0.90186832152E+02 0.  0.
         23    2    4    4    0    0 -0.30980850302E+03 -0.13630138971E+03 -0.81036357548E+02  0.36001551910E+03  0.92113546079E+02 0.  0.
          4    1    3    3  502    0  0.59460036909E+03  0.70199185782E+03  0.24926571916E+03  0.95313984604E+03  0.00000000000E+00 0. -1.
         -3    1    3    3    0  502  0.21640907478E+03  0.22447650366E+03  0.42670692556E+02  0.31471157644E+03  0.00000000000E+00 0.  1.
         11    1    5    5    0    0 -0.49591902470E+03 -0.74780426440E+03  0.11820648541E+04  0.14840566756E+04  0.00000000000E+00 0.  1.
        -11    1    5    5    0    0 -0.52819161592E+01 -0.42362707366E+02  0.52409276904E+02  0.67596079171E+02  0.00000000000E+00 0. -1.
          1    1    6    6  503    0 -0.18540000809E+03 -0.69762407335E+02 -0.15841032687E+01  0.19809711219E+03  0.00000000000E+00 0. -1.
         -1    1    6    6    0  503 -0.12440849493E+03 -0.66538982372E+02 -0.79452254279E+02  0.16191840691E+03  0.00000000000E+00 0.  1.
<mgrwt>
<rscale>  0 0.28320026E+04</rscale>
<asrwt>0</asrwt>
<pdfrwt beam="1">  1        2 0.13339581E+00 0.28320026E+04</pdfrwt>
<pdfrwt beam="2">  1       -1 0.35576107E+00 0.28320026E+04</pdfrwt>
<totfact> 0.43465087E-01</totfact>
</mgrwt>
</event>
<event>
12    6  0.1586493E-007  0.1757242E+04  0.7818608E-02  0.8729374E-01
          2   -1    0    0  501    0  0.00000000000E+00  0.00000000000E+00  0.98421408735E+03  0.98421408735E+03  0.00000000000E+00 0. -1.
         -1   -1    0    0    0  501 -0.00000000000E+00 -0.00000000000E+00 -0.78435685821E+03  0.78435685821E+03  0.00000000000E+00 0.  1.
         24    2    1    2    0    0 -0.50680757933E+03  0.38527277331E+03  0.16904651550E+03  0.66363002538E+03  0.80864416554E+02 0.  0.
        254    2    1    2    0    0  0.50680757933E+03 -0.38527277331E+03  0.30810713639E+02  0.11049409202E+04  0.90258301817E+03 0.  0.
         23    2    4    4    0    0  0.72787583422E+02  0.34140097025E+02 -0.35872803759E+03  0.38102496669E+03  0.10015309160E+03 0.  0.
         23    2    4    4    0    0  0.43401999591E+03 -0.41941287033E+03  0.38953875123E+03  0.72391595349E+03  0.89628992814E+02 0.  0.
          2    1    3    3  502    0 -0.51483978112E+02  0.64469419879E+02  0.40929356898E+02  0.92098416695E+02  0.00000000000E+00 0. -1.
         -1    1    3    3    0  502 -0.45532360122E+03  0.32080335343E+03  0.12811715861E+03  0.57153160868E+03  0.00000000000E+00 0.  1.
         11    1    5    5    0    0  0.55026645770E+02 -0.12704148941E+02 -0.29293666169E+03  0.29833071399E+03  0.00000000000E+00 0.  1.
        -11    1    5    5    0    0  0.17760937652E+02  0.46844245966E+02 -0.65791375901E+02  0.82694252698E+02  0.00000000000E+00 0. -1.
          4    1    6    6  503    0  0.26977808384E+02 -0.37120288045E+02  0.55663949038E+01  0.46224481414E+02  0.00000000000E+00 0. -1.
         -4    1    6    6    0  503  0.40704218752E+03 -0.38229258229E+03  0.38397235633E+03  0.67769147207E+03  0.00000000000E+00 0.  1.
<mgrwt>
<rscale>  0 0.17572422E+04</rscale>
<asrwt>0</asrwt>
<pdfrwt beam="1">  1        2 0.15141755E+00 0.17572422E+04</pdfrwt>
<pdfrwt beam="2">  1       -1 0.12067028E+00 0.17572422E+04</pdfrwt>
<totfact> 0.17021897E+01</totfact>
</mgrwt>
</event>
<event>
12    6  0.1586493E-007  0.1542867E+04  0.7818608E-02  0.8856437E-01
          2   -1    0    0  501    0  0.00000000000E+00  0.00000000000E+00  0.18066687827E+04  0.18066687827E+04  0.00000000000E+00 0. -1.
         -1   -1    0    0    0  501 -0.00000000000E+00 -0.00000000000E+00 -0.32939593440E+03  0.32939593440E+03  0.00000000000E+00 0.  1.
         24    2    1    2    0    0  0.40747182289E+03 -0.16829605792E+03  0.14656858711E+03  0.47079230285E+03  0.76198373583E+02 0.  0.
        254    2    1    2    0    0 -0.40747182289E+03  0.16829605792E+03  0.13307042612E+04  0.16652724142E+04  0.89888905507E+03 0.  0.
         23    2    4    4    0    0  0.21340930223E+03  0.52742114719E+02  0.63292771587E+02  0.24635168634E+03  0.91421646687E+02 0.  0.
         23    2    4    4    0    0 -0.62088112512E+03  0.11555394320E+03  0.12674114896E+04  0.14189207279E+04  0.90321995028E+02 0.  0.
          2    1    3    3  502    0  0.12761594240E+03 -0.15633493452E+02  0.44936848270E+02  0.13619675181E+03  0.00000000000E+00 0. -1.
         -1    1    3    3    0  502  0.27985588049E+03 -0.15266256447E+03  0.10163173884E+03  0.33459555104E+03  0.00000000000E+00 0.  1.
         11    1    5    5    0    0  0.36694770927E+02 -0.11420103644E+02  0.42348113180E+02  0.57186429077E+02  0.00000000000E+00 0. -1.
        -11    1    5    5    0    0  0.17671453130E+03  0.64162218362E+02  0.20944658406E+02  0.18916525726E+03  0.00000000000E+00 0.  1.
          3    1    6    6  503    0 -0.30278867977E+03  0.99795480956E+02  0.60138604661E+03  0.68066533603E+03  0.00000000000E+00 0. -1.
         -3    1    6    6    0  503 -0.31809244535E+03  0.15758462248E+02  0.66602544297E+03  0.73825539185E+03  0.00000000000E+00 0.  1.
<mgrwt>
<rscale>  0 0.15428666E+04</rscale>
<asrwt>0</asrwt>
<pdfrwt beam="1">  1        2 0.27794904E+00 0.15428666E+04</pdfrwt>
<pdfrwt beam="2">  1       -1 0.50676299E-01 0.15428666E+04</pdfrwt>
<totfact> 0.36722196E+01</totfact>
</mgrwt>
</event>
<event>
12    6  0.1586493E-007  0.1165050E+04  0.7818608E-02  0.9144011E-01
         -1   -1    0    0    0  501 -0.00000000000E+00  0.00000000000E+00  0.36270227923E+03  0.36270227923E+03  0.00000000000E+00 0.  1.
          2   -1    0    0  501    0  0.00000000000E+00 -0.00000000000E+00 -0.93557534296E+03  0.93557534296E+03  0.00000000000E+00 0. -1.
         24    2    1    2    0    0 -0.83225912611E+02  0.15293850246E+03 -0.15932346611E+03  0.24958243097E+03  0.81183033513E+02 0.  0.
        254    2    1    2    0    0  0.83225912611E+02 -0.15293850246E+03 -0.41354959761E+03  0.10486951912E+04  0.94785104121E+03 0.  0.
         23    2    4    4    0    0  0.15674094109E+03 -0.42101792256E+03 -0.55815494417E+03  0.72230411814E+03  0.91446616413E+02 0.  0.
         23    2    4    4    0    0 -0.73515028475E+02  0.26807942010E+03  0.14460534655E+03  0.32639107308E+03  0.91375004466E+02 0.  0.
          4    1    3    3  502    0 -0.90460317692E+02  0.14889679397E+03 -0.12539361257E+03  0.21465526410E+03  0.00000000000E+00 0. -1.
         -3    1    3    3    0  502  0.72344050811E+01  0.40417084937E+01 -0.33929853546E+02  0.34927166877E+02  0.00000000000E+00 0.  1.
         11    1    5    5    0    0  0.21294435825E+02 -0.18352580287E+03 -0.23802146443E+03  0.30131277909E+03  0.00000000000E+00 0. -1.
        -11    1    5    5    0    0  0.13544650526E+03 -0.23749211969E+03 -0.32013347974E+03  0.42099133905E+03  0.00000000000E+00 0.  1.
          1    1    6    6  503    0 -0.42322913656E+02  0.10104583130E+03  0.10744903878E+02  0.11007698216E+03  0.00000000000E+00 0. -1.
         -1    1    6    6    0  503 -0.31192114819E+02  0.16703358880E+03  0.13386044268E+03  0.21631409091E+03  0.00000000000E+00 0.  1.
<mgrwt>
<rscale>  0 0.11650499E+04</rscale>
<asrwt>0</asrwt>
<pdfrwt beam="1">  1        2 0.14393467E+00 0.11650499E+04</pdfrwt>
<pdfrwt beam="2">  1       -1 0.55800352E-01 0.11650499E+04</pdfrwt>
<totfact> 0.10171181E+02</totfact>
</mgrwt>
</event>
<event>
12    6  0.1586493E-007  0.1173176E+04  0.7818608E-02  0.9136665E-01
         -1   -1    0    0    0  501 -0.00000000000E+00  0.00000000000E+00  0.11981802072E+03  0.11981802072E+03  0.00000000000E+00 0.  1.
          2   -1    0    0  501    0  0.00000000000E+00 -0.00000000000E+00 -0.28717350581E+04  0.28717350581E+04  0.00000000000E+00 0. -1.
         24    2    1    2    0    0  0.12223595888E+03 -0.20248816355E+03 -0.54571333945E+03  0.59994574946E+03  0.78668719462E+02 0.  0.
        254    2    1    2    0    0 -0.12223595888E+03  0.20248816355E+03 -0.22062036979E+04  0.23916073293E+04  0.89247284275E+03 0.  0.
         23    2    4    4    0    0 -0.23582149650E+03  0.41834104788E+02 -0.10129093275E+03  0.27564336495E+03  0.91419587890E+02 0.  0.
         23    2    4    4    0    0  0.11358553763E+03  0.16065405877E+03 -0.21049127652E+04  0.21159639644E+04  0.89074960935E+02 0.  0.
          4    1    3    3  502    0  0.12481532105E+03 -0.16754828875E+03 -0.50324230355E+03  0.54488908001E+03  0.00000000000E+00 0. -1.
         -3    1    3    3    0  502 -0.25793621742E+01 -0.34939874807E+02 -0.42471035898E+02  0.55056669451E+02  0.00000000000E+00 0.  1.
         11    1    5    5    0    0 -0.22784612181E+03  0.58584983028E+02 -0.82676044175E+02  0.24936195327E+03  0.00000000000E+00 0. -1.
        -11    1    5    5    0    0 -0.79753746924E+01 -0.16750878240E+02 -0.18614888571E+02  0.26281411679E+02  0.00000000000E+00 0.  1.
          2    1    6    6  503    0  0.92633636794E+02  0.16640951448E+03 -0.19834602914E+04  0.19925832090E+04  0.00000000000E+00 0. -1.
         -2    1    6    6    0  503  0.20951900833E+02 -0.57554557169E+01 -0.12145247378E+03  0.12338075541E+03  0.00000000000E+00 0.  1.
<mgrwt>
<rscale>  0 0.11731762E+04</rscale>
<asrwt>0</asrwt>
<pdfrwt beam="1">  1        2 0.44180533E+00 0.11731762E+04</pdfrwt>
<pdfrwt beam="2">  1       -1 0.18433544E-01 0.11731762E+04</pdfrwt>
<totfact> 0.55902770E+01</totfact>
</mgrwt>
</event>
<event>
12    6  0.1586493E-007  0.1227405E+04  0.7818608E-02  0.9089201E-01
         -1   -1    0    0    0  501 -0.00000000000E+00  0.00000000000E+00  0.52656065288E+03  0.52656065288E+03  0.00000000000E+00 0.  1.
          2   -1    0    0  501    0  0.00000000000E+00 -0.00000000000E+00 -0.71526607021E+03  0.71526607021E+03  0.00000000000E+00 0. -1.
         24    2    1    2    0    0 -0.14552070668E+03  0.70327469440E+02 -0.27596825781E+03  0.32960935160E+03  0.79759741159E+02 0.  0.
        254    2    1    2    0    0  0.14552070668E+03 -0.70327469440E+02  0.87262840480E+02  0.91221737150E+03  0.89353427495E+03 0.  0.
         23    2    4    4    0    0 -0.12766072074E+03 -0.26866765050E+03 -0.26978672278E+03  0.41222363647E+03  0.93079990476E+02 0.  0.
         23    2    4    4    0    0  0.27318142742E+03  0.19834018106E+03  0.35704956326E+03  0.49999373503E+03  0.92425238609E+02 0.  0.
          2    1    3    3  502    0 -0.50445049975E+02  0.55400217826E+02 -0.17373742115E+03  0.18920512337E+03  0.00000000000E+00 0. -1.
         -1    1    3    3    0  502 -0.95075656707E+02  0.14927251615E+02 -0.10223083666E+03  0.14040422822E+03  0.00000000000E+00 0.  1.
         11    1    5    5    0    0 -0.14006004313E+03 -0.24566953906E+03 -0.22946353136E+03  0.36417557624E+03  0.00000000000E+00 0. -1.
        -11    1    5    5    0    0  0.12399322388E+02 -0.22998111441E+02 -0.40323191419E+02  0.48048060229E+02  0.00000000000E+00 0.  1.
          2    1    6    6  503    0  0.25218948146E+03  0.20789378024E+03  0.33019451712E+03  0.46459420741E+03  0.00000000000E+00 0. -1.
         -2    1    6    6    0  503  0.20991945960E+02 -0.95535991782E+01  0.26855046145E+02  0.35399527623E+02  0.00000000000E+00 0.  1.
<mgrwt>
<rscale>  0 0.12274053E+04</rscale>
<asrwt>0</asrwt>
<pdfrwt beam="1">  1        2 0.11004093E+00 0.12274053E+04</pdfrwt>
<pdfrwt beam="2">  1       -1 0.81009331E-01 0.12274053E+04</pdfrwt>
<totfact> 0.68135534E+01</totfact>
</mgrwt>
</event>
<event>
12    6  0.1586493E-007  0.1661517E+04  0.7818608E-02  0.8783622E-01
         -1   -1    0    0    0  501 -0.00000000000E+00  0.00000000000E+00  0.56288666244E+03  0.56288666244E+03  0.00000000000E+00 0.  1.
          2   -1    0    0  501    0  0.00000000000E+00 -0.00000000000E+00 -0.12261081980E+04  0.12261081980E+04  0.00000000000E+00 0. -1.
         24    2    1    2    0    0  0.22339729432E+03 -0.45401680997E+03 -0.55382466775E+03  0.75439343457E+03  0.79687368367E+02 0.  0.
        254    2    1    2    0    0 -0.22339729432E+03  0.45401680997E+03 -0.10939686783E+03  0.10346014259E+04  0.89576493619E+03 0.  0.
         23    2    4    4    0    0 -0.26792363346E+03 -0.19007786267E+03  0.88861060074E+02  0.35307289766E+03  0.94082494742E+02 0.  0.
         23    2    4    4    0    0  0.44526339141E+02  0.64409467264E+03 -0.19825792790E+03  0.68152852822E+03  0.91292861762E+02 0.  0.
          2    1    3    3  502    0  0.19504773517E+03 -0.35854085389E+03 -0.40252271084E+03  0.57325360500E+03  0.00000000000E+00 0. -1.
         -1    1    3    3    0  502  0.28349559148E+02 -0.95475956074E+02 -0.15130195692E+03  0.18113982958E+03  0.00000000000E+00 0.  1.
         11    1    5    5    0    0 -0.10619697854E+03 -0.13138640096E+03  0.55498687067E+02  0.17782094611E+03  0.00000000000E+00 0.  1.
        -11    1    5    5    0    0 -0.16172665492E+03 -0.58691461715E+02  0.33362373007E+02  0.17525195155E+03  0.00000000000E+00 0. -1.
          1    1    6    6  503    0  0.28821221352E+02  0.55848291847E+03 -0.13903354429E+03  0.57625008414E+03  0.00000000000E+00 0.  1.
         -1    1    6    6    0  503  0.15705117789E+02  0.85611754164E+02 -0.59224383608E+02  0.10527844409E+03  0.00000000000E+00 0. -1.
<mgrwt>
<rscale>  0 0.16615173E+04</rscale>
<asrwt>0</asrwt>
<pdfrwt beam="1">  1        2 0.18863203E+00 0.16615173E+04</pdfrwt>
<pdfrwt beam="2">  1       -1 0.86597950E-01 0.16615173E+04</pdfrwt>
<totfact> 0.26145893E+01</totfact>
</mgrwt>
</event>
<event>
12    6  0.1586493E-007  0.1513564E+04  0.7818608E-02  0.8875483E-01
         -1   -1    0    0    0  501 -0.00000000000E+00  0.00000000000E+00  0.21644586035E+03  0.21644586035E+03  0.00000000000E+00 0.  1.
          2   -1    0    0  501    0  0.00000000000E+00 -0.00000000000E+00 -0.26460134844E+04  0.26460134844E+04  0.00000000000E+00 0. -1.
         24    2    1    2    0    0  0.47736476625E+03  0.48450955727E+02 -0.98054864113E+03  0.10939409699E+04  0.70757280590E+02 0.  0.
        254    2    1    2    0    0 -0.47736476625E+03 -0.48450955727E+02 -0.14490189829E+04  0.17685183749E+04  0.89318341581E+03 0.  0.
         23    2    4    4    0    0  0.32480079334E+02  0.14256964633E+03 -0.11050056447E+04  0.11181823490E+04  0.88956344512E+02 0.  0.
         23    2    4    4    0    0 -0.50984484558E+03 -0.19102060206E+03 -0.34401333825E+03  0.65033602589E+03  0.90338987704E+02 0.  0.
          4    1    3    3  502    0  0.37442195397E+03  0.16560068691E+02 -0.80465844702E+03  0.88766054990E+03  0.00000000000E+00 0. -1.
         -3    1    3    3    0  502  0.10294281228E+03  0.31890887036E+02 -0.17589019411E+03  0.20628041996E+03  0.00000000000E+00 0.  1.
         11    1    5    5    0    0 -0.15879090698E+02  0.54882894559E+01 -0.41239296529E+02  0.44530286555E+02  0.00000000000E+00 0.  1.
        -11    1    5    5    0    0  0.48359170032E+02  0.13708135687E+03 -0.10637663482E+04  0.10736520625E+04  0.00000000000E+00 0. -1.
          3    1    6    6  503    0 -0.41473031000E+03 -0.11707631752E+03 -0.25743165547E+03  0.50197524978E+03  0.00000000000E+00 0. -1.
         -3    1    6    6    0  503 -0.95114535586E+02 -0.73944284531E+02 -0.86581682779E+02  0.14836077611E+03  0.00000000000E+00 0.  1.
<mgrwt>
<rscale>  0 0.15135636E+04</rscale>
<asrwt>0</asrwt>
<pdfrwt beam="1">  1        2 0.40707899E+00 0.15135636E+04</pdfrwt>
<pdfrwt beam="2">  1       -1 0.33299364E-01 0.15135636E+04</pdfrwt>
<totfact> 0.26758663E+01</totfact>
</mgrwt>
</event>
<event>
12    6  0.1586493E-007  0.2456112E+04  0.7818608E-02  0.8418790E-01
          2   -1    0    0  501    0  0.00000000000E+00  0.00000000000E+00  0.59161449849E+03  0.59161449849E+03  0.00000000000E+00 0. -1.
         -1   -1    0    0    0  501 -0.00000000000E+00 -0.00000000000E+00 -0.25491634217E+04  0.25491634217E+04  0.00000000000E+00 0.  1.
         24    2    1    2    0    0 -0.23089717654E+03  0.42699218227E+03 -0.21088932871E+04  0.21656185754E+04  0.82686683189E+02 0.  0.
        254    2    1    2    0    0  0.23089717654E+03 -0.42699218227E+03  0.15134436388E+03  0.97515934487E+03  0.83210263884E+03 0.  0.
         23    2    4    4    0    0  0.53671255272E+02  0.98600746371E+02 -0.24841069862E+03  0.28538291597E+03  0.84456040123E+02 0.  0.
         23    2    4    4    0    0  0.17722592127E+03 -0.52559292864E+03  0.39975506250E+03  0.68977642890E+03  0.91271343089E+02 0.  0.
          4    1    3    3  502    0 -0.23650013938E+02  0.12680078124E+02 -0.75643965241E+02  0.80262799714E+02  0.00000000000E+00 0. -1.
         -1    1    3    3    0  502 -0.20724716260E+03  0.41431210415E+03 -0.20332493219E+04  0.20853557756E+04  0.00000000000E+00 0.  1.
         11    1    5    5    0    0  0.35261198480E+01 -0.15208804067E+02 -0.36041304614E+02  0.39277434751E+02  0.00000000000E+00 0.  1.
        -11    1    5    5    0    0  0.50145135424E+02  0.11380955044E+03 -0.21236939400E+03  0.24610548122E+03  0.00000000000E+00 0. -1.
          3    1    6    6  503    0  0.18378759777E+03 -0.48223562913E+03  0.35056874642E+03  0.62388102156E+03  0.00000000000E+00 0. -1.
         -3    1    6    6    0  503 -0.65616765042E+01 -0.43357299510E+02  0.49186316073E+02  0.65895407338E+02  0.00000000000E+00 0.  1.
<mgrwt>
<rscale>  0 0.24561124E+04</rscale>
<asrwt>0</asrwt>
<pdfrwt beam="1">  1        2 0.91017615E-01 0.24561124E+04</pdfrwt>
<pdfrwt beam="2">  1       -1 0.39217899E+00 0.24561124E+04</pdfrwt>
<totfact> 0.41692826E-01</totfact>
</mgrwt>
</event>
<event>
12    6  0.1586493E-007  0.1382520E+04  0.7818608E-02  0.8966569E-01
         -3   -1    0    0    0  501 -0.00000000000E+00  0.00000000000E+00  0.18638136057E+03  0.18638136057E+03  0.00000000000E+00 0.  1.
          2   -1    0    0  501    0  0.00000000000E+00 -0.00000000000E+00 -0.25637793513E+04  0.25637793513E+04  0.00000000000E+00 0. -1.
         24    2    1    2    0    0 -0.76329660341E+02 -0.93533089610E+01 -0.14594206669E+04  0.14636406045E+04  0.80133854548E+02 0.  0.
        254    2    1    2    0    0  0.76329660341E+02  0.93533089610E+01 -0.91797732379E+03  0.12865201073E+04  0.89807456160E+03 0.  0.
         23    2    4    4    0    0 -0.73503578196E+02  0.63029084735E+02 -0.10510914411E+04  0.10594465423E+04  0.90875281939E+02 0.  0.
         23    2    4    4    0    0  0.14983323854E+03 -0.53675775774E+02  0.13311411732E+03  0.22707356507E+03  0.92260215948E+02 0.  0.
          2    1    3    3  502    0 -0.70868317115E+02 -0.38769472745E+02 -0.11154750183E+04  0.11183961315E+04  0.00000000000E+00 0. -1.
         -1    1    3    3    0  502 -0.54613432259E+01  0.29416163784E+02 -0.34394564862E+03  0.34524447304E+03  0.00000000000E+00 0.  1.
         11    1    5    5    0    0 -0.47954197437E+02 -0.11970065130E+02 -0.53907243574E+03  0.54133351872E+03  0.00000000000E+00 0.  1.
        -11    1    5    5    0    0 -0.25549380759E+02  0.74999149865E+02 -0.51201900536E+03  0.51811302357E+03  0.00000000000E+00 0. -1.
          3    1    6    6  503    0  0.31681564304E+02 -0.48537669757E+02  0.14873884033E+02  0.59840281821E+02  0.00000000000E+00 0. -1.
         -3    1    6    6    0  503  0.11815167423E+03 -0.51381060175E+01  0.11824023328E+03  0.16723328324E+03  0.00000000000E+00 0.  1.
<mgrwt>
<rscale>  0 0.13825204E+04</rscale>
<asrwt>0</asrwt>
<pdfrwt beam="1">  1        2 0.39442761E+00 0.13825204E+04</pdfrwt>
<pdfrwt beam="2">  1       -3 0.28674054E-01 0.13825204E+04</pdfrwt>
<totfact> 0.23985956E+01</totfact>
</mgrwt>
</event>
<event>
12    6  0.1586493E-007  0.1318131E+04  0.7818608E-02  0.9015309E-01
          2   -1    0    0  501    0  0.00000000000E+00  0.00000000000E+00  0.84822872612E+03  0.84822872612E+03  0.00000000000E+00 0. -1.
         -1   -1    0    0    0  501 -0.00000000000E+00 -0.00000000000E+00 -0.51208775388E+03  0.51208775388E+03  0.00000000000E+00 0.  1.
         24    2    1    2    0    0  0.11832040555E+03 -0.19098446538E+03 -0.18391538458E+03  0.29683476899E+03  0.61735135966E+02 0.  0.
        254    2    1    2    0    0 -0.11832040555E+03  0.19098446538E+03  0.52005635681E+03  0.10634817110E+04  0.90003330550E+03 0.  0.
         23    2    4    4    0    0 -0.42820965850E+03  0.35712999125E+03  0.32589697094E+03  0.65238553990E+03  0.92155926114E+02 0.  0.
         23    2    4    4    0    0  0.30988925295E+03 -0.16614552587E+03  0.19415938587E+03  0.41109617111E+03  0.87558608515E+02 0.  0.
          4    1    3    3  502    0  0.60787360694E+02 -0.99572971265E+02 -0.55964165091E+02  0.12939036904E+03  0.00000000000E+00 0. -1.
         -3    1    3    3    0  502  0.57533044857E+02 -0.91411494119E+02 -0.12795121949E+03  0.16744439995E+03  0.00000000000E+00 0.  1.
         11    1    5    5    0    0 -0.41996157131E+03  0.35088818090E+03  0.29909530267E+03  0.62365714696E+03  0.00000000000E+00 0.  1.
        -11    1    5    5    0    0 -0.82480871836E+01  0.62418103469E+01  0.26801668268E+02  0.28728392934E+02  0.00000000000E+00 0. -1.
          1    1    6    6  503    0  0.84853164956E+02 -0.18678781183E+02  0.82445197345E+02  0.11977548595E+03  0.00000000000E+00 0. -1.
         -1    1    6    6    0  503  0.22503608799E+03 -0.14746674468E+03  0.11171418853E+03  0.29132068516E+03  0.00000000000E+00 0.  1.
<mgrwt>
<rscale>  0 0.13181313E+04</rscale>
<asrwt>0</asrwt>
<pdfrwt beam="1">  1        2 0.13049673E+00 0.13181313E+04</pdfrwt>
<pdfrwt beam="2">  1       -1 0.78782731E-01 0.13181313E+04</pdfrwt>
<totfact> 0.57343292E+01</totfact>
</mgrwt>
</event>
<event>
12    6  0.1586493E-007  0.2096602E+04  0.7818608E-02  0.8562741E-01
         -1   -1    0    0    0  501 -0.00000000000E+00  0.00000000000E+00  0.58933308976E+03  0.58933308976E+03  0.00000000000E+00 0.  1.
          2   -1    0    0  501    0  0.00000000000E+00 -0.00000000000E+00 -0.18647102805E+04  0.18647102805E+04  0.00000000000E+00 0. -1.
         24    2    1    2    0    0  0.41515616200E+03  0.38050219861E+03  0.23023032731E+03  0.61307227721E+03  0.75597959469E+02 0.  0.
        254    2    1    2    0    0 -0.41515616200E+03 -0.38050219861E+03 -0.15056075181E+04  0.18409710930E+04  0.89732045837E+03 0.  0.
         23    2    4    4    0    0 -0.60079063617E+03 -0.49935535647E+03 -0.92528693771E+03  0.12139721358E+04  0.85248278417E+02 0.  0.
         23    2    4    4    0    0  0.18563447416E+03  0.11885315786E+03 -0.58032058034E+03  0.62699895720E+03  0.88144683490E+02 0.  0.
          4    1    3    3  502    0  0.18077358445E+02  0.39247578607E+02  0.64754176020E+01  0.43693184228E+02  0.00000000000E+00 0. -1.
         -3    1    3    3    0  502  0.39707880356E+03  0.34125462001E+03  0.22375490971E+03  0.56937909298E+03  0.00000000000E+00 0.  1.
         11    1    5    5    0    0 -0.10031075994E+03 -0.92884603939E+02 -0.11629423538E+03  0.17948300029E+03  0.00000000000E+00 0. -1.
        -11    1    5    5    0    0 -0.50047987622E+03 -0.40647075253E+03 -0.80899270233E+03  0.10344891356E+04  0.00000000000E+00 0.  1.
          4    1    6    6  503    0  0.71273432595E+02  0.32142336106E+02 -0.10783077085E+03  0.13319349499E+03  0.00000000000E+00 0. -1.
         -4    1    6    6    0  503  0.11436104157E+03  0.86710821755E+02 -0.47248980949E+03  0.49380546221E+03  0.00000000000E+00 0.  1.
<mgrwt>
<rscale>  0 0.20966025E+04</rscale>
<asrwt>0</asrwt>
<pdfrwt beam="1">  1        2 0.28687850E+00 0.20966025E+04</pdfrwt>
<pdfrwt beam="2">  1       -1 0.90666629E-01 0.20966025E+04</pdfrwt>
<totfact> 0.99074473E+00</totfact>
</mgrwt>
</event>
<event>
12    6  0.1586493E-007  0.3118645E+04  0.7818608E-02  0.8210640E-01
         -1   -1    0    0    0  501 -0.00000000000E+00  0.00000000000E+00  0.75542237988E+03  0.75542237988E+03  0.00000000000E+00 0.  1.
          2   -1    0    0  501    0  0.00000000000E+00 -0.00000000000E+00 -0.32187110440E+04  0.32187110440E+04  0.00000000000E+00 0. -1.
         24    2    1    2    0    0 -0.10742414298E+04  0.80413537897E+03 -0.17551455888E+04  0.22108052912E+04  0.80595536306E+02 0.  0.
        254    2    1    2    0    0  0.10742414298E+04 -0.80413537897E+03 -0.70814307528E+03  0.17633281326E+04  0.89846042264E+03 0.  0.
         23    2    4    4    0    0  0.16481091574E+03 -0.66224920545E+03 -0.26947456332E+03  0.73934932891E+03  0.91017810435E+02 0.  0.
         23    2    4    4    0    0  0.90943051409E+03 -0.14188617353E+03 -0.43866851196E+03  0.10239788037E+04  0.94376802965E+02 0.  0.
          4    1    3    3  502    0 -0.89264964375E+03  0.69910017513E+03 -0.15061223440E+04  0.18851973256E+04  0.00000000000E+00 0. -1.
         -3    1    3    3    0  502 -0.18159178608E+03  0.10503520384E+03 -0.24902324486E+03  0.32560796566E+03  0.00000000000E+00 0.  1.
         11    1    5    5    0    0  0.16658310607E+03 -0.55124675286E+03 -0.24412247680E+03  0.62547477762E+03  0.00000000000E+00 0.  1.
        -11    1    5    5    0    0 -0.17721903271E+01 -0.11100245259E+03 -0.25352086524E+02  0.11387455128E+03  0.00000000000E+00 0. -1.
          4    1    6    6  503    0  0.46445163860E+03 -0.27633064057E+02 -0.23873030493E+03  0.52294461401E+03  0.00000000000E+00 0. -1.
         -4    1    6    6    0  503  0.44497887549E+03 -0.11425310947E+03 -0.19993820703E+03  0.50103418974E+03  0.00000000000E+00 0.  1.
<mgrwt>
<rscale>  0 0.31186448E+04</rscale>
<asrwt>0</asrwt>
<pdfrwt beam="1">  1        2 0.49518633E+00 0.31186448E+04</pdfrwt>
<pdfrwt beam="2">  1       -1 0.11621882E+00 0.31186448E+04</pdfrwt>
<totfact> 0.81165157E-01</totfact>
</mgrwt>
</event>
<event>
12    6  0.1586493E-007  0.1427415E+04  0.7818608E-02  0.8934210E-01
          2   -1    0    0  501    0  0.00000000000E+00  0.00000000000E+00  0.40342290540E+03  0.40342290540E+03  0.00000000000E+00 0. -1.
         -1   -1    0    0    0  501 -0.00000000000E+00 -0.00000000000E+00 -0.12626409482E+04  0.12626409482E+04  0.00000000000E+00 0.  1.
         24    2    1    2    0    0  0.33166655569E+03  0.18195595715E+03 -0.21552071137E+02  0.38805658087E+03  0.83742126108E+02 0.  0.
        254    2    1    2    0    0 -0.33166655569E+03 -0.18195595715E+03 -0.83766597171E+03  0.12780072728E+04  0.88797952374E+03 0.  0.
         23    2    4    4    0    0 -0.77681639846E+02 -0.51821132145E+03 -0.42028661469E+03  0.67787448013E+03  0.91079972893E+02 0.  0.
         23    2    4    4    0    0 -0.25398491584E+03  0.33625536431E+03 -0.41737935701E+03  0.60013279264E+03  0.91530506611E+02 0.  0.
          2    1    3    3  502    0  0.20790536492E+03  0.71382294922E+02  0.55925858070E+01  0.21988940358E+03  0.00000000000E+00 0. -1.
         -1    1    3    3    0  502  0.12376119077E+03  0.11057366222E+03 -0.27144656944E+02  0.16816717730E+03  0.00000000000E+00 0.  1.
         11    1    5    5    0    0 -0.42805545100E+01 -0.28779455645E+03 -0.19752021420E+03  0.34908203174E+03  0.00000000000E+00 0.  1.
        -11    1    5    5    0    0 -0.73401085336E+02 -0.23041676500E+03 -0.22276640049E+03  0.32879244838E+03  0.00000000000E+00 0. -1.
          2    1    6    6  503    0 -0.24867809851E+03  0.34227836130E+03 -0.41140155598E+03  0.59012415097E+03  0.00000000000E+00 0. -1.
         -2    1    6    6    0  503 -0.53068173320E+01 -0.60229969909E+01 -0.59778010323E+01  0.10008641673E+02  0.00000000000E+00 0.  1.
<mgrwt>
<rscale>  0 0.14274148E+04</rscale>
<asrwt>0</asrwt>
<pdfrwt beam="1">  1        2 0.62065063E-01 0.14274148E+04</pdfrwt>
<pdfrwt beam="2">  1       -1 0.19425245E+00 0.14274148E+04</pdfrwt>
<totfact> 0.14439756E+01</totfact>
</mgrwt>
</event>
<event>
12    6  0.1586493E-007  0.2674440E+04  0.7818608E-02  0.8343346E-01
          2   -1    0    0  501    0  0.00000000000E+00  0.00000000000E+00  0.73999933451E+03  0.73999933451E+03  0.00000000000E+00 0. -1.
         -1   -1    0    0    0  501 -0.00000000000E+00 -0.00000000000E+00 -0.24164305501E+04  0.24164305501E+04  0.00000000000E+00 0.  1.
         24    2    1    2    0    0  0.97434060571E+03  0.67272149945E+03 -0.77067272652E+03  0.14148878078E+04  0.77956560930E+02 0.  0.
        254    2    1    2    0    0 -0.97434060571E+03 -0.67272149945E+03 -0.90575848902E+03  0.17415420768E+04  0.90037577326E+03 0.  0.
         23    2    4    4    0    0 -0.26215885801E+03 -0.46622070727E+03 -0.82829514760E+03  0.99038442986E+03  0.93270856389E+02 0.  0.
         23    2    4    4    0    0 -0.71218174770E+03 -0.20650079218E+03 -0.77463341418E+02  0.75115764694E+03  0.91606890339E+02 0.  0.
          2    1    3    3  502    0  0.21442791143E+03  0.16330536926E+03 -0.14014420496E+03  0.30379001138E+03  0.00000000000E+00 0. -1.
         -1    1    3    3    0  502  0.75991269428E+03  0.50941613019E+03 -0.63052852156E+03  0.11110977964E+04  0.00000000000E+00 0.  1.
         11    1    5    5    0    0 -0.13529512711E+03 -0.32955185470E+03 -0.53000559006E+03  0.63860404152E+03  0.00000000000E+00 0.  1.
        -11    1    5    5    0    0 -0.12686373090E+03 -0.13666885257E+03 -0.29828955755E+03  0.35178038834E+03  0.00000000000E+00 0. -1.
          1    1    6    6  503    0 -0.13552980995E+03 -0.69626929530E+02 -0.38761746010E+02  0.15722185489E+03  0.00000000000E+00 0. -1.
         -1    1    6    6    0  503 -0.57665193775E+03 -0.13687386265E+03 -0.38701595408E+02  0.59393579205E+03  0.00000000000E+00 0.  1.
<mgrwt>
<rscale>  0 0.26744398E+04</rscale>
<asrwt>0</asrwt>
<pdfrwt beam="1">  1        2 0.11384605E+00 0.26744398E+04</pdfrwt>
<pdfrwt beam="2">  1       -1 0.37175854E+00 0.26744398E+04</pdfrwt>
<totfact> 0.42537360E-01</totfact>
</mgrwt>
</event>
<event>
12    6  0.1586493E-007  0.2383439E+04  0.7818608E-02  0.8445730E-01
          2   -1    0    0  501    0  0.00000000000E+00  0.00000000000E+00  0.24408287523E+04  0.24408287523E+04  0.00000000000E+00 0. -1.
         -1   -1    0    0    0  501 -0.00000000000E+00 -0.00000000000E+00 -0.58184964324E+03  0.58184964324E+03  0.00000000000E+00 0.  1.
         24    2    1    2    0    0 -0.10143109728E+04 -0.10613855723E+03  0.83554157175E+03  0.13206695388E+04  0.77111411842E+02 0.  0.
        254    2    1    2    0    0  0.10143109728E+04  0.10613855723E+03  0.10234375373E+04  0.17020088567E+04  0.89962081603E+03 0.  0.
         23    2    4    4    0    0  0.16276947256E+03 -0.23791276243E+03 -0.29495489756E+02  0.30179226218E+03  0.84333871433E+02 0.  0.
         23    2    4    4    0    0  0.85154150022E+03  0.34405131966E+03  0.10529330270E+04  0.14002165945E+04  0.91892953508E+02 0.  0.
          2    1    3    3  502    0 -0.75329148936E+03 -0.91470507931E+02  0.66079685664E+03  0.10062143944E+04  0.00000000000E+00 0. -1.
         -1    1    3    3    0  502 -0.26101948343E+03 -0.14668049301E+02  0.17474471511E+03  0.31445514443E+03  0.00000000000E+00 0.  1.
         11    1    5    5    0    0  0.12043620000E+03 -0.12221380459E+03 -0.45609516873E+02  0.17754244656E+03  0.00000000000E+00 0.  1.
        -11    1    5    5    0    0  0.42333272567E+02 -0.11569895784E+03  0.16114027117E+02  0.12424981562E+03  0.00000000000E+00 0. -1.
          2    1    6    6  503    0  0.42207602931E+03  0.21512598601E+03  0.51056521943E+03  0.69649422658E+03  0.00000000000E+00 0. -1.
         -2    1    6    6    0  503  0.42946547092E+03  0.12892533365E+03  0.54236780762E+03  0.70372236792E+03  0.00000000000E+00 0.  1.
<mgrwt>
<rscale>  0 0.23834390E+04</rscale>
<asrwt>0</asrwt>
<pdfrwt beam="1">  1        2 0.37551211E+00 0.23834390E+04</pdfrwt>
<pdfrwt beam="2">  1       -1 0.89515331E-01 0.23834390E+04</pdfrwt>
<totfact> 0.47158187E+00</totfact>
</mgrwt>
</event>
<event>
12    6  0.1586493E-007  0.1809130E+04  0.7818608E-02  0.8701459E-01
          2   -1    0    0  501    0  0.00000000000E+00  0.00000000000E+00  0.12786308320E+04  0.12786308320E+04  0.00000000000E+00 0. -1.
         -1   -1    0    0    0  501 -0.00000000000E+00 -0.00000000000E+00 -0.63993314078E+03  0.63993314078E+03  0.00000000000E+00 0.  1.
         24    2    1    2    0    0  0.66391106211E+03  0.22950934993E+02  0.39981804763E+03  0.77945267320E+03  0.79920928013E+02 0.  0.
        254    2    1    2    0    0 -0.66391106211E+03 -0.22950934993E+02  0.23887964355E+03  0.11391112995E+04  0.89398345893E+03 0.  0.
         23    2    4    4    0    0  0.16100459117E+02  0.29424471522E+03  0.22761465710E+03  0.38356903765E+03  0.92073868719E+02 0.  0.
         23    2    4    4    0    0 -0.68001152123E+03 -0.31719565021E+03  0.11264986453E+02  0.75554226190E+03  0.87683864379E+02 0.  0.
          2    1    3    3  502    0  0.57882198897E+03  0.13684566520E+02  0.31577190558E+03  0.65949530600E+03  0.00000000000E+00 0. -1.
         -1    1    3    3    0  502  0.85089073138E+02  0.92663684730E+01  0.84046142049E+02  0.11995736720E+03  0.00000000000E+00 0.  1.
         11    1    5    5    0    0  0.20638993121E+02  0.29747477843E+03  0.23086888279E+03  0.37711755844E+03  0.00000000000E+00 0.  1.
        -11    1    5    5    0    0 -0.45385340038E+01 -0.32300632129E+01 -0.32542256883E+01  0.64514792175E+01  0.00000000000E+00 0. -1.
          2    1    6    6  503    0 -0.13451101667E+03 -0.52310607510E+02  0.35572062072E+02  0.14864381878E+03  0.00000000000E+00 0. -1.
         -2    1    6    6    0  503 -0.54550050456E+03 -0.26488504270E+03 -0.24307075619E+02  0.60689844311E+03  0.00000000000E+00 0.  1.
<mgrwt>
<rscale>  0 0.18091304E+04</rscale>
<asrwt>0</asrwt>
<pdfrwt beam="1">  1        2 0.19671243E+00 0.18091304E+04</pdfrwt>
<pdfrwt beam="2">  1       -1 0.98451253E-01 0.18091304E+04</pdfrwt>
<totfact> 0.18075052E+01</totfact>
</mgrwt>
</event>
<event>
12    6  0.1586493E-007  0.1419360E+04  0.7818608E-02  0.8939923E-01
         -1   -1    0    0    0  501 -0.00000000000E+00  0.00000000000E+00  0.43437641216E+03  0.43437641216E+03  0.00000000000E+00 0.  1.
          2   -1    0    0  501    0  0.00000000000E+00 -0.00000000000E+00 -0.11594689472E+04  0.11594689472E+04  0.00000000000E+00 0. -1.
         24    2    1    2    0    0 -0.36974116110E+02  0.10168018075E+03 -0.66159830156E+03  0.67459405732E+03  0.75225561579E+02 0.  0.
        254    2    1    2    0    0  0.36974116110E+02 -0.10168018075E+03 -0.63494233465E+02  0.91925130203E+03  0.91065113747E+03 0.  0.
         23    2    4    4    0    0 -0.20476743550E+03 -0.10970442930E+03  0.35095159840E+03  0.43045682364E+03  0.90339848097E+02 0.  0.
         23    2    4    4    0    0  0.24174155161E+03  0.80242485483E+01 -0.41444583186E+03  0.48879447839E+03  0.93012516449E+02 0.  0.
          4    1    3    3  502    0 -0.47986131369E+02  0.89396249601E+02 -0.63665312974E+03  0.64468718449E+03  0.00000000000E+00 0. -1.
         -3    1    3    3    0  502  0.11012015259E+02  0.12283931150E+02 -0.24945171826E+02  0.29906872821E+02  0.00000000000E+00 0.  1.
         11    1    5    5    0    0 -0.81202348413E+02 -0.63597215735E+02  0.85211851446E+02  0.13378896391E+03  0.00000000000E+00 0. -1.
        -11    1    5    5    0    0 -0.12356508709E+03 -0.46107213564E+02  0.26573974695E+03  0.29666785973E+03  0.00000000000E+00 0.  1.
          4    1    6    6  503    0  0.10560360499E+02  0.24797844914E+02 -0.51998843899E+02  0.58569054057E+02  0.00000000000E+00 0. -1.
         -4    1    6    6    0  503  0.23118119111E+03 -0.16773596366E+02 -0.36244698796E+03  0.43022542433E+03  0.00000000000E+00 0.  1.
<mgrwt>
<rscale>  0 0.14193604E+04</rscale>
<asrwt>0</asrwt>
<pdfrwt beam="1">  1        2 0.17837984E+00 0.14193604E+04</pdfrwt>
<pdfrwt beam="2">  1       -1 0.66827140E-01 0.14193604E+04</pdfrwt>
<totfact> 0.50380611E+01</totfact>
</mgrwt>
</event>
<event>
12    6  0.1586493E-007  0.1902973E+04  0.7818608E-02  0.8653378E-01
         -1   -1    0    0    0  501 -0.00000000000E+00  0.00000000000E+00  0.62697221389E+03  0.62697221389E+03  0.00000000000E+00 0.  1.
          2   -1    0    0  501    0  0.00000000000E+00 -0.00000000000E+00 -0.14439653479E+04  0.14439653479E+04  0.00000000000E+00 0. -1.
         24    2    1    2    0    0  0.29324926280E+03  0.25465984556E+03  0.37225524287E+03  0.54371323952E+03  0.78761373222E+02 0.  0.
        254    2    1    2    0    0 -0.29324926280E+03 -0.25465984556E+03 -0.11892483768E+04  0.15272243222E+04  0.87593131098E+03 0.  0.
         23    2    4    4    0    0  0.14376143850E+03 -0.39344320131E+03 -0.84016530957E+03  0.94375758789E+03  0.96621599257E+02 0.  0.
         23    2    4    4    0    0 -0.43701070131E+03  0.13878335575E+03 -0.34908306727E+03  0.58346673435E+03  0.91297696264E+02 0.  0.
          2    1    3    3  502    0  0.13659821134E+03  0.12902460382E+03  0.23309656221E+03  0.29940011197E+03  0.00000000000E+00 0. -1.
         -1    1    3    3    0  502  0.15665105146E+03  0.12563524174E+03  0.13915868066E+03  0.24431312755E+03  0.00000000000E+00 0.  1.
         11    1    5    5    0    0  0.12005431303E+03 -0.19524049607E+03 -0.48212241974E+03  0.53382948307E+03  0.00000000000E+00 0. -1.
        -11    1    5    5    0    0  0.23707125471E+02 -0.19820270524E+03 -0.35804288983E+03  0.40992810482E+03  0.00000000000E+00 0.  1.
          2    1    6    6  503    0 -0.32034753283E+03  0.12591481590E+03 -0.29869730027E+03  0.45573803862E+03  0.00000000000E+00 0.  1.
         -2    1    6    6    0  503 -0.11666316847E+03  0.12868539857E+02 -0.50385767002E+02  0.12772869573E+03  0.00000000000E+00 0. -1.
<mgrwt>
<rscale>  0 0.19029726E+04</rscale>
<asrwt>0</asrwt>
<pdfrwt beam="1">  1        2 0.22214852E+00 0.19029726E+04</pdfrwt>
<pdfrwt beam="2">  1       -1 0.96457263E-01 0.19029726E+04</pdfrwt>
<totfact> 0.15077966E+01</totfact>
</mgrwt>
</event>
<event>
12    6  0.1586493E-007  0.2276993E+04  0.7818608E-02  0.8487048E-01
         -1   -1    0    0    0  501 -0.00000000000E+00  0.00000000000E+00  0.43121019487E+03  0.43121019487E+03  0.00000000000E+00 0.  1.
          2   -1    0    0  501    0  0.00000000000E+00 -0.00000000000E+00 -0.30058983234E+04  0.30058983234E+04  0.00000000000E+00 0. -1.
         24    2    1    2    0    0  0.13096979437E+03  0.93032938829E+03 -0.78054878101E+03  0.12247086627E+04  0.89381492974E+02 0.  0.
        254    2    1    2    0    0 -0.13096979437E+03 -0.93032938829E+03 -0.17941393475E+04  0.22123998555E+04  0.89056794502E+03 0.  0.
         23    2    4    4    0    0 -0.20630457915E+03 -0.86581724595E+02 -0.16661542180E+02  0.24126906088E+03  0.88742201576E+02 0.  0.
         23    2    4    4    0    0  0.75334784780E+02 -0.84374766369E+03 -0.17774778054E+04  0.19711307947E+04  0.91344465424E+02 0.  0.
          2    1    3    3  502    0  0.11095092232E+02  0.40314771139E+02 -0.60971599107E+02  0.73931845245E+02  0.00000000000E+00 0. -1.
         -1    1    3    3    0  502  0.11987470213E+03  0.89001461715E+03 -0.71957718190E+03  0.11507768175E+04  0.00000000000E+00 0.  1.
         11    1    5    5    0    0 -0.10490497122E+03 -0.11354560557E+01 -0.26803801886E+02  0.10828105117E+03  0.00000000000E+00 0. -1.
        -11    1    5    5    0    0 -0.10139960792E+03 -0.85446268540E+02  0.10142259707E+02  0.13298800971E+03  0.00000000000E+00 0.  1.
          2    1    6    6  503    0  0.48027554524E+02 -0.54581947364E+03 -0.12477627622E+04  0.13627683056E+04  0.00000000000E+00 0.  1.
         -2    1    6    6    0  503  0.27307230256E+02 -0.29792819005E+03 -0.52971504312E+03  0.60836248911E+03  0.00000000000E+00 0. -1.
<mgrwt>
<rscale>  0 0.22769928E+04</rscale>
<asrwt>0</asrwt>
<pdfrwt beam="1">  1        2 0.46244588E+00 0.22769928E+04</pdfrwt>
<pdfrwt beam="2">  1       -1 0.66340032E-01 0.22769928E+04</pdfrwt>
<totfact> 0.41116054E+00</totfact>
</mgrwt>
</event>
<event>
12    6  0.1586493E-007  0.1696403E+04  0.7818608E-02  0.8763418E-01
          2   -1    0    0  501    0  0.00000000000E+00  0.00000000000E+00  0.29490512752E+04  0.29490512752E+04  0.00000000000E+00 0. -1.
         -1   -1    0    0    0  501 -0.00000000000E+00 -0.00000000000E+00 -0.24395843591E+03  0.24395843591E+03  0.00000000000E+00 0.  1.
         24    2    1    2    0    0  0.14941645205E+03 -0.29687654762E+03  0.19109447969E+04  0.19413499156E+04  0.81660990480E+02 0.  0.
        254    2    1    2    0    0 -0.14941645205E+03  0.29687654762E+03  0.79414804235E+03  0.12516597955E+04  0.90858140511E+03 0.  0.
         23    2    4    4    0    0 -0.11537861218E+03  0.61554175823E+03  0.48519253845E+03  0.79711350814E+03  0.88171793784E+02 0.  0.
         23    2    4    4    0    0 -0.34037839872E+02 -0.31866521061E+03  0.30895550390E+03  0.45454628731E+03  0.91938745482E+02 0.  0.
          4    1    3    3  502    0  0.10834604344E+03 -0.14787779816E+03  0.88076898866E+03  0.89964477418E+03  0.00000000000E+00 0. -1.
         -3    1    3    3    0  502  0.41070408608E+02 -0.14899874946E+03  0.10301758082E+04  0.10417051414E+04  0.00000000000E+00 0.  1.
         11    1    5    5    0    0 -0.11775144941E+03  0.40517765268E+03  0.33103906967E+03  0.53630327215E+03  0.00000000000E+00 0. -1.
        -11    1    5    5    0    0  0.23728372385E+01  0.21036410555E+03  0.15415346878E+03  0.26081023599E+03  0.00000000000E+00 0.  1.
          2    1    6    6  503    0 -0.33538511454E+02 -0.29490687073E+03  0.24028174187E+03  0.38187721801E+03  0.00000000000E+00 0. -1.
         -2    1    6    6    0  503 -0.49932841827E+00 -0.23758339880E+02  0.68673762023E+02  0.72669069302E+02  0.00000000000E+00 0.  1.
<mgrwt>
<rscale>  0 0.16964032E+04</rscale>
<asrwt>0</asrwt>
<pdfrwt beam="1">  1        2 0.45370017E+00 0.16964032E+04</pdfrwt>
<pdfrwt beam="2">  1       -1 0.37532069E-01 0.16964032E+04</pdfrwt>
<totfact> 0.13951698E+01</totfact>
</mgrwt>
</event>
<event>
12    6  0.1586493E-007  0.1801565E+04  0.7818608E-02  0.8705468E-01
         -1   -1    0    0    0  501 -0.00000000000E+00  0.00000000000E+00  0.47382906620E+03  0.47382906620E+03  0.00000000000E+00 0.  1.
          2   -1    0    0  501    0  0.00000000000E+00 -0.00000000000E+00 -0.17124512796E+04  0.17124512796E+04  0.00000000000E+00 0. -1.
         24    2    1    2    0    0  0.53815027100E+03 -0.18701548580E+03 -0.89786814156E+03  0.10661795995E+04  0.77403053356E+02 0.  0.
        254    2    1    2    0    0 -0.53815027100E+03  0.18701548580E+03 -0.34075407187E+03  0.11201007463E+04  0.90218171024E+03 0.  0.
         23    2    4    4    0    0  0.11009504536E+03  0.31407485122E+03  0.48479640453E+02  0.34734527230E+03  0.86801678955E+02 0.  0.
         23    2    4    4    0    0 -0.64824531636E+03 -0.12705936542E+03 -0.38923371232E+03  0.77275547402E+03  0.96343485952E+02 0.  0.
          4    1    3    3  502    0  0.48929797055E+03 -0.14922766074E+03 -0.82422652228E+03  0.97006739907E+03  0.00000000000E+00 0. -1.
         -3    1    3    3    0  502  0.48852300455E+02 -0.37787825060E+02 -0.73641619280E+02  0.96112200436E+02  0.00000000000E+00 0.  1.
         11    1    5    5    0    0  0.10181543782E+03  0.30707838673E+03  0.28697289178E+02  0.32478770509E+03  0.00000000000E+00 0. -1.
        -11    1    5    5    0    0  0.82796075419E+01  0.69964644952E+01  0.19782351275E+02  0.22557567210E+02  0.00000000000E+00 0.  1.
          2    1    6    6  503    0 -0.45525868288E+03 -0.91842624440E+02 -0.32298133950E+03  0.56569645718E+03  0.00000000000E+00 0. -1.
         -2    1    6    6    0  503 -0.19298663348E+03 -0.35216740980E+02 -0.66252372824E+02  0.20705901683E+03  0.00000000000E+00 0.  1.
<mgrwt>
<rscale>  0 0.18015651E+04</rscale>
<asrwt>0</asrwt>
<pdfrwt beam="1">  1        2 0.26345404E+00 0.18015651E+04</pdfrwt>
<pdfrwt beam="2">  1       -1 0.72896779E-01 0.18015651E+04</pdfrwt>
<totfact> 0.19688444E+01</totfact>
</mgrwt>
</event>
<event>
12    6  0.1586493E-007  0.1914655E+04  0.7818608E-02  0.8647596E-01
         -1   -1    0    0    0  501 -0.00000000000E+00  0.00000000000E+00  0.52979734798E+03  0.52979734798E+03  0.00000000000E+00 0.  1.
          2   -1    0    0  501    0  0.00000000000E+00 -0.00000000000E+00 -0.17298608922E+04  0.17298608922E+04  0.00000000000E+00 0. -1.
         24    2    1    2    0    0 -0.11537132052E+03  0.17210758295E+03  0.37367184136E+03  0.43476809429E+03  0.80380899982E+02 0.  0.
        254    2    1    2    0    0  0.11537132052E+03 -0.17210758295E+03 -0.15737353856E+04  0.18248901459E+04  0.90036071606E+03 0.  0.
         23    2    4    4    0    0  0.90869566201E+02  0.10621782879E+03 -0.15159405670E+04  0.15251539477E+04  0.92082876705E+02 0.  0.
         23    2    4    4    0    0  0.24501754320E+02 -0.27832541174E+03 -0.57794818596E+02  0.29973619824E+03  0.91848661909E+02 0.  0.
          2    1    3    3  502    0  0.87417902559E+01  0.97932980978E+00  0.59751815944E+01  0.10633944651E+02  0.00000000000E+00 0. -1.
         -1    1    3    3    0  502 -0.12411311078E+03  0.17112825314E+03  0.36769665977E+03  0.42413414964E+03  0.00000000000E+00 0.  1.
         11    1    5    5    0    0  0.29777103694E+02  0.21331843206E+02 -0.87255584814E+03  0.87332435645E+03  0.00000000000E+00 0. -1.
        -11    1    5    5    0    0  0.61092462507E+02  0.84885985581E+02 -0.64338471885E+03  0.65182959121E+03  0.00000000000E+00 0.  1.
          3    1    6    6  503    0  0.30862016721E+02 -0.17430213151E+03  0.67646458018E+01  0.17714247813E+03  0.00000000000E+00 0. -1.
         -3    1    6    6    0  503 -0.63602624010E+01 -0.10402328023E+03 -0.64559464397E+02  0.12259372011E+03  0.00000000000E+00 0.  1.
<mgrwt>
<rscale>  0 0.19146548E+04</rscale>
<asrwt>0</asrwt>
<pdfrwt beam="1">  1        2 0.26613245E+00 0.19146548E+04</pdfrwt>
<pdfrwt beam="2">  1       -1 0.81507284E-01 0.19146548E+04</pdfrwt>
<totfact> 0.15072891E+01</totfact>
</mgrwt>
</event>
<event>
12    6  0.1586493E-007  0.2915279E+04  0.7818608E-02  0.8268346E-01
         -1   -1    0    0    0  501 -0.00000000000E+00  0.00000000000E+00  0.13467180281E+04  0.13467180281E+04  0.00000000000E+00 0.  1.
          2   -1    0    0  501    0  0.00000000000E+00 -0.00000000000E+00 -0.15776971210E+04  0.15776971210E+04  0.00000000000E+00 0. -1.
         24    2    1    2    0    0 -0.45726360284E+03  0.12067330755E+04  0.13633201169E+03  0.13002343713E+04  0.82026124454E+02 0.  0.
        254    2    1    2    0    0  0.45726360284E+03 -0.12067330755E+04 -0.36731110455E+03  0.16241807777E+04  0.91528740470E+03 0.  0.
         23    2    4    4    0    0 -0.11401671571E+03 -0.78898149416E+03 -0.42603808213E+03  0.90851280739E+03  0.91626765591E+02 0.  0.
         23    2    4    4    0    0  0.57128031855E+03 -0.41775158131E+03  0.58726977580E+02  0.71566797031E+03  0.88623923291E+02 0.  0.
          4    1    3    3  502    0 -0.22489593680E+02  0.41046624435E+02  0.19256319048E+02  0.50610404313E+02  0.00000000000E+00 0. -1.
         -1    1    3    3    0  502 -0.43477400916E+03  0.11656864510E+04  0.11707569264E+03  0.12496239670E+04  0.00000000000E+00 0.  1.
         11    1    5    5    0    0 -0.10839836259E+03 -0.78753466515E+03 -0.41678587265E+03  0.89759206628E+03  0.00000000000E+00 0. -1.
        -11    1    5    5    0    0 -0.56183531178E+01 -0.14468290187E+01 -0.92522094861E+01  0.10920741108E+02  0.00000000000E+00 0.  1.
          3    1    6    6  503    0  0.44688360323E+03 -0.28236446781E+03  0.28901001184E+02  0.52940524684E+03  0.00000000000E+00 0. -1.
         -3    1    6    6    0  503  0.12439671533E+03 -0.13538711350E+03  0.29825976396E+02  0.18626272347E+03  0.00000000000E+00 0.  1.
<mgrwt>
<rscale>  0 0.29152792E+04</rscale>
<asrwt>0</asrwt>
<pdfrwt beam="1">  1        2 0.24272263E+00 0.29152792E+04</pdfrwt>
<pdfrwt beam="2">  1       -1 0.20718739E+00 0.29152792E+04</pdfrwt>
<totfact> 0.15133659E+00</totfact>
</mgrwt>
</event>
<event>
12    6  0.1586493E-007  0.1614004E+04  0.7818608E-02  0.8811991E-01
         -1   -1    0    0    0  501 -0.00000000000E+00  0.00000000000E+00  0.93726774730E+03  0.93726774730E+03  0.00000000000E+00 0.  1.
          2   -1    0    0  501    0  0.00000000000E+00 -0.00000000000E+00 -0.69484135789E+03  0.69484135789E+03  0.00000000000E+00 0. -1.
         24    2    1    2    0    0 -0.13773403936E+02 -0.71297612727E+01 -0.48115922823E+03  0.48805330627E+03  0.80257627014E+02 0.  0.
        254    2    1    2    0    0  0.13773403936E+02  0.71297612727E+01  0.72358561764E+03  0.11440557989E+04  0.88602877201E+03 0.  0.
         23    2    4    4    0    0 -0.15765258964E+03  0.40271709693E+03  0.30547047659E+03  0.53701411611E+03  0.89646805063E+02 0.  0.
         23    2    4    4    0    0  0.17142599358E+03 -0.39558733566E+03  0.41811514105E+03  0.60704168280E+03  0.88335282175E+02 0.  0.
          2    1    3    3  502    0 -0.35161343766E+02 -0.37028180929E+01 -0.44108471201E+03  0.44249943969E+03  0.00000000000E+00 0. -1.
         -1    1    3    3    0  502  0.21387939830E+02 -0.34269431798E+01 -0.40074516226E+02  0.45553866581E+02  0.00000000000E+00 0.  1.
         11    1    5    5    0    0 -0.38718806024E+02  0.80023655850E+02  0.22630793496E+02  0.91733768318E+02  0.00000000000E+00 0. -1.
        -11    1    5    5    0    0 -0.11893378362E+03  0.32269344108E+03  0.28283968309E+03  0.44528034780E+03  0.00000000000E+00 0.  1.
          4    1    6    6  503    0  0.16075256673E+03 -0.27383383609E+03  0.29110708822E+03  0.43077801047E+03  0.00000000000E+00 0.  1.
         -4    1    6    6    0  503  0.10673426846E+02 -0.12175349957E+03  0.12700805284E+03  0.17626367233E+03  0.00000000000E+00 0. -1.
<mgrwt>
<rscale>  0 0.16140042E+04</rscale>
<asrwt>0</asrwt>
<pdfrwt beam="1">  1        2 0.10689867E+00 0.16140042E+04</pdfrwt>
<pdfrwt beam="2">  1       -1 0.14419504E+00 0.16140042E+04</pdfrwt>
<totfact> 0.17547618E+01</totfact>
</mgrwt>
</event>
<event>
12    6  0.1586493E-007  0.1547912E+04  0.7818608E-02  0.8853202E-01
          2   -1    0    0  501    0  0.00000000000E+00  0.00000000000E+00  0.20865650602E+04  0.20865650602E+04  0.00000000000E+00 0. -1.
         -1   -1    0    0    0  501 -0.00000000000E+00 -0.00000000000E+00 -0.28707855910E+03  0.28707855910E+03  0.00000000000E+00 0.  1.
         24    2    1    2    0    0 -0.52716312331E+03 -0.28255339368E+02  0.55970760158E+03  0.77360397441E+03  0.80567904128E+02 0.  0.
        254    2    1    2    0    0  0.52716312331E+03  0.28255339368E+02  0.12397788995E+04  0.16000396449E+04  0.86277217313E+03 0.  0.
         23    2    4    4    0    0 -0.12375670538E+03  0.25803866275E+03  0.50726632794E+03  0.58966410864E+03  0.92113842365E+02 0.  0.
         23    2    4    4    0    0  0.65091982869E+03 -0.22978332338E+03  0.73251257158E+03  0.10103755363E+04  0.88244306603E+02 0.  0.
          4    1    3    3  502    0 -0.52051712061E+03 -0.37365628288E+02  0.55354230887E+03  0.76075183255E+03  0.00000000000E+00 0. -1.
         -3    1    3    3    0  502 -0.66460027065E+01  0.91102889201E+01  0.61652927086E+01  0.12852141859E+02  0.00000000000E+00 0.  1.
         11    1    5    5    0    0 -0.99686975810E+02  0.14956707181E+03  0.23700714539E+03  0.29745619692E+03  0.00000000000E+00 0. -1.
        -11    1    5    5    0    0 -0.24069729568E+02  0.10847159093E+03  0.27025918254E+03  0.29220791172E+03  0.00000000000E+00 0.  1.
          3    1    6    6  503    0  0.53514431510E+03 -0.22344668068E+03  0.60661100572E+03  0.83921675946E+03  0.00000000000E+00 0. -1.
         -3    1    6    6    0  503  0.11577551359E+03 -0.63366426922E+01  0.12590156586E+03  0.17115877680E+03  0.00000000000E+00 0.  1.
<mgrwt>
<rscale>  0 0.15479123E+04</rscale>
<asrwt>0</asrwt>
<pdfrwt beam="1">  1        2 0.32101000E+00 0.15479123E+04</pdfrwt>
<pdfrwt beam="2">  1       -1 0.44165933E-01 0.15479123E+04</pdfrwt>
<totfact> 0.33264450E+01</totfact>
</mgrwt>
</event>
<event>
12    6  0.1586493E-007  0.1715367E+04  0.7818608E-02  0.8752648E-01
          2   -1    0    0  501    0  0.00000000000E+00  0.00000000000E+00  0.96862761288E+03  0.96862761288E+03  0.00000000000E+00 0. -1.
         -1   -1    0    0    0  501 -0.00000000000E+00 -0.00000000000E+00 -0.75944622353E+03  0.75944622353E+03  0.00000000000E+00 0.  1.
         24    2    1    2    0    0 -0.27246243747E+02 -0.28060915056E+03  0.54939890353E+03  0.62269566754E+03  0.80167861362E+02 0.  0.
        254    2    1    2    0    0  0.27246243747E+02  0.28060915056E+03 -0.34021751418E+03  0.11053781689E+04  0.10132270654E+04 0.  0.
         23    2    4    4    0    0  0.42376093084E+03  0.43720232197E+03 -0.18991398527E+03  0.64424510295E+03  0.90913332571E+02 0.  0.
         23    2    4    4    0    0 -0.39651468709E+03 -0.15659317141E+03 -0.15030352891E+03  0.46113306593E+03  0.91144035882E+02 0.  0.
          2    1    3    3  502    0 -0.68186544851E+01 -0.26045730667E+02  0.12093717585E+03  0.12389783952E+03  0.00000000000E+00 0. -1.
         -1    1    3    3    0  502 -0.20427589262E+02 -0.25456341989E+03  0.42846172768E+03  0.49879782802E+03  0.00000000000E+00 0.  1.
         11    1    5    5    0    0  0.39453936811E+02  0.87249339794E+02 -0.25489262830E+02  0.99089671227E+02  0.00000000000E+00 0. -1.
        -11    1    5    5    0    0  0.38430699403E+03  0.34995298217E+03 -0.16442472244E+03  0.54515543173E+03  0.00000000000E+00 0.  1.
          1    1    6    6  503    0 -0.13252472553E+02 -0.29067917506E+02 -0.87051111927E+01  0.33111188710E+02  0.00000000000E+00 0. -1.
         -1    1    6    6    0  503 -0.38326221454E+03 -0.12752525390E+03 -0.14159841772E+03  0.42802187722E+03  0.00000000000E+00 0.  1.
<mgrwt>
<rscale>  0 0.17153665E+04</rscale>
<asrwt>0</asrwt>
<pdfrwt beam="1">  1        2 0.14901963E+00 0.17153665E+04</pdfrwt>
<pdfrwt beam="2">  1       -1 0.11683788E+00 0.17153665E+04</pdfrwt>
<totfact> 0.18914915E+01</totfact>
</mgrwt>
</event>
<event>
12    6  0.1586493E-007  0.1151744E+04  0.7818608E-02  0.9156176E-01
          2   -1    0    0  501    0  0.00000000000E+00  0.00000000000E+00  0.60603925103E+03  0.60603925103E+03  0.00000000000E+00 0. -1.
         -1   -1    0    0    0  501 -0.00000000000E+00 -0.00000000000E+00 -0.54720684750E+03  0.54720684750E+03  0.00000000000E+00 0.  1.
         24    2    1    2    0    0 -0.62290344827E+02 -0.45624280150E+02 -0.18710457031E+03  0.21669760296E+03  0.77382613665E+02 0.  0.
        254    2    1    2    0    0  0.62290344827E+02  0.45624280150E+02  0.24593697384E+03  0.93654849558E+03  0.90037571462E+03 0.  0.
         23    2    4    4    0    0  0.33896311780E+01  0.45659944098E+03  0.52071511552E+02  0.47009796680E+03  0.98924804599E+02 0.  0.
         23    2    4    4    0    0  0.58900713649E+02 -0.41097516083E+03  0.19386546229E+03  0.46645052878E+03  0.87306365421E+02 0.  0.
          4    1    3    3  502    0 -0.32081077057E+02  0.15030923387E+02 -0.33271571796E+02  0.48601663066E+02  0.00000000000E+00 0. -1.
         -3    1    3    3    0  502 -0.30209267770E+02 -0.60655203537E+02 -0.15383299852E+03  0.16809593989E+03  0.00000000000E+00 0.  1.
         11    1    5    5    0    0 -0.27983043725E+01  0.26187369562E+03 -0.19332237352E+02  0.26260121547E+03  0.00000000000E+00 0. -1.
        -11    1    5    5    0    0  0.61879355505E+01  0.19472574537E+03  0.71403748904E+02  0.20749675133E+03  0.00000000000E+00 0.  1.
          4    1    6    6  503    0  0.10860838517E+02 -0.27192326033E+03  0.15927138286E+03  0.31532140860E+03  0.00000000000E+00 0. -1.
         -4    1    6    6    0  503  0.48039875132E+02 -0.13905190051E+03  0.34594079428E+02  0.15112912019E+03  0.00000000000E+00 0.  1.
<mgrwt>
<rscale>  0 0.11517445E+04</rscale>
<asrwt>0</asrwt>
<pdfrwt beam="1">  1        2 0.93236808E-01 0.11517445E+04</pdfrwt>
<pdfrwt beam="2">  1       -1 0.84185668E-01 0.11517445E+04</pdfrwt>
<totfact> 0.77518785E+01</totfact>
</mgrwt>
</event>
<event>
12    6  0.1586493E-007  0.3183508E+04  0.7818608E-02  0.8193186E-01
         -1   -1    0    0    0  501 -0.00000000000E+00  0.00000000000E+00  0.24613694332E+04  0.24613694332E+04  0.00000000000E+00 0.  1.
          2   -1    0    0  501    0  0.00000000000E+00 -0.00000000000E+00 -0.10293787906E+04  0.10293787906E+04  0.00000000000E+00 0. -1.
         24    2    1    2    0    0  0.27102277942E+03  0.11000535623E+04 -0.36885345180E+03  0.11941630948E+04  0.80009006966E+02 0.  0.
        254    2    1    2    0    0 -0.27102277942E+03 -0.11000535623E+04  0.18008440944E+04  0.22965851290E+04  0.86469220841E+03 0.  0.
         23    2    4    4    0    0  0.12248719383E+02 -0.98236285160E+03  0.88171554405E+03  0.13233478095E+04  0.92953326721E+02 0.  0.
         23    2    4    4    0    0 -0.28327149880E+03 -0.11769071072E+03  0.91912855036E+03  0.97323731947E+03  0.91102922541E+02 0.  0.
          2    1    3    3  502    0  0.15732162651E+03  0.74721207287E+03 -0.27660209460E+03  0.81214819753E+03  0.00000000000E+00 0. -1.
         -1    1    3    3    0  502  0.11370115291E+03  0.35284148945E+03 -0.92251357194E+02  0.38201489729E+03  0.00000000000E+00 0.  1.
         11    1    5    5    0    0 -0.14763864637E+02 -0.51206088354E+03  0.40375777547E+03  0.65226119109E+03  0.00000000000E+00 0. -1.
        -11    1    5    5    0    0  0.27012584020E+02 -0.47030196806E+03  0.47795776858E+03  0.67108661840E+03  0.00000000000E+00 0.  1.
          3    1    6    6  503    0 -0.28523040935E+03 -0.12382901159E+03  0.91235437283E+03  0.96388822596E+03  0.00000000000E+00 0. -1.
         -3    1    6    6    0  503  0.19589105415E+01  0.61383008766E+01  0.67741775280E+01  0.93490935038E+01  0.00000000000E+00 0.  1.
<mgrwt>
<rscale>  0 0.31835084E+04</rscale>
<asrwt>0</asrwt>
<pdfrwt beam="1">  1        2 0.15836597E+00 0.31835084E+04</pdfrwt>
<pdfrwt beam="2">  1       -1 0.37867222E+00 0.31835084E+04</pdfrwt>
<totfact> 0.23135673E-01</totfact>
</mgrwt>
</event>
<event>
12    6  0.1586493E-007  0.2085378E+04  0.7818608E-02  0.8567712E-01
         -1   -1    0    0    0  501 -0.00000000000E+00  0.00000000000E+00  0.46698296946E+03  0.46698296946E+03  0.00000000000E+00 0.  1.
          2   -1    0    0  501    0  0.00000000000E+00 -0.00000000000E+00 -0.23281368508E+04  0.23281368508E+04  0.00000000000E+00 0. -1.
         24    2    1    2    0    0  0.47506775614E+03  0.60608880073E+03 -0.27735287739E+03  0.82242546121E+03  0.80162418601E+02 0.  0.
        254    2    1    2    0    0 -0.47506775614E+03 -0.60608880073E+03 -0.15838010039E+04  0.19726943590E+04  0.88885567264E+03 0.  0.
         23    2    4    4    0    0 -0.60472006903E+03 -0.55664683061E+03 -0.16041505879E+04  0.18047348920E+04  0.90702071162E+02 0.  0.
         23    2    4    4    0    0  0.12965231289E+03 -0.49441970120E+02  0.20349584000E+02  0.16795946703E+03  0.92423191619E+02 0.  0.
          2    1    3    3  502    0  0.15719602949E+03  0.16490179684E+03 -0.11332757606E+03  0.25445300899E+03  0.00000000000E+00 0. -1.
         -1    1    3    3    0  502  0.31787172665E+03  0.44118700389E+03 -0.16402530133E+03  0.56797245222E+03  0.00000000000E+00 0.  1.
         11    1    5    5    0    0 -0.14255677396E+02 -0.65377524505E+01 -0.12031539034E+02  0.19766751799E+02  0.00000000000E+00 0.  1.
        -11    1    5    5    0    0 -0.59046439163E+03 -0.55010907816E+03 -0.15921190489E+04  0.17849681402E+04  0.00000000000E+00 0. -1.
          2    1    6    6  503    0  0.11750802611E+03 -0.57769139790E+01 -0.14679790535E+01  0.11765910037E+03  0.00000000000E+00 0. -1.
         -2    1    6    6    0  503  0.12144286777E+02 -0.43665056141E+02  0.21817563053E+02  0.50300366666E+02  0.00000000000E+00 0.  1.
<mgrwt>
<rscale>  0 0.20853779E+04</rscale>
<asrwt>0</asrwt>
<pdfrwt beam="1">  1        2 0.35817489E+00 0.20853779E+04</pdfrwt>
<pdfrwt beam="2">  1       -1 0.71843535E-01 0.20853779E+04</pdfrwt>
<totfact> 0.89742032E+00</totfact>
</mgrwt>
</event>
<event>
12    6  0.1586493E-007  0.1179447E+04  0.7818608E-02  0.9131040E-01
         -1   -1    0    0    0  501 -0.00000000000E+00  0.00000000000E+00  0.33096724570E+03  0.33096724570E+03  0.00000000000E+00 0.  1.
          2   -1    0    0  501    0  0.00000000000E+00 -0.00000000000E+00 -0.10507794121E+04  0.10507794121E+04  0.00000000000E+00 0. -1.
         24    2    1    2    0    0 -0.12554805809E+03 -0.69685037794E+02  0.69522489367E+02  0.17839505721E+03  0.79831701267E+02 0.  0.
        254    2    1    2    0    0  0.12554805809E+03  0.69685037794E+02 -0.78933465575E+03  0.12033516006E+04  0.89687655585E+03 0.  0.
         23    2    4    4    0    0 -0.30282241504E+03  0.25775010993E+03 -0.22706058703E+03  0.46647321649E+03  0.88905665205E+02 0.  0.
         23    2    4    4    0    0  0.42837047312E+03 -0.18806507214E+03 -0.56227406872E+03  0.73687838408E+03  0.89263043645E+02 0.  0.
          2    1    3    3  502    0  0.94042499083E+01 -0.16952098840E+02  0.90003949958E+01  0.21373363832E+02  0.00000000000E+00 0. -1.
         -1    1    3    3    0  502 -0.13495230799E+03 -0.52732938954E+02  0.60522094372E+02  0.15702169338E+03  0.00000000000E+00 0.  1.
         11    1    5    5    0    0 -0.35449163420E+02  0.34603840796E+02  0.21002471549E+01  0.49583061857E+02  0.00000000000E+00 0.  1.
        -11    1    5    5    0    0 -0.26737325162E+03  0.22314626913E+03 -0.22916083418E+03  0.41689015463E+03  0.00000000000E+00 0. -1.
          4    1    6    6  503    0  0.19145781989E+03 -0.12488332500E+03 -0.23374546978E+03  0.32693865832E+03  0.00000000000E+00 0. -1.
         -4    1    6    6    0  503  0.23691265323E+03 -0.63181747140E+02 -0.32852859894E+03  0.40993972576E+03  0.00000000000E+00 0.  1.
<mgrwt>
<rscale>  0 0.11794466E+04</rscale>
<asrwt>0</asrwt>
<pdfrwt beam="1">  1        2 0.16165837E+00 0.11794466E+04</pdfrwt>
<pdfrwt beam="2">  1       -1 0.50918040E-01 0.11794466E+04</pdfrwt>
<totfact> 0.10211380E+02</totfact>
</mgrwt>
</event>
<event>
12    6  0.1586493E-007  0.2441187E+04  0.7818608E-02  0.8424243E-01
          2   -1    0    0  501    0  0.00000000000E+00  0.00000000000E+00  0.96320345550E+03  0.96320345550E+03  0.00000000000E+00 0. -1.
         -1   -1    0    0    0  501 -0.00000000000E+00 -0.00000000000E+00 -0.15467638241E+04  0.15467638241E+04  0.00000000000E+00 0.  1.
         24    2    1    2    0    0 -0.23176962557E+03  0.10266132226E+04 -0.32740590853E+03  0.11050581013E+04  0.79416057110E+02 0.  0.
        254    2    1    2    0    0  0.23176962557E+03 -0.10266132226E+04 -0.25615446011E+03  0.14049091783E+04  0.89470823391E+03 0.  0.
         23    2    4    4    0    0  0.65102227552E+02 -0.77113283705E+03 -0.56408562026E+03  0.96187585126E+03  0.90157716513E+02 0.  0.
         23    2    4    4    0    0  0.16666739802E+03 -0.25548038554E+03  0.30793116015E+03  0.44303332708E+03  0.91698858000E+02 0.  0.
          4    1    3    3  502    0 -0.84926240048E+02  0.30895977984E+03 -0.64942875508E+02  0.32693453303E+03  0.00000000000E+00 0. -1.
         -3    1    3    3    0  502 -0.14684338552E+03  0.71765344275E+03 -0.26246303302E+03  0.77812356825E+03  0.00000000000E+00 0.  1.
         11    1    5    5    0    0  0.58801307064E+02 -0.26908533725E+03 -0.22952350378E+03  0.35853249674E+03  0.00000000000E+00 0.  1.
        -11    1    5    5    0    0  0.63009204881E+01 -0.50204749980E+03 -0.33456211648E+03  0.60334335452E+03  0.00000000000E+00 0. -1.
          1    1    6    6  503    0  0.10592524138E+03 -0.22525339808E+03  0.22187743203E+03  0.33344991370E+03  0.00000000000E+00 0. -1.
         -1    1    6    6    0  503  0.60742156642E+02 -0.30226987465E+02  0.86053728121E+02  0.10958341338E+03  0.00000000000E+00 0.  1.
<mgrwt>
<rscale>  0 0.24411868E+04</rscale>
<asrwt>0</asrwt>
<pdfrwt beam="1">  1        2 0.14818515E+00 0.24411868E+04</pdfrwt>
<pdfrwt beam="2">  1       -1 0.23796367E+00 0.24411868E+04</pdfrwt>
<totfact> 0.22738312E+00</totfact>
</mgrwt>
</event>
<event>
12    6  0.1586493E-007  0.2136327E+04  0.7818608E-02  0.8545408E-01
         -1   -1    0    0    0  501 -0.00000000000E+00  0.00000000000E+00  0.58360427536E+03  0.58360427536E+03  0.00000000000E+00 0.  1.
          2   -1    0    0  501    0  0.00000000000E+00 -0.00000000000E+00 -0.19550464322E+04  0.19550464322E+04  0.00000000000E+00 0. -1.
         24    2    1    2    0    0 -0.23433014001E+03  0.82636696232E+03 -0.78013568858E+03  0.11631175122E+04  0.80235177611E+02 0.  0.
        254    2    1    2    0    0  0.23433014001E+03 -0.82636696232E+03 -0.59130646828E+03  0.13755331953E+04  0.89702578622E+03 0.  0.
         23    2    4    4    0    0 -0.90481885435E+02 -0.87944374965E+03 -0.34107896742E+03  0.95213221984E+03  0.92804211417E+02 0.  0.
         23    2    4    4    0    0  0.32481202545E+03  0.53076787334E+02 -0.25022750086E+03  0.42340097550E+03  0.91293957292E+02 0.  0.
          4    1    3    3  502    0 -0.80422972554E+02  0.20748524050E+03 -0.16462667373E+03  0.27680303691E+03  0.00000000000E+00 0. -1.
         -3    1    3    3    0  502 -0.15390716746E+03  0.61888172182E+03 -0.61550901485E+03  0.88631447532E+03  0.00000000000E+00 0.  1.
         11    1    5    5    0    0 -0.93900110303E+02 -0.46540477839E+03 -0.18958119348E+03  0.51123367200E+03  0.00000000000E+00 0.  1.
        -11    1    5    5    0    0  0.34182248681E+01 -0.41403897126E+03 -0.15149777394E+03  0.44089854784E+03  0.00000000000E+00 0. -1.
          2    1    6    6  503    0  0.28598824493E+03  0.76166910422E+02 -0.20975201052E+03  0.36274864631E+03  0.00000000000E+00 0. -1.
         -2    1    6    6    0  503  0.38823780515E+02 -0.23090123088E+02 -0.40475490348E+02  0.60652329193E+02  0.00000000000E+00 0.  1.
<mgrwt>
<rscale>  0 0.21363272E+04</rscale>
<asrwt>0</asrwt>
<pdfrwt beam="1">  1        2 0.30077638E+00 0.21363272E+04</pdfrwt>
<pdfrwt beam="2">  1       -1 0.89785270E-01 0.21363272E+04</pdfrwt>
<totfact> 0.89886845E+00</totfact>
</mgrwt>
</event>
<event>
12    6  0.1586493E-007  0.1396168E+04  0.7818608E-02  0.8956597E-01
          2   -1    0    0  501    0  0.00000000000E+00  0.00000000000E+00  0.16304172403E+04  0.16304172403E+04  0.00000000000E+00 0. -1.
         -1   -1    0    0    0  501 -0.00000000000E+00 -0.00000000000E+00 -0.29889363231E+03  0.29889363231E+03  0.00000000000E+00 0.  1.
         24    2    1    2    0    0 -0.62397195708E+02  0.88600997486E+02 -0.13888416392E+03  0.19547015829E+03  0.84712602405E+02 0.  0.
        254    2    1    2    0    0  0.62397195708E+02 -0.88600997486E+02  0.14704077720E+04  0.17338407144E+04  0.91233823781E+03 0.  0.
         23    2    4    4    0    0 -0.13584468975E+03 -0.38551769954E+03  0.32327158418E+03  0.52896549426E+03  0.90676902145E+02 0.  0.
         23    2    4    4    0    0  0.19824188546E+03  0.29691670206E+03  0.11471361878E+04  0.12048752201E+04  0.91342704170E+02 0.  0.
          4    1    3    3  502    0 -0.14531329854E+02 -0.15307182322E+02 -0.10716747032E+02  0.23671038103E+02  0.00000000000E+00 0. -1.
         -3    1    3    3    0  502 -0.47865865854E+02  0.10390817981E+03 -0.12816741689E+03  0.17179912019E+03  0.00000000000E+00 0.  1.
         11    1    5    5    0    0 -0.14945938635E+03 -0.35720532353E+03  0.30132941441E+03  0.49064566371E+03  0.00000000000E+00 0. -1.
        -11    1    5    5    0    0  0.13614696603E+02 -0.28312376019E+02  0.21942169771E+02  0.38319830554E+02  0.00000000000E+00 0.  1.
          4    1    6    6  503    0  0.18641843438E+03  0.27676350381E+03  0.11219407402E+04  0.11705130902E+04  0.00000000000E+00 0. -1.
         -4    1    6    6    0  503  0.11823451081E+02  0.20153198247E+02  0.25195447534E+02  0.34362129903E+02  0.00000000000E+00 0.  1.
<mgrwt>
<rscale>  0 0.13961681E+04</rscale>
<asrwt>0</asrwt>
<pdfrwt beam="1">  1        2 0.25083342E+00 0.13961681E+04</pdfrwt>
<pdfrwt beam="2">  1       -1 0.45983637E-01 0.13961681E+04</pdfrwt>
<totfact> 0.55934358E+01</totfact>
</mgrwt>
</event>
<event>
12    6  0.1586493E-007  0.1946769E+04  0.7818608E-02  0.8631921E-01
          2   -1    0    0  501    0  0.00000000000E+00  0.00000000000E+00  0.31526849755E+04  0.31526849755E+04  0.00000000000E+00 0. -1.
         -1   -1    0    0    0  501 -0.00000000000E+00 -0.00000000000E+00 -0.30053022002E+03  0.30053022002E+03  0.00000000000E+00 0.  1.
         24    2    1    2    0    0 -0.39130968875E+02  0.54320737279E+03  0.21100762407E+04  0.21806367728E+04  0.78418816334E+02 0.  0.
        254    2    1    2    0    0  0.39130968875E+02 -0.54320737279E+03  0.74207851476E+03  0.12725784227E+04  0.87873194847E+03 0.  0.
         23    2    4    4    0    0  0.12723930820E+03  0.76815798002E+02 -0.11334255062E+03  0.20859070950E+03  0.92590722737E+02 0.  0.
         23    2    4    4    0    0 -0.88108339321E+02 -0.62002317079E+03  0.85542106538E+03  0.10639877132E+04  0.90182276261E+02 0.  0.
          4    1    3    3  502    0 -0.29217241630E+01  0.33880322472E+03  0.14296178066E+04  0.14692185796E+04  0.00000000000E+00 0. -1.
         -3    1    3    3    0  502 -0.36209244712E+02  0.20440414807E+03  0.68045843411E+03  0.71141819326E+03  0.00000000000E+00 0.  1.
         11    1    5    5    0    0  0.13709729086E+03  0.49670511252E+02 -0.89101845705E+02  0.17088582667E+03  0.00000000000E+00 0.  1.
        -11    1    5    5    0    0 -0.98579826590E+01  0.27145286750E+02 -0.24240704915E+02  0.37704882835E+02  0.00000000000E+00 0. -1.
          3    1    6    6  503    0  0.77066700608E+01 -0.29665501869E+01  0.11537690627E+02  0.14188427977E+02  0.00000000000E+00 0. -1.
         -3    1    6    6    0  503 -0.95815009382E+02 -0.61705662060E+03  0.84388337475E+03  0.10497992852E+04  0.00000000000E+00 0.  1.
<mgrwt>
<rscale>  0 0.19467687E+04</rscale>
<asrwt>0</asrwt>
<pdfrwt beam="1">  1        2 0.48502844E+00 0.19467687E+04</pdfrwt>
<pdfrwt beam="2">  1       -1 0.46235421E-01 0.19467687E+04</pdfrwt>
<totfact> 0.69066742E+00</totfact>
</mgrwt>
</event>
<event>
12    6  0.1586493E-007  0.4123765E+04  0.7818608E-02  0.7980034E-01
         -1   -1    0    0    0  501 -0.00000000000E+00  0.00000000000E+00  0.15422355479E+04  0.15422355479E+04  0.00000000000E+00 0.  1.
          2   -1    0    0  501    0  0.00000000000E+00 -0.00000000000E+00 -0.27566212313E+04  0.27566212313E+04  0.00000000000E+00 0. -1.
         24    2    1    2    0    0  0.20170612703E+03 -0.18949074363E+04 -0.96138647670E+02  0.19096734067E+04  0.79059009754E+02 0.  0.
        254    2    1    2    0    0 -0.20170612703E+03  0.18949074363E+04 -0.11182470358E+04  0.23891833724E+04  0.90904411347E+03 0.  0.
         23    2    4    4    0    0  0.26758548587E+03  0.13084394195E+04 -0.85321050990E+03  0.15874081049E+04  0.90997859256E+02 0.  0.
         23    2    4    4    0    0 -0.46929161290E+03  0.58646801677E+03 -0.26503652587E+03  0.80177526755E+03  0.91759833168E+02 0.  0.
          2    1    3    3  502    0  0.66373278961E+02 -0.73906196650E+03 -0.74055760607E+02  0.74572264158E+03  0.00000000000E+00 0. -1.
         -1    1    3    3    0  502  0.13533284807E+03 -0.11558454698E+04 -0.22082887063E+02  0.11639507652E+04  0.00000000000E+00 0.  1.
         11    1    5    5    0    0  0.13040027627E+03  0.54130361650E+03 -0.30779544013E+03  0.63620112406E+03  0.00000000000E+00 0. -1.
        -11    1    5    5    0    0  0.13718520960E+03  0.76713580304E+03 -0.54541506977E+03  0.95120698082E+03  0.00000000000E+00 0.  1.
          1    1    6    6  503    0 -0.31767171147E+03  0.38015125449E+03 -0.21889365632E+03  0.54161307715E+03  0.00000000000E+00 0. -1.
         -1    1    6    6    0  503 -0.15161990143E+03  0.20631676228E+03 -0.46142869551E+02  0.26016219040E+03  0.00000000000E+00 0.  1.
<mgrwt>
<rscale>  0 0.41237649E+04</rscale>
<asrwt>0</asrwt>
<pdfrwt beam="1">  1        2 0.42409557E+00 0.41237649E+04</pdfrwt>
<pdfrwt beam="2">  1       -1 0.23726701E+00 0.41237649E+04</pdfrwt>
<totfact> 0.18414407E-01</totfact>
</mgrwt>
</event>
<event>
12    6  0.1586493E-007  0.1982220E+04  0.7818608E-02  0.8614979E-01
          2   -1    0    0  501    0  0.00000000000E+00  0.00000000000E+00  0.14120382344E+04  0.14120382344E+04  0.00000000000E+00 0. -1.
         -1   -1    0    0    0  501 -0.00000000000E+00 -0.00000000000E+00 -0.69566054905E+03  0.69566054905E+03  0.00000000000E+00 0.  1.
         24    2    1    2    0    0  0.42508619985E+03 -0.58783013262E+03  0.65799477391E+03  0.98268071231E+03  0.80384810399E+02 0.  0.
        254    2    1    2    0    0 -0.42508619985E+03  0.58783013262E+03  0.58382911442E+02  0.11250180711E+04  0.85791290577E+03 0.  0.
         23    2    4    4    0    0 -0.60635862617E+03  0.16818952477E+03 -0.74712408549E+02  0.63989493695E+03  0.89022955300E+02 0.  0.
         23    2    4    4    0    0  0.18127242632E+03  0.41964060785E+03  0.13309531999E+03  0.48512313417E+03  0.93124426441E+02 0.  0.
          2    1    3    3  502    0  0.26722968770E+03 -0.31964230204E+03  0.41268468018E+03  0.58642267393E+03  0.00000000000E+00 0. -1.
         -1    1    3    3    0  502  0.15785651215E+03 -0.26818783058E+03  0.24531009373E+03  0.39625803839E+03  0.00000000000E+00 0.  1.
         11    1    5    5    0    0 -0.30806840211E+03  0.11309214027E+03 -0.29416989699E+01  0.32818382983E+03  0.00000000000E+00 0. -1.
        -11    1    5    5    0    0 -0.29829022406E+03  0.55097384500E+02 -0.71770709579E+02  0.31171110712E+03  0.00000000000E+00 0.  1.
          2    1    6    6  503    0  0.17571463271E+03  0.36811728165E+03  0.89981028416E+02  0.41771108517E+03  0.00000000000E+00 0. -1.
         -2    1    6    6    0  503  0.55577936169E+01  0.51523326203E+02  0.43114291575E+02  0.67412049004E+02  0.00000000000E+00 0.  1.
<mgrwt>
<rscale>  0 0.19822203E+04</rscale>
<asrwt>0</asrwt>
<pdfrwt beam="1">  1        2 0.21723665E+00 0.19822203E+04</pdfrwt>
<pdfrwt beam="2">  1       -1 0.10702470E+00 0.19822203E+04</pdfrwt>
<totfact> 0.12295248E+01</totfact>
</mgrwt>
</event>
<event>
12    6  0.1586493E-007  0.1678131E+04  0.7818608E-02  0.8773936E-01
          2   -1    0    0  501    0  0.00000000000E+00  0.00000000000E+00  0.19566962229E+04  0.19566962229E+04  0.00000000000E+00 0. -1.
         -1   -1    0    0    0  501 -0.00000000000E+00 -0.00000000000E+00 -0.35980605459E+03  0.35980605459E+03  0.00000000000E+00 0.  1.
         24    2    1    2    0    0 -0.34995826111E+03 -0.19557656730E+03  0.11773184453E+04  0.12464464131E+04  0.82637526635E+02 0.  0.
        254    2    1    2    0    0  0.34995826111E+03  0.19557656730E+03  0.41957172295E+03  0.10700558644E+04  0.89903178141E+03 0.  0.
         23    2    4    4    0    0  0.53037389298E+03  0.27010119559E+03  0.38266917735E+01  0.60194633503E+03  0.89853349828E+02 0.  0.
         23    2    4    4    0    0 -0.18041563187E+03 -0.74524628288E+02  0.41574503118E+03  0.46810952934E+03  0.90437160849E+02 0.  0.
          2    1    3    3  502    0 -0.22731914860E+03 -0.14650285567E+03  0.67786618095E+03  0.72982165034E+03  0.00000000000E+00 0. -1.
         -1    1    3    3    0  502 -0.12263911251E+03 -0.49073711629E+02  0.49945226438E+03  0.51662476275E+03  0.00000000000E+00 0.  1.
         11    1    5    5    0    0  0.39869496514E+03  0.16773903420E+03  0.27851839123E+02  0.43343948109E+03  0.00000000000E+00 0.  1.
        -11    1    5    5    0    0  0.13167892784E+03  0.10236216139E+03 -0.24025147349E+02  0.16850685394E+03  0.00000000000E+00 0. -1.
          1    1    6    6  503    0 -0.13206696777E+03 -0.70653920260E+02  0.37818118455E+03  0.40676119379E+03  0.00000000000E+00 0. -1.
         -1    1    6    6    0  503 -0.48348664104E+02 -0.38707080275E+01  0.37563846627E+02  0.61348335549E+02  0.00000000000E+00 0.  1.
<mgrwt>
<rscale>  0 0.16781313E+04</rscale>
<asrwt>0</asrwt>
<pdfrwt beam="1">  1        2 0.30103018E+00 0.16781313E+04</pdfrwt>
<pdfrwt beam="2">  1       -1 0.55354779E-01 0.16781313E+04</pdfrwt>
<totfact> 0.25300371E+01</totfact>
</mgrwt>
</event>
<event>
12    6  0.1586493E-007  0.2328593E+04  0.7818608E-02  0.8466732E-01
          2   -1    0    0  501    0  0.00000000000E+00  0.00000000000E+00  0.89383646688E+03  0.89383646688E+03  0.00000000000E+00 0. -1.
         -1   -1    0    0    0  501 -0.00000000000E+00 -0.00000000000E+00 -0.15165931977E+04  0.15165931977E+04  0.00000000000E+00 0.  1.
         24    2    1    2    0    0  0.21240534300E+02 -0.38757058934E+03  0.67832073851E+03  0.78560218615E+03  0.79935277480E+02 0.  0.
        254    2    1    2    0    0 -0.21240534300E+02  0.38757058934E+03 -0.13010774693E+04  0.16248274784E+04  0.89252430296E+03 0.  0.
         23    2    4    4    0    0  0.27938095794E+03  0.20278609205E+03 -0.10170066928E+03  0.37135693708E+03  0.91580728319E+02 0.  0.
         23    2    4    4    0    0 -0.30062149224E+03  0.18478449729E+03 -0.11993768000E+04  0.12534705413E+04  0.90360928883E+02 0.  0.
          2    1    3    3  502    0  0.13706150417E+02 -0.31416646476E+03  0.47840508023E+03  0.57250314141E+03  0.00000000000E+00 0. -1.
         -1    1    3    3    0  502  0.75343838832E+01 -0.73404124579E+02  0.19991565827E+03  0.21309904474E+03  0.00000000000E+00 0.  1.
         11    1    5    5    0    0  0.10481528535E+03  0.11273109040E+03 -0.80728014029E+02  0.17381471466E+03  0.00000000000E+00 0.  1.
        -11    1    5    5    0    0  0.17456567259E+03  0.90055001651E+02 -0.20972655256E+02  0.19754222242E+03  0.00000000000E+00 0. -1.
          3    1    6    6  503    0 -0.14604384837E+03  0.11746052749E+03 -0.49761716387E+03  0.53174112399E+03  0.00000000000E+00 0. -1.
         -3    1    6    6    0  503 -0.15457764387E+03  0.67323969799E+02 -0.70175963613E+03  0.72172941730E+03  0.00000000000E+00 0.  1.
<mgrwt>
<rscale>  0 0.23285930E+04</rscale>
<asrwt>0</asrwt>
<pdfrwt beam="1">  1        2 0.13751330E+00 0.23285930E+04</pdfrwt>
<pdfrwt beam="2">  1       -1 0.23332203E+00 0.23285930E+04</pdfrwt>
<totfact> 0.27402560E+00</totfact>
</mgrwt>
</event>
<event>
12    6  0.1586493E-007  0.1537375E+04  0.7818608E-02  0.8859972E-01
          2   -1    0    0  501    0  0.00000000000E+00  0.00000000000E+00  0.39125430265E+04  0.39125430265E+04  0.00000000000E+00 0. -1.
         -1   -1    0    0    0  501 -0.00000000000E+00 -0.00000000000E+00 -0.15102209293E+03  0.15102209293E+03  0.00000000000E+00 0.  1.
         24    2    1    2    0    0  0.30907252969E+03  0.37034488044E+03  0.87856044798E+03  0.10053249799E+04  0.78285984941E+02 0.  0.
        254    2    1    2    0    0 -0.30907252969E+03 -0.37034488044E+03  0.28829604856E+04  0.30582401395E+04  0.89927216697E+03 0.  0.
         23    2    4    4    0    0 -0.28721877462E+03 -0.44083063459E+03  0.28910713714E+04  0.29399476780E+04  0.90401338486E+02 0.  0.
         23    2    4    4    0    0 -0.21853755063E+02  0.70485754155E+02 -0.81108857477E+01  0.11829246155E+03  0.92095015300E+02 0.  0.
          2    1    3    3  502    0  0.26480523213E+02  0.11618881631E+02  0.84547572238E+02  0.89356076969E+02  0.00000000000E+00 0. -1.
         -1    1    3    3    0  502  0.28259200647E+03  0.35872599881E+03  0.79401287574E+03  0.91596890296E+03  0.00000000000E+00 0.  1.
         11    1    5    5    0    0 -0.20647341012E+03 -0.35902290643E+03  0.20865348342E+04  0.21272414839E+04  0.00000000000E+00 0. -1.
        -11    1    5    5    0    0 -0.80745364498E+02 -0.81807728161E+02  0.80453653719E+03  0.81270619411E+03  0.00000000000E+00 0.  1.
          3    1    6    6  503    0 -0.55204363966E+02  0.47615664998E+02 -0.20969571619E+02  0.75858396291E+02  0.00000000000E+00 0. -1.
         -3    1    6    6    0  503  0.33350608902E+02  0.22870089157E+02  0.12858685871E+02  0.42434065260E+02  0.00000000000E+00 0.  1.
<mgrwt>
<rscale>  0 0.15373750E+04</rscale>
<asrwt>0</asrwt>
<pdfrwt beam="1">  1        2 0.60192962E+00 0.15373750E+04</pdfrwt>
<pdfrwt beam="2">  1       -1 0.23234171E-01 0.15373750E+04</pdfrwt>
<totfact> 0.71450210E+00</totfact>
</mgrwt>
</event>
<event>
12    6  0.1586493E-007  0.2832426E+04  0.7818608E-02  0.8293271E-01
         -1   -1    0    0    0  501 -0.00000000000E+00  0.00000000000E+00  0.11252540702E+04  0.11252540702E+04  0.00000000000E+00 0.  1.
          2   -1    0    0  501    0  0.00000000000E+00 -0.00000000000E+00 -0.17824059203E+04  0.17824059203E+04  0.00000000000E+00 0. -1.
         24    2    1    2    0    0 -0.30541244168E+02  0.31781688627E+03  0.96391696623E+03  0.10185919260E+04  0.80332142419E+02 0.  0.
        254    2    1    2    0    0  0.30541244168E+02 -0.31781688627E+03 -0.16210688163E+04  0.18890680645E+04  0.91584589555E+03 0.  0.
         23    2    4    4    0    0  0.24020532162E+03  0.24773677923E+03 -0.53468666882E+03  0.64308594696E+03  0.92723206599E+02 0.  0.
         23    2    4    4    0    0 -0.20966407745E+03 -0.56555366550E+03 -0.10863821475E+04  0.12459821175E+04  0.91843851066E+02 0.  0.
          2    1    3    3  502    0  0.18011699445E+02  0.71425208038E+02  0.15545105073E+03  0.17202037912E+03  0.00000000000E+00 0. -1.
         -1    1    3    3    0  502 -0.48552943613E+02  0.24639167823E+03  0.80846591550E+03  0.84657154687E+03  0.00000000000E+00 0.  1.
         11    1    5    5    0    0  0.12361300496E+03  0.63216231951E+02 -0.19746634831E+03  0.24139060813E+03  0.00000000000E+00 0.  1.
        -11    1    5    5    0    0  0.11659231666E+03  0.18452054728E+03 -0.33722032051E+03  0.40169533883E+03  0.00000000000E+00 0. -1.
          2    1    6    6  503    0 -0.21820042066E+03 -0.54365034093E+03 -0.10307170639E+04  0.11855567395E+04  0.00000000000E+00 0. -1.
         -2    1    6    6    0  503  0.85363432133E+01 -0.21903324564E+02 -0.55665083611E+02  0.60425378078E+02  0.00000000000E+00 0.  1.
<mgrwt>
<rscale>  0 0.28324262E+04</rscale>
<asrwt>0</asrwt>
<pdfrwt beam="1">  1        2 0.27421630E+00 0.28324262E+04</pdfrwt>
<pdfrwt beam="2">  1       -1 0.17311601E+00 0.28324262E+04</pdfrwt>
<totfact> 0.20350496E+00</totfact>
</mgrwt>
</event>
<event>
12    6  0.1586493E-007  0.1824959E+04  0.7818608E-02  0.8693138E-01
         -1   -1    0    0    0  501 -0.00000000000E+00  0.00000000000E+00  0.51846281966E+03  0.51846281966E+03  0.00000000000E+00 0.  1.
          2   -1    0    0  501    0  0.00000000000E+00 -0.00000000000E+00 -0.16059378943E+04  0.16059378943E+04  0.00000000000E+00 0. -1.
         24    2    1    2    0    0 -0.24255486182E+03 -0.51806502351E+03 -0.87197465413E+03  0.10459603369E+04  0.80430089453E+02 0.  0.
        254    2    1    2    0    0  0.24255486182E+03  0.51806502351E+03 -0.21550042055E+03  0.10784403771E+04  0.88846439782E+03 0.  0.
         23    2    4    4    0    0  0.53145648115E+03  0.31792451057E+03  0.50945728415E+02  0.62816831607E+03  0.92075948506E+02 0.  0.
         23    2    4    4    0    0 -0.28890161933E+03  0.20014051293E+03 -0.26644614897E+03  0.45027206106E+03  0.90724903451E+02 0.  0.
          4    1    3    3  502    0 -0.20162474649E+03 -0.39904903748E+03 -0.62106394437E+03  0.76525361529E+03  0.00000000000E+00 0. -1.
         -3    1    3    3    0  502 -0.40930115327E+02 -0.11901598602E+03 -0.25091070976E+03  0.28070672158E+03  0.00000000000E+00 0.  1.
         11    1    5    5    0    0  0.41955329209E+03  0.29188130870E+03  0.46121856458E+02  0.51317335172E+03  0.00000000000E+00 0.  1.
        -11    1    5    5    0    0  0.11190318906E+03  0.26043201871E+02  0.48238719566E+01  0.11499496435E+03  0.00000000000E+00 0. -1.
          4    1    6    6  503    0 -0.63127054658E+01  0.35203979605E+02 -0.25307502634E+02  0.43813697857E+02  0.00000000000E+00 0. -1.
         -4    1    6    6    0  503 -0.28258891386E+03  0.16493653333E+03 -0.24113864633E+03  0.40645836321E+03  0.00000000000E+00 0.  1.
<mgrwt>
<rscale>  0 0.18249593E+04</rscale>
<asrwt>0</asrwt>
<pdfrwt beam="1">  1        2 0.24706736E+00 0.18249593E+04</pdfrwt>
<pdfrwt beam="2">  1       -1 0.79763513E-01 0.18249593E+04</pdfrwt>
<totfact> 0.18646715E+01</totfact>
</mgrwt>
</event>
<event>
12    6  0.1586493E-007  0.1277296E+04  0.7818608E-02  0.9047766E-01
         -1   -1    0    0    0  501 -0.00000000000E+00  0.00000000000E+00  0.93266556371E+03  0.93266556371E+03  0.00000000000E+00 0.  1.
          2   -1    0    0  501    0  0.00000000000E+00 -0.00000000000E+00 -0.43731795913E+03  0.43731795913E+03  0.00000000000E+00 0. -1.
         24    2    1    2    0    0  0.14287389710E+03 -0.43844490398E+02  0.42535279174E+03  0.45806408247E+03  0.81008742735E+02 0.  0.
        254    2    1    2    0    0 -0.14287389710E+03  0.43844490398E+02  0.69994812837E+02  0.91191944036E+03  0.89686258818E+03 0.  0.
         23    2    4    4    0    0  0.24321298298E+03 -0.78915195777E+02  0.32617220092E+03  0.42447809782E+03  0.91723430259E+02 0.  0.
         23    2    4    4    0    0 -0.38608688008E+03  0.12275968618E+03 -0.25617738808E+03  0.48744134254E+03  0.88539193223E+02 0.  0.
          2    1    3    3  502    0 -0.57428414754E+01  0.45039818742E+00  0.71371263198E+02  0.71603353952E+02  0.00000000000E+00 0. -1.
         -1    1    3    3    0  502  0.14861673857E+03 -0.44294888586E+02  0.35398152855E+03  0.38646072852E+03  0.00000000000E+00 0.  1.
         11    1    5    5    0    0  0.29704805943E+02  0.31187967393E+01  0.51522746337E+01  0.30309211852E+02  0.00000000000E+00 0. -1.
        -11    1    5    5    0    0  0.21350817704E+03 -0.82033992516E+02  0.32101992628E+03  0.39416888596E+03  0.00000000000E+00 0.  1.
          1    1    6    6  503    0 -0.78521654798E+02 -0.72311308287E+01 -0.68216110209E+02  0.10426589671E+03  0.00000000000E+00 0. -1.
         -1    1    6    6    0  503 -0.30756522528E+03  0.12999081700E+03 -0.18796127787E+03  0.38317544583E+03  0.00000000000E+00 0.  1.
<mgrwt>
<rscale>  0 0.12772962E+04</rscale>
<asrwt>0</asrwt>
<pdfrwt beam="1">  1        2 0.67279686E-01 0.12772962E+04</pdfrwt>
<pdfrwt beam="2">  1       -1 0.14348701E+00 0.12772962E+04</pdfrwt>
<totfact> 0.31711685E+01</totfact>
</mgrwt>
</event>
<event>
12    6  0.1586493E-007  0.2169974E+04  0.7818608E-02  0.8531031E-01
          2   -1    0    0  501    0  0.00000000000E+00  0.00000000000E+00  0.14839247738E+04  0.14839247738E+04  0.00000000000E+00 0. -1.
         -1   -1    0    0    0  501 -0.00000000000E+00 -0.00000000000E+00 -0.79329934842E+03  0.79329934842E+03  0.00000000000E+00 0.  1.
         24    2    1    2    0    0 -0.44281023947E+03 -0.32808609864E+03  0.99035617666E+03  0.11360523231E+04  0.78026455730E+02 0.  0.
        254    2    1    2    0    0  0.44281023947E+03  0.32808609864E+03 -0.29973075124E+03  0.11411717992E+04  0.95326447315E+03 0.  0.
         23    2    4    4    0    0  0.48728054310E+03 -0.96331077077E+02 -0.45444940549E+03  0.67821391738E+03  0.82023481323E+02 0.  0.
         23    2    4    4    0    0 -0.44470303631E+02  0.42441717571E+03  0.15471865425E+03  0.46295788182E+03  0.91019730952E+02 0.  0.
          4    1    3    3  502    0 -0.41946564699E+03 -0.31117366049E+03  0.96667621207E+03  0.10987462742E+04  0.00000000000E+00 0. -1.
         -3    1    3    3    0  502 -0.23344592484E+02 -0.16912438142E+02  0.23679964583E+02  0.37306048904E+02  0.00000000000E+00 0.  1.
         11    1    5    5    0    0  0.71913513038E+02 -0.38976344371E+02 -0.51400453801E+02  0.96605980296E+02  0.00000000000E+00 0.  1.
        -11    1    5    5    0    0  0.41536703006E+03 -0.57354732707E+02 -0.40304895168E+03  0.58160793709E+03  0.00000000000E+00 0. -1.
          1    1    6    6  503    0 -0.72154025315E+02  0.27839636716E+03  0.96784851058E+02  0.30344364882E+03  0.00000000000E+00 0. -1.
         -1    1    6    6    0  503  0.27683721684E+02  0.14602080855E+03  0.57933803190E+02  0.15951423300E+03  0.00000000000E+00 0.  1.
<mgrwt>
<rscale>  0 0.21699738E+04</rscale>
<asrwt>0</asrwt>
<pdfrwt beam="1">  1        2 0.22829612E+00 0.21699738E+04</pdfrwt>
<pdfrwt beam="2">  1       -1 0.12204605E+00 0.21699738E+04</pdfrwt>
<totfact> 0.80360369E+00</totfact>
</mgrwt>
</event>
<event>
12    6  0.1586493E-007  0.2089220E+04  0.7818608E-02  0.8566007E-01
         -1   -1    0    0    0  501 -0.00000000000E+00  0.00000000000E+00  0.36453412879E+03  0.36453412879E+03  0.00000000000E+00 0.  1.
          2   -1    0    0  501    0  0.00000000000E+00 -0.00000000000E+00 -0.29934358814E+04  0.29934358814E+04  0.00000000000E+00 0. -1.
         24    2    1    2    0    0 -0.55533940203E+03 -0.22053022562E+03 -0.10448164183E+03  0.61200842083E+03  0.81255534124E+02 0.  0.
        254    2    1    2    0    0  0.55533940203E+03  0.22053022562E+03 -0.25244201107E+04  0.27459615893E+04  0.90031812304E+03 0.  0.
         23    2    4    4    0    0 -0.67128838170E+02 -0.25442594351E+03 -0.46677203607E+03  0.54227971744E+03  0.83380553170E+02 0.  0.
         23    2    4    4    0    0  0.62246824020E+03  0.47495616913E+03 -0.20576480747E+04  0.22036818719E+04  0.96167149387E+02 0.  0.
          2    1    3    3  502    0 -0.39476783529E+03 -0.14609195863E+03 -0.10952986966E+03  0.43494976320E+03  0.00000000000E+00 0. -1.
         -1    1    3    3    0  502 -0.16057156673E+03 -0.74438266992E+02  0.50482278367E+01  0.17705865763E+03  0.00000000000E+00 0.  1.
         11    1    5    5    0    0 -0.30766785338E+01 -0.73774884269E+02 -0.70512866776E+02  0.10209928443E+03  0.00000000000E+00 0. -1.
        -11    1    5    5    0    0 -0.64052159636E+02 -0.18065105924E+03 -0.39625916930E+03  0.44018043302E+03  0.00000000000E+00 0.  1.
          1    1    6    6  503    0  0.37539719600E+03  0.29586848392E+03 -0.13819569870E+04  0.14622812070E+04  0.00000000000E+00 0. -1.
         -1    1    6    6    0  503  0.24707104420E+03  0.17908768521E+03 -0.67569108769E+03  0.74140066487E+03  0.00000000000E+00 0.  1.
<mgrwt>
<rscale>  0 0.20892195E+04</rscale>
<asrwt>0</asrwt>
<pdfrwt beam="1">  1        2 0.46052860E+00 0.20892195E+04</pdfrwt>
<pdfrwt beam="2">  1       -1 0.56082173E-01 0.20892195E+04</pdfrwt>
<totfact> 0.59459297E+00</totfact>
</mgrwt>
</event>
<event>
12    6  0.1586493E-007  0.1899736E+04  0.7818608E-02  0.8654988E-01
          2   -1    0    0  501    0  0.00000000000E+00  0.00000000000E+00  0.13745820725E+04  0.13745820725E+04  0.00000000000E+00 0. -1.
         -1   -1    0    0    0  501 -0.00000000000E+00 -0.00000000000E+00 -0.65638083280E+03  0.65638083280E+03  0.00000000000E+00 0.  1.
         24    2    1    2    0    0 -0.48386292420E+02 -0.54245115954E+02 -0.49999399516E+03  0.51121393089E+03  0.77858346039E+02 0.  0.
        254    2    1    2    0    0  0.48386292420E+02  0.54245115954E+02  0.12181952349E+04  0.15197489744E+04  0.90573370761E+03 0.  0.
         23    2    4    4    0    0  0.27963382214E+03  0.13446631102E+02  0.19983825802E+02  0.29532628170E+03  0.91882386765E+02 0.  0.
         23    2    4    4    0    0 -0.23124752972E+03  0.40798484853E+02  0.11982114090E+04  0.12244226927E+04  0.91435295603E+02 0.  0.
          2    1    3    3  502    0 -0.26574172277E+02 -0.66385280705E+02 -0.25145878756E+03  0.26142821953E+03  0.00000000000E+00 0. -1.
         -1    1    3    3    0  502 -0.21812120144E+02  0.12140164751E+02 -0.24853520759E+03  0.24978571136E+03  0.00000000000E+00 0.  1.
         11    1    5    5    0    0  0.25486989799E+03  0.15225081445E+02  0.45921684424E+02  0.25942102673E+03  0.00000000000E+00 0. -1.
        -11    1    5    5    0    0  0.24763924143E+02 -0.17784503433E+01 -0.25937858623E+02  0.35905254971E+02  0.00000000000E+00 0.  1.
          1    1    6    6  503    0 -0.22116566105E+03  0.15173327368E+02  0.99790398543E+03  0.10222313063E+04  0.00000000000E+00 0. -1.
         -1    1    6    6    0  503 -0.10081868666E+02  0.25625157485E+02  0.20030742362E+03  0.20219138639E+03  0.00000000000E+00 0.  1.
<mgrwt>
<rscale>  0 0.18997361E+04</rscale>
<asrwt>0</asrwt>
<pdfrwt beam="1">  1        2 0.21147416E+00 0.18997361E+04</pdfrwt>
<pdfrwt beam="2">  1       -1 0.10098167E+00 0.18997361E+04</pdfrwt>
<totfact> 0.14888591E+01</totfact>
</mgrwt>
</event>
<event>
12    6  0.1586493E-007  0.1215825E+04  0.7818608E-02  0.9099117E-01
          2   -1    0    0  501    0  0.00000000000E+00  0.00000000000E+00  0.23937950365E+03  0.23937950365E+03  0.00000000000E+00 0. -1.
         -3   -1    0    0    0  501 -0.00000000000E+00 -0.00000000000E+00 -0.15438142779E+04  0.15438142779E+04  0.00000000000E+00 0.  1.
         24    2    1    2    0    0 -0.11281022783E+03  0.16505341637E+03 -0.18901649585E+03  0.29030457049E+03  0.92632230825E+02 0.  0.
        254    2    1    2    0    0  0.11281022783E+03 -0.16505341637E+03 -0.11154182784E+04  0.14928892110E+04  0.97190096354E+03 0.  0.
         23    2    4    4    0    0  0.54975276209E+02  0.22277569996E+03 -0.10573315011E+04  0.10856409240E+04  0.89526638463E+02 0.  0.
         23    2    4    4    0    0  0.57834951626E+02 -0.38782911632E+03 -0.58086777248E+02  0.40724828708E+03  0.93385162330E+02 0.  0.
          2    1    3    3  502    0 -0.71195770066E+02  0.39210972972E+02 -0.39093838497E+02  0.90192384851E+02  0.00000000000E+00 0. -1.
         -1    1    3    3    0  502 -0.41614457769E+02  0.12584244339E+03 -0.14992265735E+03  0.20011218564E+03  0.00000000000E+00 0.  1.
         11    1    5    5    0    0  0.52331235947E+02  0.23116100405E+03 -0.10044740758E+04  0.10320572353E+04  0.00000000000E+00 0.  1.
        -11    1    5    5    0    0  0.26440402623E+01 -0.83853040924E+01 -0.52857425329E+02  0.53583688620E+02  0.00000000000E+00 0. -1.
          2    1    6    6  503    0 -0.18662205545E+02 -0.59881453967E+02  0.10468027524E+02  0.63589669328E+02  0.00000000000E+00 0. -1.
         -2    1    6    6    0  503  0.76497157170E+02 -0.32794766236E+03 -0.68554804772E+02  0.34365861775E+03  0.00000000000E+00 0.  1.
<mgrwt>
<rscale>  0 0.12158248E+04</rscale>
<asrwt>0</asrwt>
<pdfrwt beam="1">  1        2 0.36827614E-01 0.12158248E+04</pdfrwt>
<pdfrwt beam="2">  1       -3 0.23750990E+00 0.12158248E+04</pdfrwt>
<totfact> 0.75037154E+00</totfact>
</mgrwt>
</event>
<event>
12    6  0.1586493E-007  0.2512660E+04  0.7818608E-02  0.8398489E-01
          2   -1    0    0  501    0  0.00000000000E+00  0.00000000000E+00  0.24221283909E+04  0.24221283909E+04  0.00000000000E+00 0. -1.
         -1   -1    0    0    0  501 -0.00000000000E+00 -0.00000000000E+00 -0.65164359584E+03  0.65164359584E+03  0.00000000000E+00 0.  1.
         24    2    1    2    0    0 -0.84295370326E+03  0.67090931513E+03  0.10203978564E+04  0.14860499821E+04  0.80265240610E+02 0.  0.
        254    2    1    2    0    0  0.84295370326E+03 -0.67090931513E+03  0.75008693862E+03  0.15877220046E+04  0.89305122673E+03 0.  0.
         23    2    4    4    0    0  0.13570660510E+03  0.31389741574E+02  0.53939427795E+03  0.56479627641E+03  0.92989505929E+02 0.  0.
         23    2    4    4    0    0  0.70724709816E+03 -0.70229905670E+03  0.21069266066E+03  0.10229257282E+04  0.92537696736E+02 0.  0.
          2    1    3    3  502    0 -0.66775479807E+02  0.27841016962E+02  0.65628713261E+02  0.97679142775E+02  0.00000000000E+00 0. -1.
         -1    1    3    3    0  502 -0.77617822346E+03  0.64306829817E+03  0.95476914316E+03  0.13883708393E+04  0.00000000000E+00 0.  1.
         11    1    5    5    0    0  0.14974829447E+03  0.28427170429E+02  0.47646853336E+03  0.50025485404E+03  0.00000000000E+00 0. -1.
        -11    1    5    5    0    0 -0.14041689366E+02  0.29625711454E+01  0.62925744592E+02  0.64541422362E+02  0.00000000000E+00 0.  1.
          3    1    6    6  503    0  0.69814955611E+03 -0.69668365119E+03  0.19738194632E+03  0.10058531430E+04  0.00000000000E+00 0. -1.
         -3    1    6    6    0  503  0.90975420545E+01 -0.56154055140E+01  0.13310714345E+02  0.17072585244E+02  0.00000000000E+00 0.  1.
<mgrwt>
<rscale>  0 0.25126595E+04</rscale>
<asrwt>0</asrwt>
<pdfrwt beam="1">  1        2 0.37263513E+00 0.25126595E+04</pdfrwt>
<pdfrwt beam="2">  1       -1 0.10025286E+00 0.25126595E+04</pdfrwt>
<totfact> 0.37068384E+00</totfact>
</mgrwt>
</event>
<event>
12    6  0.1586493E-007  0.1054464E+04  0.7818608E-02  0.9250747E-01
         -1   -1    0    0    0  501 -0.00000000000E+00  0.00000000000E+00  0.38902973003E+03  0.38902973003E+03  0.00000000000E+00 0.  1.
          2   -1    0    0  501    0  0.00000000000E+00 -0.00000000000E+00 -0.71453077821E+03  0.71453077821E+03  0.00000000000E+00 0. -1.
         24    2    1    2    0    0 -0.86705837469E+02 -0.60734114327E+02  0.13170934082E+02  0.13425123974E+03  0.81506974994E+02 0.  0.
        254    2    1    2    0    0  0.86705837469E+02  0.60734114327E+02 -0.33867198226E+03  0.96930926850E+03  0.90202838733E+03 0.  0.
         23    2    4    4    0    0 -0.17423473763E+03  0.38488964725E+03 -0.32934119450E+03  0.54337382343E+03  0.91058801006E+02 0.  0.
         23    2    4    4    0    0  0.26094057510E+03 -0.32415553292E+03 -0.93307877598E+01  0.42593544507E+03  0.90372266264E+02 0.  0.
          4    1    3    3  502    0 -0.83816430721E+02 -0.21023274520E+02 -0.11857119743E+02  0.87222493767E+02  0.00000000000E+00 0. -1.
         -3    1    3    3    0  502 -0.28894067485E+01 -0.39710839807E+02  0.25028053824E+02  0.47028745973E+02  0.00000000000E+00 0.  1.
         11    1    5    5    0    0 -0.10949214521E+02  0.12485248324E+02  0.45596454208E+01  0.17220833043E+02  0.00000000000E+00 0.  1.
        -11    1    5    5    0    0 -0.16328552311E+03  0.37240439893E+03 -0.33390083992E+03  0.52615299039E+03  0.00000000000E+00 0. -1.
          4    1    6    6  503    0  0.23823433677E+03 -0.24483945417E+03 -0.22642426253E+02  0.34236623228E+03  0.00000000000E+00 0. -1.
         -4    1    6    6    0  503  0.22706238323E+02 -0.79316078752E+02  0.13311638493E+02  0.83569212792E+02  0.00000000000E+00 0.  1.
<mgrwt>
<rscale>  0 0.10544643E+04</rscale>
<asrwt>0</asrwt>
<pdfrwt beam="1">  1        2 0.10992781E+00 0.10544643E+04</pdfrwt>
<pdfrwt beam="2">  1       -1 0.59850728E-01 0.10544643E+04</pdfrwt>
<totfact> 0.12844163E+02</totfact>
</mgrwt>
</event>
<event>
12    6  0.1586493E-007  0.1322520E+04  0.7818608E-02  0.9011895E-01
          2   -1    0    0  501    0  0.00000000000E+00  0.00000000000E+00  0.27312157956E+04  0.27312157956E+04  0.00000000000E+00 0. -1.
         -1   -1    0    0    0  501 -0.00000000000E+00 -0.00000000000E+00 -0.16009883280E+03  0.16009883280E+03  0.00000000000E+00 0.  1.
         24    2    1    2    0    0  0.19100120411E+03 -0.15331283099E+03  0.15924362470E+03  0.30444970854E+03  0.85701860568E+02 0.  0.
        254    2    1    2    0    0 -0.19100120411E+03  0.15331283099E+03  0.24118733381E+04  0.25868649199E+04  0.90263549146E+03 0.  0.
         23    2    4    4    0    0 -0.48654381568E+03 -0.75189120142E+02  0.17681265330E+04  0.18376214668E+04  0.90570029113E+02 0.  0.
         23    2    4    4    0    0  0.29554261158E+03  0.22850195113E+03  0.64374680510E+03  0.74924345306E+03  0.86007127307E+02 0.  0.
          4    1    3    3  502    0  0.11067283961E+03 -0.42306309797E+02  0.47539579157E+02  0.12766484583E+03  0.00000000000E+00 0. -1.
         -3    1    3    3    0  502  0.80328364502E+02 -0.11100652120E+03  0.11170404555E+03  0.17678486271E+03  0.00000000000E+00 0.  1.
         11    1    5    5    0    0 -0.20436489574E+03 -0.20467875448E+02  0.58245198386E+03  0.61760364153E+03  0.00000000000E+00 0. -1.
        -11    1    5    5    0    0 -0.28217891995E+03 -0.54721244695E+02  0.11856745491E+04  0.12200178253E+04  0.00000000000E+00 0.  1.
          1    1    6    6  503    0  0.14941015393E+03  0.80017245690E+02  0.35279145303E+03  0.39139233901E+03  0.00000000000E+00 0. -1.
         -1    1    6    6    0  503  0.14613245765E+03  0.14848470544E+03  0.29095535208E+03  0.35785111406E+03  0.00000000000E+00 0.  1.
<mgrwt>
<rscale>  0 0.13225195E+04</rscale>
<asrwt>0</asrwt>
<pdfrwt beam="1">  1        2 0.42018701E+00 0.13225195E+04</pdfrwt>
<pdfrwt beam="2">  1       -1 0.24630592E-01 0.13225195E+04</pdfrwt>
<totfact> 0.41034713E+01</totfact>
</mgrwt>
</event>
<event>
12    6  0.1586493E-007  0.2076739E+04  0.7818608E-02  0.8571560E-01
          2   -1    0    0  501    0  0.00000000000E+00  0.00000000000E+00  0.12430168307E+04  0.12430168307E+04  0.00000000000E+00 0. -1.
         -1   -1    0    0    0  501 -0.00000000000E+00 -0.00000000000E+00 -0.86741478647E+03  0.86741478647E+03  0.00000000000E+00 0.  1.
         24    2    1    2    0    0 -0.34406940600E+03 -0.31708629977E+03  0.86567075967E+03  0.98729612711E+03  0.80251484818E+02 0.  0.
        254    2    1    2    0    0  0.34406940600E+03  0.31708629977E+03 -0.49006871542E+03  0.11231354901E+04  0.89573350144E+03 0.  0.
         23    2    4    4    0    0  0.54709072502E+02 -0.30256003023E+03 -0.15794215213E+03  0.35745428549E+03  0.91061453376E+02 0.  0.
         23    2    4    4    0    0  0.28936033350E+03  0.61964633000E+03 -0.33212656329E+03  0.76568120459E+03  0.90932261226E+02 0.  0.
          2    1    3    3  502    0 -0.26124818407E+03 -0.24351431197E+03  0.58302728585E+03  0.68371825328E+03  0.00000000000E+00 0. -1.
         -1    1    3    3    0  502 -0.82821221927E+02 -0.73571987798E+02  0.28264347382E+03  0.30357787384E+03  0.00000000000E+00 0.  1.
         11    1    5    5    0    0 -0.64050332429E+01 -0.11818763665E+03 -0.99466694264E+02  0.15460583810E+03  0.00000000000E+00 0. -1.
        -11    1    5    5    0    0  0.61114105745E+02 -0.18437239358E+03 -0.58475457864E+02  0.20284844739E+03  0.00000000000E+00 0.  1.
          2    1    6    6  503    0  0.21676156701E+02  0.12674913877E+03 -0.72410142452E+02  0.14757516281E+03  0.00000000000E+00 0. -1.
         -2    1    6    6    0  503  0.26768417680E+03  0.49289719123E+03 -0.25971642084E+03  0.61810604177E+03  0.00000000000E+00 0.  1.
<mgrwt>
<rscale>  0 0.20767390E+04</rscale>
<asrwt>0</asrwt>
<pdfrwt beam="1">  1        2 0.19123336E+00 0.20767390E+04</pdfrwt>
<pdfrwt beam="2">  1       -1 0.13344843E+00 0.20767390E+04</pdfrwt>
<totfact> 0.89185826E+00</totfact>
</mgrwt>
</event>
<event>
12    6  0.1586493E-007  0.2471402E+04  0.7818608E-02  0.8413245E-01
         -1   -1    0    0    0  501 -0.00000000000E+00  0.00000000000E+00  0.69502847346E+03  0.69502847346E+03  0.00000000000E+00 0.  1.
          2   -1    0    0  501    0  0.00000000000E+00 -0.00000000000E+00 -0.21969712063E+04  0.21969712063E+04  0.00000000000E+00 0. -1.
         24    2    1    2    0    0 -0.15917121950E+03  0.99001589684E+03 -0.10876438106E+04  0.14813072889E+04  0.76388952849E+02 0.  0.
        254    2    1    2    0    0  0.15917121950E+03 -0.99001589684E+03 -0.41429892220E+03  0.14106923909E+04  0.90163322461E+03 0.  0.
         23    2    4    4    0    0  0.47472076756E+03 -0.80343510778E+03 -0.15492442264E+03  0.95013599988E+03  0.88820391632E+02 0.  0.
         23    2    4    4    0    0 -0.31554954807E+03 -0.18658078906E+03 -0.25937449957E+03  0.46055639103E+03  0.10224064826E+03 0.  0.
          4    1    3    3  502    0 -0.16500591593E+03  0.98129416861E+03 -0.10780143232E+04  0.14670651242E+04  0.00000000000E+00 0. -1.
         -3    1    3    3    0  502  0.58346964330E+01  0.87217282231E+01 -0.96294873942E+01  0.14242164623E+02  0.00000000000E+00 0.  1.
         11    1    5    5    0    0  0.42474111551E+03 -0.65679930021E+03 -0.13865158571E+03  0.79436427298E+03  0.00000000000E+00 0. -1.
        -11    1    5    5    0    0  0.49979652052E+02 -0.14663580757E+03 -0.16272836933E+02  0.15577172690E+03  0.00000000000E+00 0.  1.
          2    1    6    6  503    0 -0.24451706213E+03 -0.10434149942E+03 -0.21966329404E+03  0.34485896381E+03  0.00000000000E+00 0. -1.
         -2    1    6    6    0  503 -0.71032485943E+02 -0.82239289642E+02 -0.39711205524E+02  0.11569742722E+03  0.00000000000E+00 0.  1.
<mgrwt>
<rscale>  0 0.24714025E+04</rscale>
<asrwt>0</asrwt>
<pdfrwt beam="1">  1        2 0.33799556E+00 0.24714025E+04</pdfrwt>
<pdfrwt beam="2">  1       -1 0.10692746E+00 0.24714025E+04</pdfrwt>
<totfact> 0.43011119E+00</totfact>
</mgrwt>
</event>
<event>
12    6  0.1586493E-007  0.2761731E+04  0.7818608E-02  0.8315249E-01
          2   -1    0    0  501    0  0.00000000000E+00  0.00000000000E+00  0.18412163390E+04  0.18412163390E+04  0.00000000000E+00 0. -1.
         -1   -1    0    0    0  501 -0.00000000000E+00 -0.00000000000E+00 -0.10356140260E+04  0.10356140260E+04  0.00000000000E+00 0.  1.
         24    2    1    2    0    0 -0.76998437911E+03  0.85506835393E+03 -0.97348173238E+02  0.11574730653E+04  0.79053122249E+02 0.  0.
        254    2    1    2    0    0  0.76998437911E+03 -0.85506835393E+03  0.90295048624E+03  0.17193572996E+04  0.90379871051E+03 0.  0.
         23    2    4    4    0    0 -0.16537635476E+03 -0.10676354582E+02  0.61569217344E+02  0.20154994894E+03  0.96789927841E+02 0.  0.
         23    2    4    4    0    0  0.93536073387E+03 -0.84439199935E+03  0.84138126890E+03  0.15178073507E+04  0.88989679451E+02 0.  0.
          2    1    3    3  502    0 -0.44194026137E+03  0.53818318701E+03 -0.36639324273E+02  0.69734839032E+03  0.00000000000E+00 0. -1.
         -1    1    3    3    0  502 -0.32804411774E+03  0.31688516691E+03 -0.60708848965E+02  0.46012467499E+03  0.00000000000E+00 0.  1.
         11    1    5    5    0    0 -0.65375796292E+02 -0.38066523834E+02  0.62084418831E+02  0.97864855996E+02  0.00000000000E+00 0. -1.
        -11    1    5    5    0    0 -0.10000055847E+03  0.27390169252E+02 -0.51520148693E+00  0.10368509294E+03  0.00000000000E+00 0.  1.
          1    1    6    6  503    0  0.31503819006E+03 -0.22907993416E+03  0.25804076066E+03  0.46723838840E+03  0.00000000000E+00 0. -1.
         -1    1    6    6    0  503  0.62032254381E+03 -0.61531206519E+03  0.58334050824E+03  0.10505689623E+04  0.00000000000E+00 0.  1.
<mgrwt>
<rscale>  0 0.27617310E+04</rscale>
<asrwt>0</asrwt>
<pdfrwt beam="1">  1        2 0.28326405E+00 0.27617310E+04</pdfrwt>
<pdfrwt beam="2">  1       -1 0.15932523E+00 0.27617310E+04</pdfrwt>
<totfact> 0.24045989E+00</totfact>
</mgrwt>
</event>
<event>
12    6  0.1586493E-007  0.2093154E+04  0.7818608E-02  0.8564265E-01
         -1   -1    0    0    0  501 -0.00000000000E+00  0.00000000000E+00  0.74243728464E+03  0.74243728464E+03  0.00000000000E+00 0.  1.
          2   -1    0    0  501    0  0.00000000000E+00 -0.00000000000E+00 -0.14753077707E+04  0.14753077707E+04  0.00000000000E+00 0. -1.
         24    2    1    2    0    0  0.66396191986E+02  0.26108257010E+03  0.56168377828E+03  0.62808485515E+03  0.80183263681E+02 0.  0.
        254    2    1    2    0    0 -0.66396191986E+02 -0.26108257010E+03 -0.12945542644E+04  0.15896602002E+04  0.88236967651E+03 0.  0.
         23    2    4    4    0    0 -0.74493557366E+02  0.17215836151E+03 -0.10755216601E+04  0.10956181940E+04  0.91894472880E+02 0.  0.
         23    2    4    4    0    0  0.80973653797E+01 -0.43324093161E+03 -0.21903260426E+03  0.49404200621E+03  0.91317851608E+02 0.  0.
          4    1    3    3  502    0  0.53177711496E+02  0.10107129486E+03  0.30083036561E+03  0.32177971427E+03  0.00000000000E+00 0. -1.
         -3    1    3    3    0  502  0.13218480490E+02  0.16001127524E+03  0.26085341267E+03  0.30630514088E+03  0.00000000000E+00 0.  1.
         11    1    5    5    0    0 -0.77883126571E+02  0.17472183973E+03 -0.10742970197E+04  0.10911954862E+04  0.00000000000E+00 0.  1.
        -11    1    5    5    0    0  0.33895692049E+01 -0.25634782251E+01 -0.12246404538E+01  0.44227077957E+01  0.00000000000E+00 0. -1.
          2    1    6    6  503    0  0.47708033290E+02 -0.27973853730E+03 -0.12890896526E+03  0.31168449916E+03  0.00000000000E+00 0.  1.
         -2    1    6    6    0  503 -0.39610667910E+02 -0.15350239431E+03 -0.90123639004E+02  0.18235750705E+03  0.00000000000E+00 0. -1.
<mgrwt>
<rscale>  0 0.20931541E+04</rscale>
<asrwt>0</asrwt>
<pdfrwt beam="1">  1        2 0.22697042E+00 0.20931541E+04</pdfrwt>
<pdfrwt beam="2">  1       -1 0.11422112E+00 0.20931541E+04</pdfrwt>
<totfact> 0.96088770E+00</totfact>
</mgrwt>
</event>
<event>
12    6  0.1586493E-007  0.1556974E+04  0.7818608E-02  0.8847426E-01
         -1   -1    0    0    0  501 -0.00000000000E+00  0.00000000000E+00  0.46790838084E+03  0.46790838084E+03  0.00000000000E+00 0.  1.
          2   -1    0    0  501    0  0.00000000000E+00 -0.00000000000E+00 -0.12952147386E+04  0.12952147386E+04  0.00000000000E+00 0. -1.
         24    2    1    2    0    0 -0.15120407302E+03 -0.39219247531E+03  0.64209626557E+02  0.43273269951E+03  0.80356105515E+02 0.  0.
        254    2    1    2    0    0  0.15120407302E+03  0.39219247531E+03 -0.89151598431E+03  0.13303904199E+04  0.89356606345E+03 0.  0.
         23    2    4    4    0    0 -0.28180895263E+02 -0.20716872180E+03 -0.58522370096E+03  0.62795220964E+03  0.90134096048E+02 0.  0.
         23    2    4    4    0    0  0.17938496829E+03  0.59936119711E+03 -0.30629228334E+03  0.70243821028E+03  0.90507817203E+02 0.  0.
          2    1    3    3  502    0 -0.83508937303E+02 -0.25887675057E+03  0.54053570383E+01  0.27206641189E+03  0.00000000000E+00 0. -1.
         -1    1    3    3    0  502 -0.67695135719E+02 -0.13331572474E+03  0.58804269519E+02  0.16066628762E+03  0.00000000000E+00 0.  1.
         11    1    5    5    0    0 -0.94106172156E+01 -0.94748290761E+01 -0.43079507570E+01  0.14031769030E+02  0.00000000000E+00 0.  1.
        -11    1    5    5    0    0 -0.18770278047E+02 -0.19769389273E+03 -0.58091575021E+03  0.61392044061E+03  0.00000000000E+00 0. -1.
          1    1    6    6  503    0  0.16301970229E+03  0.44858711175E+03 -0.26185548969E+03  0.54440253274E+03  0.00000000000E+00 0. -1.
         -1    1    6    6    0  503  0.16365265993E+02  0.15077408536E+03 -0.44436793651E+02  0.15803567755E+03  0.00000000000E+00 0.  1.
<mgrwt>
<rscale>  0 0.15569738E+04</rscale>
<asrwt>0</asrwt>
<pdfrwt beam="1">  1        2 0.19926380E+00 0.15569738E+04</pdfrwt>
<pdfrwt beam="2">  1       -1 0.71985905E-01 0.15569738E+04</pdfrwt>
<totfact> 0.35538110E+01</totfact>
</mgrwt>
</event>
<event>
12    6  0.1586493E-007  0.2045542E+04  0.7818608E-02  0.8585619E-01
         -1   -1    0    0    0  501 -0.00000000000E+00  0.00000000000E+00  0.10417562112E+04  0.10417562112E+04  0.00000000000E+00 0.  1.
          2   -1    0    0  501    0  0.00000000000E+00 -0.00000000000E+00 -0.10041321274E+04  0.10041321274E+04  0.00000000000E+00 0. -1.
         24    2    1    2    0    0  0.53659867732E+03  0.53222576870E+03 -0.31185104202E+03  0.82148399956E+03  0.79890423438E+02 0.  0.
        254    2    1    2    0    0 -0.53659867732E+03 -0.53222576870E+03  0.34947512579E+03  0.12244043391E+04  0.89768074089E+03 0.  0.
         23    2    4    4    0    0 -0.54116530165E+03 -0.68170244396E+03  0.48468897507E+02  0.87632862692E+03  0.89579699362E+02 0.  0.
         23    2    4    4    0    0  0.45666243226E+01  0.14947667526E+03  0.30100622828E+03  0.34807571213E+03  0.90486581356E+02 0.  0.
          2    1    3    3  502    0  0.43914080545E+03  0.38846926866E+03 -0.24213938130E+03  0.63433784349E+03  0.00000000000E+00 0. -1.
         -1    1    3    3    0  502  0.97457871874E+02  0.14375650004E+03 -0.69711660721E+02  0.18714615608E+03  0.00000000000E+00 0.  1.
         11    1    5    5    0    0 -0.23346624920E+02 -0.63716360472E+02  0.14319236109E+02  0.69353298478E+02  0.00000000000E+00 0. -1.
        -11    1    5    5    0    0 -0.51781867672E+03 -0.61798608349E+03  0.34149661398E+02  0.80697532845E+03  0.00000000000E+00 0.  1.
          1    1    6    6  503    0 -0.21146059027E+02  0.31183215884E+02  0.14934975187E+03  0.15402888413E+03  0.00000000000E+00 0. -1.
         -1    1    6    6    0  503  0.25712683349E+02  0.11829345937E+03  0.15165647642E+03  0.19404682799E+03  0.00000000000E+00 0.  1.
<mgrwt>
<rscale>  0 0.20455424E+04</rscale>
<asrwt>0</asrwt>
<pdfrwt beam="1">  1        2 0.15448187E+00 0.20455424E+04</pdfrwt>
<pdfrwt beam="2">  1       -1 0.16027019E+00 0.20455424E+04</pdfrwt>
<totfact> 0.76885141E+00</totfact>
</mgrwt>
</event>
<event>
12    6  0.1586493E-007  0.1484889E+04  0.7818608E-02  0.8894564E-01
         -1   -1    0    0    0  501 -0.00000000000E+00  0.00000000000E+00  0.97403026396E+03  0.97403026396E+03  0.00000000000E+00 0.  1.
          2   -1    0    0  501    0  0.00000000000E+00 -0.00000000000E+00 -0.56592062348E+03  0.56592062348E+03  0.00000000000E+00 0. -1.
         24    2    1    2    0    0  0.21552996099E+03 -0.22080667592E+03 -0.23188585384E+03  0.39929917574E+03  0.10227428962E+03 0.  0.
        254    2    1    2    0    0 -0.21552996099E+03  0.22080667592E+03  0.63999549431E+03  0.11406517117E+04  0.89234709752E+03 0.  0.
         23    2    4    4    0    0 -0.13047143755E+03 -0.31790659287E+03  0.40569579389E+03  0.54007750748E+03  0.94906475538E+02 0.  0.
         23    2    4    4    0    0 -0.85058523440E+02  0.53871326879E+03  0.23429970042E+03  0.60057420422E+03  0.91356919725E+02 0.  0.
          2    1    3    3  502    0  0.17219914324E+03 -0.21366857700E+03 -0.22495624185E+03  0.35484097350E+03  0.00000000000E+00 0. -1.
         -1    1    3    3    0  502  0.43330817754E+02 -0.71380989219E+01 -0.69296119817E+01  0.44458202232E+02  0.00000000000E+00 0.  1.
         11    1    5    5    0    0 -0.13234863560E+03 -0.31457687861E+03  0.41056327685E+03  0.53388854473E+03  0.00000000000E+00 0. -1.
        -11    1    5    5    0    0  0.18771980506E+01 -0.33297142642E+01 -0.48674829558E+01  0.61889627505E+01  0.00000000000E+00 0.  1.
          4    1    6    6  503    0 -0.61962805340E+01  0.32181985648E+03  0.12635544944E+03  0.34579200904E+03  0.00000000000E+00 0. -1.
         -4    1    6    6    0  503 -0.78862242906E+02  0.21689341231E+03  0.10794425098E+03  0.25478219518E+03  0.00000000000E+00 0.  1.
<mgrwt>
<rscale>  0 0.14848890E+04</rscale>
<asrwt>0</asrwt>
<pdfrwt beam="1">  1        2 0.87064711E-01 0.14848890E+04</pdfrwt>
<pdfrwt beam="2">  1       -1 0.14985081E+00 0.14848890E+04</pdfrwt>
<totfact> 0.20581039E+01</totfact>
</mgrwt>
</event>
<event>
12    6  0.1586493E-007  0.1308370E+04  0.7818608E-02  0.9022954E-01
         -1   -1    0    0    0  501 -0.00000000000E+00  0.00000000000E+00  0.15623233165E+04  0.15623233165E+04  0.00000000000E+00 0.  1.
          2   -1    0    0  501    0  0.00000000000E+00 -0.00000000000E+00 -0.27392403476E+03  0.27392403476E+03  0.00000000000E+00 0. -1.
         24    2    1    2    0    0  0.74516817449E+02 -0.25061798397E+02 -0.11828874901E+03  0.16280283611E+03  0.79571888772E+02 0.  0.
        254    2    1    2    0    0 -0.74516817449E+02  0.25061798397E+02  0.14066880308E+04  0.16734445152E+04  0.90303071909E+03 0.  0.
         23    2    4    4    0    0 -0.26285883513E+03 -0.36275219497E+03  0.60158925078E+03  0.75550977326E+03  0.90561960431E+02 0.  0.
         23    2    4    4    0    0  0.18834201769E+03  0.38781399336E+03  0.80509877997E+03  0.91793474190E+03  0.92453965815E+02 0.  0.
          4    1    3    3  502    0  0.29055305351E+02 -0.40541155373E+02 -0.99371491469E+02  0.11118673196E+03  0.00000000000E+00 0. -1.
         -3    1    3    3    0  502  0.45461512098E+02  0.15479356976E+02 -0.18917257538E+02  0.51616104148E+02  0.00000000000E+00 0.  1.
         11    1    5    5    0    0 -0.10482788216E+03 -0.89383650905E+02  0.14146111884E+03  0.19745776782E+03  0.00000000000E+00 0. -1.
        -11    1    5    5    0    0 -0.15803095298E+03 -0.27336854406E+03  0.46012813194E+03  0.55805200545E+03  0.00000000000E+00 0.  1.
          3    1    6    6  503    0  0.10750803799E+02  0.14217928870E+02  0.72809931244E+01  0.19254665527E+02  0.00000000000E+00 0. -1.
         -3    1    6    6    0  503  0.17759121389E+03  0.37359606449E+03  0.79781778685E+03  0.89868007637E+03  0.00000000000E+00 0.  1.
<mgrwt>
<rscale>  0 0.13083698E+04</rscale>
<asrwt>0</asrwt>
<pdfrwt beam="1">  1        2 0.42142160E-01 0.13083698E+04</pdfrwt>
<pdfrwt beam="2">  1       -1 0.24035743E+00 0.13083698E+04</pdfrwt>
<totfact> 0.11011840E+01</totfact>
</mgrwt>
</event>
<event>
12    6  0.1586493E-007  0.1892751E+04  0.7818608E-02  0.8658473E-01
          2   -1    0    0  501    0  0.00000000000E+00  0.00000000000E+00  0.24688033649E+03  0.24688033649E+03  0.00000000000E+00 0. -1.
         -1   -1    0    0    0  501 -0.00000000000E+00 -0.00000000000E+00 -0.36277761055E+04  0.36277761055E+04  0.00000000000E+00 0.  1.
         24    2    1    2    0    0  0.63442977403E+03  0.34846931411E+03 -0.15404772343E+04  0.17039759463E+04  0.80820265525E+02 0.  0.
        254    2    1    2    0    0 -0.63442977403E+03 -0.34846931411E+03 -0.18404185348E+04  0.21706804957E+04  0.89486391712E+03 0.  0.
         23    2    4    4    0    0 -0.16138714690E+03 -0.23154566070E+03 -0.36352100158E+02  0.29970073972E+03  0.94020497938E+02 0.  0.
         23    2    4    4    0    0 -0.47304262712E+03 -0.11692365341E+03 -0.18040664346E+04  0.18709797560E+04  0.92027598632E+02 0.  0.
          4    1    3    3  502    0  0.13241032447E+03  0.10739985434E+03 -0.32547911816E+03  0.36742874017E+03  0.00000000000E+00 0. -1.
         -3    1    3    3    0  502  0.50201944955E+03  0.24106945977E+03 -0.12149981161E+04  0.13365472062E+04  0.00000000000E+00 0.  1.
         11    1    5    5    0    0 -0.13144191721E+01  0.53989578422E+01  0.86024231861E+01  0.10241002305E+02  0.00000000000E+00 0.  1.
        -11    1    5    5    0    0 -0.16007272773E+03 -0.23694461854E+03 -0.44954523344E+02  0.28945973742E+03  0.00000000000E+00 0. -1.
          2    1    6    6  503    0 -0.45426280568E+03 -0.10241625142E+03 -0.16269138389E+04  0.16922447885E+04  0.00000000000E+00 0. -1.
         -2    1    6    6    0  503 -0.18779821443E+02 -0.14507401986E+02 -0.17715259572E+03  0.17873496742E+03  0.00000000000E+00 0.  1.
<mgrwt>
<rscale>  0 0.18927510E+04</rscale>
<asrwt>0</asrwt>
<pdfrwt beam="1">  1        2 0.37981595E-01 0.18927510E+04</pdfrwt>
<pdfrwt beam="2">  1       -1 0.55811933E+00 0.18927510E+04</pdfrwt>
<totfact> 0.98146784E-02</totfact>
</mgrwt>
</event>
<event>
12    6  0.1586493E-007  0.1519472E+04  0.7818608E-02  0.8871607E-01
         -1   -1    0    0    0  501 -0.00000000000E+00  0.00000000000E+00  0.24524170522E+03  0.24524170522E+03  0.00000000000E+00 0.  1.
          2   -1    0    0  501    0  0.00000000000E+00 -0.00000000000E+00 -0.23535906675E+04  0.23535906675E+04  0.00000000000E+00 0. -1.
         24    2    1    2    0    0  0.14438620512E+03 -0.18850584806E+02  0.11242160920E+03  0.19519650569E+03  0.65271255862E+02 0.  0.
        254    2    1    2    0    0 -0.14438620512E+03  0.18850584806E+02 -0.22207705715E+04  0.24036358670E+04  0.90798718566E+03 0.  0.
         23    2    4    4    0    0 -0.63014733967E+02 -0.55980447615E+02  0.46082032180E+02  0.13220871714E+03  0.90834596854E+02 0.  0.
         23    2    4    4    0    0 -0.81371471149E+02  0.74831032421E+02 -0.22668526036E+04  0.22714271499E+04  0.92409798151E+02 0.  0.
          4    1    3    3  502    0  0.38137223430E+02  0.22495082960E+02  0.42958611467E+02  0.61692129705E+02  0.00000000000E+00 0. -1.
         -3    1    3    3    0  502  0.10624898169E+03 -0.41345667766E+02  0.69462997738E+02  0.13350437599E+03  0.00000000000E+00 0.  1.
         11    1    5    5    0    0 -0.42160873225E+02 -0.75304364337E+02  0.55087322684E+02  0.10238603244E+03  0.00000000000E+00 0.  1.
        -11    1    5    5    0    0 -0.20853860742E+02  0.19323916722E+02 -0.90052905042E+01  0.29822684694E+02  0.00000000000E+00 0. -1.
          2    1    6    6  503    0 -0.62627501859E+02  0.14195293783E+00 -0.74506942055E+03  0.74769690756E+03  0.00000000000E+00 0. -1.
         -2    1    6    6    0  503 -0.18743969291E+02  0.74689079483E+02 -0.15217831831E+04  0.15237302423E+04  0.00000000000E+00 0.  1.
<mgrwt>
<rscale>  0 0.15194717E+04</rscale>
<asrwt>0</asrwt>
<pdfrwt beam="1">  1        2 0.36209086E+00 0.15194717E+04</pdfrwt>
<pdfrwt beam="2">  1       -1 0.37729495E-01 0.15194717E+04</pdfrwt>
<totfact> 0.31520322E+01</totfact>
</mgrwt>
</event>
<event>
12    6  0.1586493E-007  0.1501897E+04  0.7818608E-02  0.8883193E-01
          2   -1    0    0  501    0  0.00000000000E+00  0.00000000000E+00  0.13721925169E+04  0.13721925169E+04  0.00000000000E+00 0. -1.
         -1   -1    0    0    0  501 -0.00000000000E+00 -0.00000000000E+00 -0.41096513906E+03  0.41096513906E+03  0.00000000000E+00 0.  1.
         24    2    1    2    0    0  0.35841246924E+03 -0.31495368143E+03  0.36165954306E+03  0.60376966999E+03  0.78005575240E+02 0.  0.
        254    2    1    2    0    0 -0.35841246924E+03  0.31495368143E+03  0.59956783473E+03  0.11793879859E+04  0.89655959831E+03 0.  0.
         23    2    4    4    0    0 -0.99866035255E+02  0.52049981756E+03  0.63780895828E+03  0.83496690329E+03  0.97345658541E+02 0.  0.
         23    2    4    4    0    0 -0.25854643398E+03 -0.20554613614E+03 -0.38241123550E+02  0.34442108263E+03  0.89822191163E+02 0.  0.
          2    1    3    3  502    0  0.34140442225E+03 -0.26997543196E+03  0.32142536868E+03  0.54107114229E+03  0.00000000000E+00 0. -1.
         -1    1    3    3    0  502  0.17008046990E+02 -0.44978249473E+02  0.40234174377E+02  0.62698527701E+02  0.00000000000E+00 0.  1.
         11    1    5    5    0    0 -0.49411313494E+02  0.15935457240E+03  0.13944032948E+03  0.21743726252E+03  0.00000000000E+00 0. -1.
        -11    1    5    5    0    0 -0.50454721761E+02  0.36114524517E+03  0.49836862880E+03  0.61752964077E+03  0.00000000000E+00 0.  1.
          2    1    6    6  503    0 -0.21529821313E+02 -0.52013443090E+02  0.12077332572E+02  0.57574242765E+02  0.00000000000E+00 0. -1.
         -2    1    6    6    0  503 -0.23701661267E+03 -0.15353269304E+03 -0.50318456123E+02  0.28684683987E+03  0.00000000000E+00 0.  1.
<mgrwt>
<rscale>  0 0.15018965E+04</rscale>
<asrwt>0</asrwt>
<pdfrwt beam="1">  1        2 0.21110654E+00 0.15018965E+04</pdfrwt>
<pdfrwt beam="2">  1       -1 0.63225407E-01 0.15018965E+04</pdfrwt>
<totfact> 0.41940135E+01</totfact>
</mgrwt>
</event>
<event>
12    6  0.1586493E-007  0.1397619E+04  0.7818608E-02  0.8955544E-01
         -1   -1    0    0    0  501 -0.00000000000E+00  0.00000000000E+00  0.10729868233E+03  0.10729868233E+03  0.00000000000E+00 0.  1.
          2   -1    0    0  501    0  0.00000000000E+00 -0.00000000000E+00 -0.45511684560E+04  0.45511684560E+04  0.00000000000E+00 0. -1.
         24    2    1    2    0    0  0.85446468311E+02 -0.25966202077E+03 -0.30990444270E+03  0.41864721812E+03  0.67076565661E+02 0.  0.
        254    2    1    2    0    0 -0.85446468311E+02  0.25966202077E+03 -0.41339653309E+04  0.42398199202E+04  0.90093181433E+03 0.  0.
         23    2    4    4    0    0 -0.22643740027E+03 -0.71990962062E+02 -0.32279726289E+03  0.41063735344E+03  0.89265717126E+02 0.  0.
         23    2    4    4    0    0  0.14099093196E+03  0.33165298283E+03 -0.38111680680E+04  0.38291825667E+04  0.88118910963E+02 0.  0.
          2    1    3    3  502    0  0.20126331714E+01 -0.53670765203E+01 -0.33193532554E+02  0.33684815660E+02  0.00000000000E+00 0. -1.
         -1    1    3    3    0  502  0.83433835139E+02 -0.25429494425E+03 -0.27671091015E+03  0.38496240246E+03  0.00000000000E+00 0.  1.
         11    1    5    5    0    0 -0.11367586659E+03 -0.73595441636E+02 -0.13265418343E+03  0.18956693820E+03  0.00000000000E+00 0. -1.
        -11    1    5    5    0    0 -0.11276153368E+03  0.16044795744E+01 -0.19014307945E+03  0.22107041525E+03  0.00000000000E+00 0.  1.
          2    1    6    6  503    0  0.15037460086E+03  0.32776669636E+03 -0.36828480768E+04  0.37004612530E+04  0.00000000000E+00 0. -1.
         -2    1    6    6    0  503 -0.93836688952E+01  0.38862864722E+01 -0.12831999125E+03  0.12872131377E+03  0.00000000000E+00 0.  1.
<mgrwt>
<rscale>  0 0.13976185E+04</rscale>
<asrwt>0</asrwt>
<pdfrwt beam="1">  1        2 0.70017971E+00 0.13976185E+04</pdfrwt>
<pdfrwt beam="2">  1       -1 0.16507491E-01 0.13976185E+04</pdfrwt>
<totfact> 0.35675220E+00</totfact>
</mgrwt>
</event>
<event>
12    6  0.1586493E-007  0.1355777E+04  0.7818608E-02  0.8986466E-01
         -1   -1    0    0    0  501 -0.00000000000E+00  0.00000000000E+00  0.42688174939E+03  0.42688174939E+03  0.00000000000E+00 0.  1.
          2   -1    0    0  501    0  0.00000000000E+00 -0.00000000000E+00 -0.10764880297E+04  0.10764880297E+04  0.00000000000E+00 0. -1.
         24    2    1    2    0    0 -0.26596736475E+03  0.14473023529E+03  0.62126982988E+02  0.31949713084E+03  0.80828055055E+02 0.  0.
        254    2    1    2    0    0  0.26596736475E+03 -0.14473023529E+03 -0.71173326331E+03  0.11838726483E+04  0.89627268678E+03 0.  0.
         23    2    4    4    0    0  0.43615756920E+03  0.23822478261E+03 -0.29166278624E+03  0.58337095049E+03  0.90939610643E+02 0.  0.
         23    2    4    4    0    0 -0.17019020445E+03 -0.38295501790E+03 -0.42007047707E+03  0.60050169776E+03  0.92324600625E+02 0.  0.
          4    1    3    3  502    0 -0.70725861131E+01 -0.95651350617E+01  0.40492200621E+01  0.12566203332E+02  0.00000000000E+00 0. -1.
         -3    1    3    3    0  502 -0.25889477864E+03  0.15429537035E+03  0.58077762926E+02  0.30693092751E+03  0.00000000000E+00 0.  1.
         11    1    5    5    0    0  0.34355471170E+03  0.19936978531E+03 -0.27097408245E+03  0.48083791924E+03  0.00000000000E+00 0. -1.
        -11    1    5    5    0    0  0.92602857505E+02  0.38854997296E+02 -0.20688703791E+02  0.10253303125E+03  0.00000000000E+00 0.  1.
          3    1    6    6  503    0 -0.16551346197E+03 -0.38447703457E+03 -0.39699372014E+03  0.57690667359E+03  0.00000000000E+00 0. -1.
         -3    1    6    6    0  503 -0.46767424829E+01  0.15220166721E+01 -0.23076756930E+02  0.23595024167E+02  0.00000000000E+00 0.  1.
<mgrwt>
<rscale>  0 0.13557774E+04</rscale>
<asrwt>0</asrwt>
<pdfrwt beam="1">  1        2 0.16561354E+00 0.13557774E+04</pdfrwt>
<pdfrwt beam="2">  1       -1 0.65674115E-01 0.13557774E+04</pdfrwt>
<totfact> 0.58972121E+01</totfact>
</mgrwt>
</event>
<event>
12    6  0.1586493E-007  0.2187881E+04  0.7818608E-02  0.8523489E-01
         -1   -1    0    0    0  501 -0.00000000000E+00  0.00000000000E+00  0.77029872010E+03  0.77029872010E+03  0.00000000000E+00 0.  1.
          2   -1    0    0  501    0  0.00000000000E+00 -0.00000000000E+00 -0.15535607618E+04  0.15535607618E+04  0.00000000000E+00 0. -1.
         24    2    1    2    0    0 -0.55782262915E+03  0.71746874158E+03 -0.31915131949E+03  0.96653421112E+03  0.80020846045E+02 0.  0.
        254    2    1    2    0    0  0.55782262915E+03 -0.71746874158E+03 -0.46411072226E+03  0.13573252708E+04  0.89498918850E+03 0.  0.
         23    2    4    4    0    0 -0.23405884400E+03 -0.17781502957E+03 -0.61393838853E+02  0.31391291981E+03  0.91489838655E+02 0.  0.
         23    2    4    4    0    0  0.79188147315E+03 -0.53965371201E+03 -0.40271688340E+03  0.10434123510E+04  0.90697572405E+02 0.  0.
          4    1    3    3  502    0 -0.10878417031E+03  0.12550503543E+03 -0.90487040044E+02  0.18913861067E+03  0.00000000000E+00 0. -1.
         -3    1    3    3    0  502 -0.44903845884E+03  0.59196370615E+03 -0.22866427944E+03  0.77739560046E+03  0.00000000000E+00 0.  1.
         11    1    5    5    0    0 -0.75897419533E+02 -0.75421971548E+02  0.19685568271E+02  0.10879528336E+03  0.00000000000E+00 0. -1.
        -11    1    5    5    0    0 -0.15816142447E+03 -0.10239305802E+03 -0.81079407125E+02  0.20511763644E+03  0.00000000000E+00 0.  1.
          3    1    6    6  503    0  0.17416713693E+03 -0.11831537189E+03 -0.13027647199E+03  0.24759781494E+03  0.00000000000E+00 0. -1.
         -3    1    6    6    0  503  0.61771433623E+03 -0.42133834012E+03 -0.27244041142E+03  0.79581453606E+03  0.00000000000E+00 0.  1.
<mgrwt>
<rscale>  0 0.21878810E+04</rscale>
<asrwt>0</asrwt>
<pdfrwt beam="1">  1        2 0.23900935E+00 0.21878810E+04</pdfrwt>
<pdfrwt beam="2">  1       -1 0.11850750E+00 0.21878810E+04</pdfrwt>
<totfact> 0.78782446E+00</totfact>
</mgrwt>
</event>
<event>
12    6  0.1586493E-007  0.2411273E+04  0.7818608E-02  0.8435295E-01
          2   -1    0    0  501    0  0.00000000000E+00  0.00000000000E+00  0.12869990660E+04  0.12869990660E+04  0.00000000000E+00 0. -1.
         -1   -1    0    0    0  501 -0.00000000000E+00 -0.00000000000E+00 -0.11294177452E+04  0.11294177452E+04  0.00000000000E+00 0.  1.
         24    2    1    2    0    0  0.61406640182E+03  0.67764642009E+03  0.55535783429E+03  0.10717311943E+04  0.62475693405E+02 0.  0.
        254    2    1    2    0    0 -0.61406640182E+03 -0.67764642009E+03 -0.39777651344E+03  0.13446856169E+04  0.90203715953E+03 0.  0.
         23    2    4    4    0    0 -0.41622340028E+03  0.91038252614E+02 -0.32038589454E+03  0.54069365047E+03  0.90402543429E+02 0.  0.
         23    2    4    4    0    0 -0.19784300154E+03 -0.76868467270E+03 -0.77390618894E+02  0.80399196644E+03  0.10195977102E+03 0.  0.
          4    1    3    3  502    0  0.59973938871E+03  0.65496509270E+03  0.54932481640E+03  0.10442338631E+04  0.00000000000E+00 0. -1.
         -3    1    3    3    0  502  0.14327013109E+02  0.22681327388E+02  0.60330178855E+01  0.27497331171E+02  0.00000000000E+00 0.  1.
         11    1    5    5    0    0 -0.21803603217E+03  0.44391693117E+02 -0.11107847378E+03  0.24869411147E+03  0.00000000000E+00 0. -1.
        -11    1    5    5    0    0 -0.19818736811E+03  0.46646559497E+02 -0.20930742076E+03  0.29199953900E+03  0.00000000000E+00 0.  1.
          4    1    6    6  503    0 -0.12249585181E+03 -0.63352767287E+03 -0.70447432712E+02  0.64909582249E+03  0.00000000000E+00 0. -1.
         -4    1    6    6    0  503 -0.75347149730E+02 -0.13515699983E+03 -0.69431861825E+01  0.15489614395E+03  0.00000000000E+00 0.  1.
<mgrwt>
<rscale>  0 0.24112732E+04</rscale>
<asrwt>0</asrwt>
<pdfrwt beam="1">  1        2 0.19799986E+00 0.24112732E+04</pdfrwt>
<pdfrwt beam="2">  1       -1 0.17375658E+00 0.24112732E+04</pdfrwt>
<totfact> 0.39781535E+00</totfact>
</mgrwt>
</event>
<event>
12    6  0.1586493E-007  0.1657179E+04  0.7818608E-02  0.8786171E-01
         -1   -1    0    0    0  501 -0.00000000000E+00  0.00000000000E+00  0.68640003379E+03  0.68640003379E+03  0.00000000000E+00 0.  1.
          2   -1    0    0  501    0  0.00000000000E+00 -0.00000000000E+00 -0.10002335394E+04  0.10002335394E+04  0.00000000000E+00 0. -1.
         24    2    1    2    0    0  0.72481421498E+02  0.45165240782E+03  0.22869441083E+03  0.51727783616E+03  0.77664485365E+02 0.  0.
        254    2    1    2    0    0 -0.72481421498E+02 -0.45165240782E+03 -0.54252791647E+03  0.11693557371E+04  0.92941532464E+03 0.  0.
         23    2    4    4    0    0  0.28786081956E+03 -0.55140640194E+03 -0.21613813658E+03  0.66468771951E+03  0.90449979768E+02 0.  0.
         23    2    4    4    0    0 -0.36034224105E+03  0.99753994122E+02 -0.32638977989E+03  0.50466801754E+03  0.91444679912E+02 0.  0.
          4    1    3    3  502    0  0.37003607543E+02  0.13432937860E+03  0.10658451106E+03  0.17542493245E+03  0.00000000000E+00 0. -1.
         -3    1    3    3    0  502  0.35477813954E+02  0.31732302922E+03  0.12210989977E+03  0.34185290371E+03  0.00000000000E+00 0.  1.
         11    1    5    5    0    0  0.12103020848E+03 -0.23253504567E+03 -0.13868235399E+03  0.29656981326E+03  0.00000000000E+00 0.  1.
        -11    1    5    5    0    0  0.16683061108E+03 -0.31887135627E+03 -0.77455782597E+02  0.36811790625E+03  0.00000000000E+00 0. -1.
          3    1    6    6  503    0 -0.46652692438E+01  0.83806019348E+01  0.42810703045E+01  0.10503655976E+02  0.00000000000E+00 0. -1.
         -3    1    6    6    0  503 -0.35567697181E+03  0.91373392187E+02 -0.33067085019E+03  0.49416436157E+03  0.00000000000E+00 0.  1.
<mgrwt>
<rscale>  0 0.16571787E+04</rscale>
<asrwt>0</asrwt>
<pdfrwt beam="1">  1        2 0.15388208E+00 0.16571787E+04</pdfrwt>
<pdfrwt beam="2">  1       -1 0.10560001E+00 0.16571787E+04</pdfrwt>
<totfact> 0.23046632E+01</totfact>
</mgrwt>
</event>
<event>
12    6  0.1586493E-007  0.2871264E+04  0.7818608E-02  0.8281479E-01
          2   -1    0    0  501    0  0.00000000000E+00  0.00000000000E+00  0.25401179580E+04  0.25401179580E+04  0.00000000000E+00 0. -1.
         -1   -1    0    0    0  501 -0.00000000000E+00 -0.00000000000E+00 -0.81139509149E+03  0.81139509149E+03  0.00000000000E+00 0.  1.
         24    2    1    2    0    0  0.89315912500E+03 -0.91484648012E+03  0.10074015214E+04  0.16296543705E+04  0.78982512653E+02 0.  0.
        254    2    1    2    0    0 -0.89315912500E+03  0.91484648012E+03  0.72132134516E+03  0.17218586790E+04  0.89989750677E+03 0.  0.
         23    2    4    4    0    0 -0.78948991308E+03  0.95560024367E+03  0.87219439707E+03  0.15184490705E+04  0.92186576633E+02 0.  0.
         23    2    4    4    0    0 -0.10366921192E+03 -0.40753763548E+02 -0.15087305191E+03  0.20340960848E+03  0.78769386735E+02 0.  0.
          4    1    3    3  502    0  0.79981209943E+03 -0.84940034591E+03  0.90779966629E+03  0.14782694532E+04  0.00000000000E+00 0. -1.
         -3    1    3    3    0  502  0.93347025569E+02 -0.65446134210E+02  0.99601855097E+02  0.15138491736E+03  0.00000000000E+00 0.  1.
         11    1    5    5    0    0 -0.59750752108E+03  0.66611991736E+03  0.60400496439E+03  0.10796077895E+04  0.00000000000E+00 0.  1.
        -11    1    5    5    0    0 -0.19198239200E+03  0.28948032631E+03  0.26818943268E+03  0.43884128106E+03  0.00000000000E+00 0. -1.
          3    1    6    6  503    0 -0.79360629051E+02 -0.33290587464E+02 -0.50321654894E+02  0.99692735986E+02  0.00000000000E+00 0. -1.
         -3    1    6    6    0  503 -0.24308582867E+02 -0.74631760844E+01 -0.10055139702E+03  0.10371687250E+03  0.00000000000E+00 0.  1.
<mgrwt>
<rscale>  0 0.28712640E+04</rscale>
<asrwt>0</asrwt>
<pdfrwt beam="1">  1        2 0.39078738E+00 0.28712640E+04</pdfrwt>
<pdfrwt beam="2">  1       -1 0.12483002E+00 0.28712640E+04</pdfrwt>
<totfact> 0.18212263E+00</totfact>
</mgrwt>
</event>
<event>
12    6  0.1586493E-007  0.1303310E+04  0.7818608E-02  0.9026945E-01
          2   -1    0    0  501    0  0.00000000000E+00  0.00000000000E+00  0.10959049159E+04  0.10959049159E+04  0.00000000000E+00 0. -1.
         -1   -1    0    0    0  501 -0.00000000000E+00 -0.00000000000E+00 -0.38749159997E+03  0.38749159997E+03  0.00000000000E+00 0.  1.
         24    2    1    2    0    0 -0.88224238942E+02  0.29603955155E+03 -0.10313558300E+03  0.33525788962E+03  0.79611378907E+02 0.  0.
        254    2    1    2    0    0  0.88224238942E+02 -0.29603955155E+03  0.81154889890E+03  0.11481386262E+04  0.75112432876E+03 0.  0.
         23    2    4    4    0    0 -0.11879724183E+03  0.93637724709E+02  0.64431746619E+03  0.66803691889E+03  0.90815855509E+02 0.  0.
         23    2    4    4    0    0  0.20702148077E+03 -0.38967727626E+03  0.16723143271E+03  0.48010170731E+03  0.88459166540E+02 0.  0.
          4    1    3    3  502    0 -0.14100095687E+02  0.16509054962E+03 -0.76281615439E+02  0.18240774964E+03  0.00000000000E+00 0. -1.
         -3    1    3    3    0  502 -0.74124143255E+02  0.13094900193E+03 -0.26853967565E+02  0.15285013999E+03  0.00000000000E+00 0.  1.
         11    1    5    5    0    0 -0.12432118965E+03  0.94555943110E+02  0.64372773739E+03  0.66240620805E+03  0.00000000000E+00 0. -1.
        -11    1    5    5    0    0  0.55239478225E+01 -0.91821840177E+00  0.58972880026E+00  0.56307108465E+01  0.00000000000E+00 0.  1.
          3    1    6    6  503    0  0.17215577942E+03 -0.36343214486E+03  0.12970083272E+03  0.42254330229E+03  0.00000000000E+00 0. -1.
         -3    1    6    6    0  503  0.34865701348E+02 -0.26245131406E+02  0.37530599995E+02  0.57558405025E+02  0.00000000000E+00 0.  1.
<mgrwt>
<rscale>  0 0.13033096E+04</rscale>
<asrwt>0</asrwt>
<pdfrwt beam="1">  1        2 0.16860075E+00 0.13033096E+04</pdfrwt>
<pdfrwt beam="2">  1       -1 0.59614093E-01 0.13033096E+04</pdfrwt>
<totfact> 0.69864331E+01</totfact>
</mgrwt>
</event>
<event>
12    6  0.1586493E-007  0.1439903E+04  0.7818608E-02  0.8925430E-01
         -1   -1    0    0    0  501 -0.00000000000E+00  0.00000000000E+00  0.63823320373E+03  0.63823320373E+03  0.00000000000E+00 0.  1.
          2   -1    0    0  501    0  0.00000000000E+00 -0.00000000000E+00 -0.81213321132E+03  0.81213321132E+03  0.00000000000E+00 0. -1.
         24    2    1    2    0    0  0.64534175112E+02 -0.22378199710E+03  0.31449641838E+03  0.39932827360E+03  0.79448290948E+02 0.  0.
        254    2    1    2    0    0 -0.64534175112E+02  0.22378199710E+03 -0.48839642598E+03  0.10510381414E+04  0.90105885706E+03 0.  0.
         23    2    4    4    0    0 -0.21205273202E+03  0.45609732048E+03 -0.34267743150E+02  0.51220992167E+03  0.90518499354E+02 0.  0.
         23    2    4    4    0    0  0.14751855691E+03 -0.23231532338E+03 -0.45412868283E+03  0.53882821978E+03  0.91492380852E+02 0.  0.
          4    1    3    3  502    0  0.46951777295E+02 -0.53914291395E+02  0.12681750939E+03  0.14558125187E+03  0.00000000000E+00 0. -1.
         -1    1    3    3    0  502  0.17582397817E+02 -0.16986770571E+03  0.18767890899E+03  0.25374702173E+03  0.00000000000E+00 0.  1.
         11    1    5    5    0    0 -0.15862113983E+03  0.33428125611E+03  0.15128298648E+02  0.37031539207E+03  0.00000000000E+00 0. -1.
        -11    1    5    5    0    0 -0.53431592195E+02  0.12181606438E+03 -0.49396041797E+02  0.14189452960E+03  0.00000000000E+00 0.  1.
          3    1    6    6  503    0  0.13930311519E+03 -0.24069112831E+03 -0.43177514502E+03  0.51358285895E+03  0.00000000000E+00 0. -1.
         -3    1    6    6    0  503  0.82154417167E+01  0.83758049321E+01 -0.22353537810E+02  0.25245360831E+02  0.00000000000E+00 0.  1.
<mgrwt>
<rscale>  0 0.14399033E+04</rscale>
<asrwt>0</asrwt>
<pdfrwt beam="1">  1        2 0.12494357E+00 0.14399033E+04</pdfrwt>
<pdfrwt beam="2">  1       -1 0.98189724E-01 0.14399033E+04</pdfrwt>
<totfact> 0.37183633E+01</totfact>
</mgrwt>
</event>
<event>
12    6  0.1586493E-007  0.2915147E+04  0.7818608E-02  0.8268385E-01
         -1   -1    0    0    0  501 -0.00000000000E+00  0.00000000000E+00  0.60423914042E+03  0.60423914042E+03  0.00000000000E+00 0.  1.
          2   -1    0    0  501    0  0.00000000000E+00 -0.00000000000E+00 -0.35160247914E+04  0.35160247914E+04  0.00000000000E+00 0. -1.
         24    2    1    2    0    0 -0.12318573692E+03 -0.10766497510E+04 -0.23693583518E+04  0.26066292846E+04  0.79421760031E+02 0.  0.
        254    2    1    2    0    0  0.12318573692E+03  0.10766497510E+04 -0.54242729921E+03  0.15136346473E+04  0.90692505666E+03 0.  0.
         23    2    4    4    0    0  0.50237951451E+03  0.48785692365E+03 -0.29953873422E+03  0.76695359479E+03  0.90026711035E+02 0.  0.
         23    2    4    4    0    0 -0.37919377759E+03  0.58879282733E+03 -0.24288856499E+03  0.74668105248E+03  0.89848898967E+02 0.  0.
          2    1    3    3  502    0 -0.11699627401E+03 -0.10717777505E+04 -0.23437560029E+04  0.25798426068E+04  0.00000000000E+00 0. -1.
         -1    1    3    3    0  502 -0.61894629091E+01 -0.48720005265E+01 -0.25602348875E+02  0.26786677811E+02  0.00000000000E+00 0.  1.
         11    1    5    5    0    0  0.48969458976E+03  0.44771994472E+03 -0.28786967074E+03  0.72327234668E+03  0.00000000000E+00 0.  1.
        -11    1    5    5    0    0  0.12684924755E+02  0.40136978931E+02 -0.11669063486E+02  0.43681248110E+02  0.00000000000E+00 0. -1.
          2    1    6    6  503    0 -0.52667827277E+02  0.40183549886E+02 -0.36975231900E+02  0.75866893211E+02  0.00000000000E+00 0. -1.
         -2    1    6    6    0  503 -0.32652595031E+03  0.54860927745E+03 -0.20591333309E+03  0.67081415927E+03  0.00000000000E+00 0.  1.
<mgrwt>
<rscale>  0 0.29151465E+04</rscale>
<asrwt>0</asrwt>
<pdfrwt beam="1">  1        2 0.54092689E+00 0.29151465E+04</pdfrwt>
<pdfrwt beam="2">  1       -1 0.92959868E-01 0.29151465E+04</pdfrwt>
<totfact> 0.87173946E-01</totfact>
</mgrwt>
</event>
<event>
12    6  0.1586493E-007  0.1413377E+04  0.7818608E-02  0.8944192E-01
         -1   -1    0    0    0  501 -0.00000000000E+00  0.00000000000E+00  0.16913149961E+04  0.16913149961E+04  0.00000000000E+00 0.  1.
          2   -1    0    0  501    0  0.00000000000E+00 -0.00000000000E+00 -0.29527811554E+03  0.29527811554E+03  0.00000000000E+00 0. -1.
         24    2    1    2    0    0 -0.34184681713E+03 -0.27066542567E+03  0.47953514783E+03  0.65276409406E+03  0.77640102148E+02 0.  0.
        254    2    1    2    0    0  0.34184681713E+03  0.27066542567E+03  0.91650173271E+03  0.13338290175E+04  0.86545098241E+03 0.  0.
         23    2    4    4    0    0  0.57912032080E+03  0.50113238199E+02  0.38038444336E+03  0.70072701697E+03  0.91838689828E+02 0.  0.
         23    2    4    4    0    0 -0.23727350367E+03  0.22055218747E+03  0.53611728935E+03  0.63310200058E+03  0.91947877915E+02 0.  0.
          4    1    3    3  502    0 -0.20898225780E+02 -0.29047821905E+02  0.72598106276E+02  0.80938228502E+02  0.00000000000E+00 0. -1.
         -3    1    3    3    0  502 -0.32094859135E+03 -0.24161760376E+03  0.40693704155E+03  0.57182586556E+03  0.00000000000E+00 0.  1.
         11    1    5    5    0    0  0.13646594688E+03  0.64009609825E+00  0.13606090937E+03  0.19270686402E+03  0.00000000000E+00 0.  1.
        -11    1    5    5    0    0  0.44265437392E+03  0.49473142101E+02  0.24432353399E+03  0.50802015294E+03  0.00000000000E+00 0. -1.
          4    1    6    6  503    0 -0.14024443163E+03  0.14013919527E+03  0.40677381970E+03  0.45251788368E+03  0.00000000000E+00 0. -1.
         -4    1    6    6    0  503 -0.97029072038E+02  0.80412992199E+02  0.12934346965E+03  0.18058411689E+03  0.00000000000E+00 0.  1.
<mgrwt>
<rscale>  0 0.14133765E+04</rscale>
<asrwt>0</asrwt>
<pdfrwt beam="1">  1        2 0.45427403E-01 0.14133765E+04</pdfrwt>
<pdfrwt beam="2">  1       -1 0.26020230E+00 0.14133765E+04</pdfrwt>
<totfact> 0.74552663E+00</totfact>
</mgrwt>
</event>
<event>
12    6  0.1586493E-007  0.2476638E+04  0.7818608E-02  0.8411356E-01
          2   -1    0    0  501    0  0.00000000000E+00  0.00000000000E+00  0.22660541521E+04  0.22660541521E+04  0.00000000000E+00 0. -1.
         -1   -1    0    0    0  501 -0.00000000000E+00 -0.00000000000E+00 -0.67669786719E+03  0.67669786719E+03  0.00000000000E+00 0.  1.
         24    2    1    2    0    0  0.47095522665E+02  0.10189469874E+04  0.10797725199E+04  0.14876526138E+04  0.82040558012E+02 0.  0.
        254    2    1    2    0    0 -0.47095522665E+02 -0.10189469874E+04  0.50958376493E+03  0.14550994055E+04  0.90397329334E+03 0.  0.
         23    2    4    4    0    0 -0.14207197141E+03 -0.11043417530E+04  0.60646244395E+03  0.12712484204E+04  0.92307626898E+02 0.  0.
         23    2    4    4    0    0  0.94976448743E+02  0.85394765633E+02 -0.96878679023E+02  0.18385098509E+03  0.90016189965E+02 0.  0.
          2    1    3    3  502    0  0.32606031654E+02  0.85357721043E+03  0.94484803698E+03  0.12737327115E+04  0.00000000000E+00 0. -1.
         -1    1    3    3    0  502  0.14489491011E+02  0.16536977692E+03  0.13492448297E+03  0.21391990224E+03  0.00000000000E+00 0.  1.
         11    1    5    5    0    0 -0.39617424983E+02 -0.42020572124E+03  0.27854342749E+03  0.50569638077E+03  0.00000000000E+00 0.  1.
        -11    1    5    5    0    0 -0.10245454642E+03 -0.68413603175E+03  0.32791901646E+03  0.76555203962E+03  0.00000000000E+00 0. -1.
          2    1    6    6  503    0  0.66159363414E+02  0.51496871692E+02 -0.77024911118E+01  0.84192146491E+02  0.00000000000E+00 0. -1.
         -2    1    6    6    0  503  0.28817085329E+02  0.33897893940E+02 -0.89176187911E+02  0.99658838599E+02  0.00000000000E+00 0.  1.
<mgrwt>
<rscale>  0 0.24766381E+04</rscale>
<asrwt>0</asrwt>
<pdfrwt beam="1">  1        2 0.34862371E+00 0.24766381E+04</pdfrwt>
<pdfrwt beam="2">  1       -1 0.10410737E+00 0.24766381E+04</pdfrwt>
<totfact> 0.41830201E+00</totfact>
</mgrwt>
</event>
<event>
12    6  0.1586493E-007  0.2316003E+04  0.7818608E-02  0.8471638E-01
          2   -1    0    0  501    0  0.00000000000E+00  0.00000000000E+00  0.23335628267E+04  0.23335628267E+04  0.00000000000E+00 0. -1.
         -1   -1    0    0    0  501 -0.00000000000E+00 -0.00000000000E+00 -0.57464401621E+03  0.57464401621E+03  0.00000000000E+00 0.  1.
         24    2    1    2    0    0 -0.66236080229E+03 -0.38069612916E+03  0.15133452309E+04  0.16971279879E+04  0.79863910410E+02 0.  0.
        254    2    1    2    0    0  0.66236080229E+03  0.38069612916E+03  0.24557357962E+03  0.12110788551E+04  0.90705801082E+03 0.  0.
         23    2    4    4    0    0  0.75735928814E+03  0.20078728152E+03  0.44980335406E+03  0.90800421966E+03  0.90774345707E+02 0.  0.
         23    2    4    4    0    0 -0.94998485847E+02  0.17990884763E+03 -0.20422977445E+03  0.30307463540E+03  0.93554946863E+02 0.  0.
          2    1    3    3  502    0 -0.63860853881E+03 -0.37757182899E+03  0.14384273963E+04  0.16184729613E+04  0.00000000000E+00 0. -1.
         -1    1    3    3    0  502 -0.23752263477E+02 -0.31243001672E+01  0.74917834589E+02  0.78655026612E+02  0.00000000000E+00 0.  1.
         11    1    5    5    0    0  0.55748242863E+03  0.10730598111E+03  0.31097194685E+03  0.64730578828E+03  0.00000000000E+00 0.  1.
        -11    1    5    5    0    0  0.19987685951E+03  0.93481300415E+02  0.13883140721E+03  0.26069843138E+03  0.00000000000E+00 0. -1.
          3    1    6    6  503    0 -0.45510385243E+01 -0.11356737572E+02 -0.13537487848E+02  0.18246945420E+02  0.00000000000E+00 0. -1.
         -3    1    6    6    0  503 -0.90447447322E+02  0.19126558521E+03 -0.19069228660E+03  0.28482768998E+03  0.00000000000E+00 0.  1.
<mgrwt>
<rscale>  0 0.23160034E+04</rscale>
<asrwt>0</asrwt>
<pdfrwt beam="1">  1        2 0.35900966E+00 0.23160034E+04</pdfrwt>
<pdfrwt beam="2">  1       -1 0.88406773E-01 0.23160034E+04</pdfrwt>
<totfact> 0.56153315E+00</totfact>
</mgrwt>
</event>
<event>
12    6  0.1586493E-007  0.2609664E+04  0.7818608E-02  0.8364926E-01
          2   -1    0    0  501    0  0.00000000000E+00  0.00000000000E+00  0.39469269582E+04  0.39469269582E+04  0.00000000000E+00 0. -1.
         -1   -1    0    0    0  501 -0.00000000000E+00 -0.00000000000E+00 -0.43137027524E+03  0.43137027524E+03  0.00000000000E+00 0.  1.
         24    2    1    2    0    0 -0.61647415772E+03 -0.83494251633E+03  0.72236513977E+03  0.12681666089E+04  0.96258818474E+02 0.  0.
        254    2    1    2    0    0  0.61647415772E+03  0.83494251633E+03  0.27931915432E+04  0.31101306246E+04  0.89096807573E+03 0.  0.
         23    2    4    4    0    0  0.42168536424E+03  0.73378726930E+03  0.10546800298E+04  0.13553566698E+04  0.91539248721E+02 0.  0.
         23    2    4    4    0    0  0.19478879348E+03  0.10115524703E+03  0.17385115134E+04  0.17547739547E+04  0.92920891271E+02 0.  0.
          2    1    3    3  502    0 -0.40718332146E+02 -0.94665495433E+02  0.92356983209E+02  0.13838117988E+03  0.00000000000E+00 0. -1.
         -1    1    3    3    0  502 -0.57575582557E+03 -0.74027702090E+03  0.63000815656E+03  0.11297854290E+04  0.00000000000E+00 0.  1.
         11    1    5    5    0    0  0.30477943247E+03  0.51857393057E+03  0.81249256290E+03  0.10109172017E+04  0.00000000000E+00 0. -1.
        -11    1    5    5    0    0  0.11690593177E+03  0.21521333873E+03  0.24218746694E+03  0.34443946811E+03  0.00000000000E+00 0.  1.
          2    1    6    6  503    0  0.32790591135E+02  0.64312677346E+02  0.51555855353E+03  0.52058809576E+03  0.00000000000E+00 0. -1.
         -2    1    6    6    0  503  0.16199820234E+03  0.36842569686E+02  0.12229529599E+04  0.12341858590E+04  0.00000000000E+00 0.  1.
<mgrwt>
<rscale>  0 0.26096643E+04</rscale>
<asrwt>0</asrwt>
<pdfrwt beam="1">  1        2 0.60721951E+00 0.26096643E+04</pdfrwt>
<pdfrwt beam="2">  1       -1 0.66364660E-01 0.26096643E+04</pdfrwt>
<totfact> 0.87449892E-01</totfact>
</mgrwt>
</event>
<event>
12    6  0.1586493E-007  0.1518113E+04  0.7818608E-02  0.8872496E-01
         -1   -1    0    0    0  501 -0.00000000000E+00  0.00000000000E+00  0.99901105566E+03  0.99901105566E+03  0.00000000000E+00 0.  1.
          2   -1    0    0  501    0  0.00000000000E+00 -0.00000000000E+00 -0.57673736182E+03  0.57673736182E+03  0.00000000000E+00 0. -1.
         24    2    1    2    0    0  0.39365730717E+03  0.14650346434E+03  0.39047909433E+03  0.57928377168E+03  0.81648174928E+02 0.  0.
        254    2    1    2    0    0 -0.39365730717E+03 -0.14650346434E+03  0.31794599515E+02  0.99646464580E+03  0.90305124617E+03 0.  0.
         23    2    4    4    0    0  0.17358881696E+03 -0.99119218069E+02  0.28953111420E+03  0.36310160865E+03  0.89759764619E+02 0.  0.
         23    2    4    4    0    0 -0.56724612413E+03 -0.47384246271E+02 -0.25773651469E+03  0.63336303715E+03  0.10347557047E+03 0.  0.
          2    1    3    3  502    0  0.43586408038E+02  0.30960903047E+01  0.14804997990E+02  0.46136197354E+02  0.00000000000E+00 0. -1.
         -1    1    3    3    0  502  0.35007089913E+03  0.14340737404E+03  0.37567409634E+03  0.53314757433E+03  0.00000000000E+00 0.  1.
         11    1    5    5    0    0  0.12878784181E+03 -0.11330805252E+03  0.23778576188E+03  0.29320145210E+03  0.00000000000E+00 0. -1.
        -11    1    5    5    0    0  0.44800975148E+02  0.14188834448E+02  0.51745352326E+02  0.69900156542E+02  0.00000000000E+00 0.  1.
          1    1    6    6  503    0 -0.42264758618E+03  0.10442748133E+02 -0.19169467849E+03  0.46420564716E+03  0.00000000000E+00 0. -1.
         -1    1    6    6    0  503 -0.14459853795E+03 -0.57826994404E+02 -0.66041836203E+02  0.16915738999E+03  0.00000000000E+00 0.  1.
<mgrwt>
<rscale>  0 0.15181133E+04</rscale>
<asrwt>0</asrwt>
<pdfrwt beam="1">  1        2 0.88728825E-01 0.15181133E+04</pdfrwt>
<pdfrwt beam="2">  1       -1 0.15369401E+00 0.15181133E+04</pdfrwt>
<totfact> 0.18734079E+01</totfact>
</mgrwt>
</event>
<event>
12    6  0.1586493E-007  0.1559156E+04  0.7818608E-02  0.8846041E-01
         -3   -1    0    0    0  501 -0.00000000000E+00  0.00000000000E+00  0.26818856998E+03  0.26818856998E+03  0.00000000000E+00 0.  1.
          2   -1    0    0  501    0  0.00000000000E+00 -0.00000000000E+00 -0.22660979583E+04  0.22660979583E+04  0.00000000000E+00 0. -1.
         24    2    1    2    0    0 -0.17914036027E+03 -0.17702041440E+03 -0.14007893047E+04  0.14252741089E+04  0.75948097296E+02 0.  0.
        254    2    1    2    0    0  0.17914036027E+03  0.17702041440E+03 -0.59712008361E+03  0.11090124194E+04  0.89996036374E+03 0.  0.
         23    2    4    4    0    0 -0.22122582717E+03  0.29909588319E+03 -0.76832880239E+01  0.38128935577E+03  0.83206525964E+02 0.  0.
         23    2    4    4    0    0  0.40036618744E+03 -0.12207546879E+03 -0.58943679558E+03  0.72772306361E+03  0.83364364112E+02 0.  0.
          2    1    3    3  502    0 -0.97919062345E+02 -0.84309414254E+02 -0.51559347410E+03  0.53153819301E+03  0.00000000000E+00 0. -1.
         -1    1    3    3    0  502 -0.81221297923E+02 -0.92711000142E+02 -0.88519583065E+03  0.89373591591E+03  0.00000000000E+00 0.  1.
         11    1    5    5    0    0 -0.18417992989E+03  0.28892236441E+03 -0.35774591373E+01  0.34265314451E+03  0.00000000000E+00 0. -1.
        -11    1    5    5    0    0 -0.37045897283E+02  0.10173518780E+02 -0.41058288866E+01  0.38636211262E+02  0.00000000000E+00 0.  1.
          1    1    6    6  503    0  0.40298621186E+03 -0.11564255815E+03 -0.58397665579E+03  0.71888790692E+03  0.00000000000E+00 0. -1.
         -1    1    6    6    0  503 -0.26200244231E+01 -0.64329106378E+01 -0.54601397897E+01  0.88351566921E+01  0.00000000000E+00 0.  1.
<mgrwt>
<rscale>  0 0.15591556E+04</rscale>
<asrwt>0</asrwt>
<pdfrwt beam="1">  1        2 0.34863046E+00 0.15591556E+04</pdfrwt>
<pdfrwt beam="2">  1       -3 0.41259779E-01 0.15591556E+04</pdfrwt>
<totfact> 0.17202997E+01</totfact>
</mgrwt>
</event>
<event>
12    6  0.1586493E-007  0.1652054E+04  0.7818608E-02  0.8789192E-01
          2   -1    0    0  501    0  0.00000000000E+00  0.00000000000E+00  0.16900972388E+04  0.16900972388E+04  0.00000000000E+00 0. -1.
         -1   -1    0    0    0  501 -0.00000000000E+00 -0.00000000000E+00 -0.40371687060E+03  0.40371687060E+03  0.00000000000E+00 0.  1.
         24    2    1    2    0    0  0.14020677859E+03  0.14281226247E+02  0.11744764980E+04  0.11859195524E+04  0.84547302352E+02 0.  0.
        254    2    1    2    0    0 -0.14020677859E+03 -0.14281226247E+02  0.11190387020E+03  0.90789455695E+03  0.88988097866E+03 0.  0.
         23    2    4    4    0    0 -0.35204084203E+03 -0.30688783204E+03 -0.89705911909E+02  0.48433606501E+03  0.91768062689E+02 0.  0.
         23    2    4    4    0    0  0.21183406344E+03  0.29260660579E+03  0.20160978211E+03  0.42355849194E+03  0.90901021249E+02 0.  0.
          2    1    3    3  502    0  0.46325419271E+02  0.44818670843E+02  0.53466311994E+03  0.53853450173E+03  0.00000000000E+00 0. -1.
         -1    1    3    3    0  502  0.93881359317E+02 -0.30537444596E+02  0.63981337802E+03  0.64738505068E+03  0.00000000000E+00 0.  1.
         11    1    5    5    0    0 -0.17266173587E+03 -0.19516512429E+03 -0.80812814505E+02  0.27282267458E+03  0.00000000000E+00 0.  1.
        -11    1    5    5    0    0 -0.17937910616E+03 -0.11172270774E+03 -0.88930974041E+01  0.21151339044E+03  0.00000000000E+00 0. -1.
          1    1    6    6  503    0  0.38147960722E+02  0.10255438475E+03  0.27724934485E+02  0.11287754750E+03  0.00000000000E+00 0. -1.
         -1    1    6    6    0  503  0.17368610272E+03  0.19005222104E+03  0.17388484762E+03  0.31068094443E+03  0.00000000000E+00 0.  1.
<mgrwt>
<rscale>  0 0.16520542E+04</rscale>
<asrwt>0</asrwt>
<pdfrwt beam="1">  1        2 0.26001496E+00 0.16520542E+04</pdfrwt>
<pdfrwt beam="2">  1       -1 0.62110289E-01 0.16520542E+04</pdfrwt>
<totfact> 0.28412870E+01</totfact>
</mgrwt>
</event>
<event>
12    6  0.1586493E-007  0.2122319E+04  0.7818608E-02  0.8551475E-01
         -1   -1    0    0    0  501 -0.00000000000E+00  0.00000000000E+00  0.46319365058E+03  0.46319365058E+03  0.00000000000E+00 0.  1.
          2   -1    0    0  501    0  0.00000000000E+00 -0.00000000000E+00 -0.24310772392E+04  0.24310772392E+04  0.00000000000E+00 0. -1.
         24    2    1    2    0    0 -0.41494230733E+02  0.71411214377E+03 -0.12965936648E+03  0.73134403409E+03  0.79841216299E+02 0.  0.
        254    2    1    2    0    0  0.41494230733E+02 -0.71411214377E+03 -0.18382242222E+04  0.21629268557E+04  0.88741555496E+03 0.  0.
         23    2    4    4    0    0  0.52034471501E+02 -0.91397702505E+03 -0.15121667232E+04  0.17700562249E+04  0.91592860083E+02 0.  0.
         23    2    4    4    0    0 -0.10540240768E+02  0.19986488127E+03 -0.32605749898E+03  0.39287063084E+03  0.89312778987E+02 0.  0.
          4    1    3    3  502    0  0.22793926542E+01  0.34328105023E+01 -0.80002662294E+01  0.89991154319E+01  0.00000000000E+00 0. -1.
         -3    1    3    3    0  502 -0.43773623387E+02  0.71067933327E+03 -0.12165910025E+03  0.72234491866E+03  0.00000000000E+00 0.  1.
         11    1    5    5    0    0  0.69048340092E+02 -0.61393712160E+03 -0.10667964429E+04  0.12327778036E+04  0.00000000000E+00 0.  1.
        -11    1    5    5    0    0 -0.17013868591E+02 -0.30003990345E+03 -0.44537028032E+03  0.53727842128E+03  0.00000000000E+00 0. -1.
          4    1    6    6  503    0 -0.11115460207E+02  0.81837685343E+01  0.93795653468E+00  0.13835002187E+02  0.00000000000E+00 0. -1.
         -4    1    6    6    0  503  0.57521943899E+00  0.19168111274E+03 -0.32699545551E+03  0.37903562865E+03  0.00000000000E+00 0.  1.
<mgrwt>
<rscale>  0 0.21223191E+04</rscale>
<asrwt>0</asrwt>
<pdfrwt beam="1">  1        2 0.37401188E+00 0.21223191E+04</pdfrwt>
<pdfrwt beam="2">  1       -1 0.71260563E-01 0.21223191E+04</pdfrwt>
<totfact> 0.79449574E+00</totfact>
</mgrwt>
</event>
<event>
12    6  0.1586493E-007  0.1235988E+04  0.7818608E-02  0.9081927E-01
          2   -1    0    0  501    0  0.00000000000E+00  0.00000000000E+00  0.12799344486E+04  0.12799344486E+04  0.00000000000E+00 0. -1.
         -1   -1    0    0    0  501 -0.00000000000E+00 -0.00000000000E+00 -0.29838738995E+03  0.29838738995E+03  0.00000000000E+00 0.  1.
         24    2    1    2    0    0 -0.18752908211E+03  0.12499959126E+02 -0.24584846335E+02  0.20569930249E+03  0.79902332651E+02 0.  0.
        254    2    1    2    0    0  0.18752908211E+03 -0.12499959126E+02  0.10061319050E+04  0.13726225360E+04  0.91458614172E+03 0.  0.
         23    2    4    4    0    0  0.19129621038E+03  0.17384903270E+03 -0.64666285054E+02  0.28180284175E+03  0.91724516439E+02 0.  0.
         23    2    4    4    0    0 -0.37671282756E+01 -0.18634899183E+03  0.10707981900E+04  0.10908196943E+04  0.92405106278E+02 0.  0.
          2    1    3    3  502    0  0.67479658490E+01 -0.11793640305E+01  0.53007464396E+01  0.86616312224E+01  0.00000000000E+00 0. -1.
         -1    1    3    3    0  502 -0.19427704796E+03  0.13679323157E+02 -0.29885592774E+02  0.19703767127E+03  0.00000000000E+00 0.  1.
         11    1    5    5    0    0  0.28220478138E+02  0.50469528065E+02  0.18990865687E+02  0.60862316987E+02  0.00000000000E+00 0. -1.
        -11    1    5    5    0    0  0.16307573225E+03  0.12337950464E+03 -0.83657150740E+02  0.22094052476E+03  0.00000000000E+00 0.  1.
          1    1    6    6  503    0 -0.12882941883E+02 -0.22569227319E+02  0.37698080607E+03  0.37787546674E+03  0.00000000000E+00 0. -1.
         -1    1    6    6    0  503  0.91158136070E+01 -0.16377976451E+03  0.69381738397E+03  0.71294422756E+03  0.00000000000E+00 0.  1.
<mgrwt>
<rscale>  0 0.12359875E+04</rscale>
<asrwt>0</asrwt>
<pdfrwt beam="1">  1        2 0.19691299E+00 0.12359875E+04</pdfrwt>
<pdfrwt beam="2">  1       -1 0.45905753E-01 0.12359875E+04</pdfrwt>
<totfact> 0.89879095E+01</totfact>
</mgrwt>
</event>
<event>
12    6  0.1586493E-007  0.2336128E+04  0.7818608E-02  0.8463811E-01
         -1   -1    0    0    0  501 -0.00000000000E+00  0.00000000000E+00  0.63575861768E+03  0.63575861768E+03  0.00000000000E+00 0.  1.
          2   -1    0    0  501    0  0.00000000000E+00 -0.00000000000E+00 -0.21460560858E+04  0.21460560858E+04  0.00000000000E+00 0. -1.
         24    2    1    2    0    0 -0.35251707262E+03  0.70255030067E+03 -0.13774312989E+04  0.15879540173E+04  0.80223228791E+02 0.  0.
        254    2    1    2    0    0  0.35251707262E+03 -0.70255030067E+03 -0.13286616930E+03  0.11938606862E+04  0.88870957445E+03 0.  0.
         23    2    4    4    0    0  0.16566514289E+03 -0.70335943223E+03 -0.41914063623E+03  0.84025139734E+03  0.90466056117E+02 0.  0.
         23    2    4    4    0    0  0.18685192973E+03  0.80913156031E+00  0.28627446694E+03  0.35360928889E+03  0.90400002396E+02 0.  0.
          2    1    3    3  502    0 -0.34934077138E+03  0.70278948652E+03 -0.13597755941E+04  0.15700132812E+04  0.00000000000E+00 0. -1.
         -1    1    3    3    0  502 -0.31763012436E+01 -0.23918584838E+00 -0.17655704765E+02  0.17940736055E+02  0.00000000000E+00 0.  1.
         11    1    5    5    0    0  0.28692057044E+02 -0.58392614333E+02 -0.64336347556E+02  0.91499164821E+02  0.00000000000E+00 0.  1.
        -11    1    5    5    0    0  0.13697308585E+03 -0.64496681790E+03 -0.35480428868E+03  0.74875223252E+03  0.00000000000E+00 0. -1.
          4    1    6    6  503    0  0.60364808965E+02  0.40900685039E+02  0.12556848879E+03  0.14520406873E+03  0.00000000000E+00 0. -1.
         -4    1    6    6    0  503  0.12648712076E+03 -0.40091553478E+02  0.16070597814E+03  0.20840522016E+03  0.00000000000E+00 0.  1.
<mgrwt>
<rscale>  0 0.23361281E+04</rscale>
<asrwt>0</asrwt>
<pdfrwt beam="1">  1        2 0.33016247E+00 0.23361281E+04</pdfrwt>
<pdfrwt beam="2">  1       -1 0.97809019E-01 0.23361281E+04</pdfrwt>
<totfact> 0.57090718E+00</totfact>
</mgrwt>
</event>
<event>
12    6  0.1586493E-007  0.2075075E+04  0.7818608E-02  0.8572303E-01
         -1   -1    0    0    0  501 -0.00000000000E+00  0.00000000000E+00  0.95624474509E+03  0.95624474509E+03  0.00000000000E+00 0.  1.
          2   -1    0    0  501    0  0.00000000000E+00 -0.00000000000E+00 -0.11257415526E+04  0.11257415526E+04  0.00000000000E+00 0. -1.
         24    2    1    2    0    0  0.29450445537E+03  0.48667742635E+03 -0.69027257330E+03  0.89790388555E+03  0.78532609085E+02 0.  0.
        254    2    1    2    0    0 -0.29450445537E+03 -0.48667742635E+03  0.52077576583E+03  0.11840824121E+04  0.89847424495E+03 0.  0.
         23    2    4    4    0    0  0.24772752275E+03  0.79338722704E+02  0.11208241543E+03  0.29542935999E+03  0.83979047661E+02 0.  0.
         23    2    4    4    0    0 -0.54223197812E+03 -0.56601614905E+03  0.40869335039E+03  0.88865305212E+03  0.91017543932E+02 0.  0.
          2    1    3    3  502    0  0.25813387664E+03  0.37803156953E+03 -0.52134205716E+03  0.69378563432E+03  0.00000000000E+00 0. -1.
         -1    1    3    3    0  502  0.36370578729E+02  0.10864585682E+03 -0.16893051615E+03  0.20411825123E+03  0.00000000000E+00 0.  1.
         11    1    5    5    0    0  0.19121867926E+03  0.86641864414E+02  0.60261192533E+02  0.21840972344E+03  0.00000000000E+00 0.  1.
        -11    1    5    5    0    0  0.56508843492E+02 -0.73031417101E+01  0.51821222902E+02  0.77019636553E+02  0.00000000000E+00 0. -1.
          2    1    6    6  503    0 -0.29781329094E+03 -0.25933144656E+03  0.17320782766E+03  0.43121515163E+03  0.00000000000E+00 0. -1.
         -2    1    6    6    0  503 -0.24441868718E+03 -0.30668470249E+03  0.23548552274E+03  0.45743790049E+03  0.00000000000E+00 0.  1.
<mgrwt>
<rscale>  0 0.20750754E+04</rscale>
<asrwt>0</asrwt>
<pdfrwt beam="1">  1        2 0.17319101E+00 0.20750754E+04</pdfrwt>
<pdfrwt beam="2">  1       -1 0.14711458E+00 0.20750754E+04</pdfrwt>
<totfact> 0.81314828E+00</totfact>
</mgrwt>
</event>
<event>
12    6  0.1586493E-007  0.1232448E+04  0.7818608E-02  0.9084919E-01
          2   -1    0    0  501    0  0.00000000000E+00  0.00000000000E+00  0.98732397334E+03  0.98732397334E+03  0.00000000000E+00 0. -1.
         -1   -1    0    0    0  501 -0.00000000000E+00 -0.00000000000E+00 -0.38460748849E+03  0.38460748849E+03  0.00000000000E+00 0.  1.
         24    2    1    2    0    0 -0.22446989126E+03  0.89296932433E+02  0.29230037204E+03  0.38956395546E+03  0.89218236218E+02 0.  0.
        254    2    1    2    0    0  0.22446989126E+03 -0.89296932433E+02  0.31041611281E+03  0.98236750637E+03  0.90018169291E+03 0.  0.
         23    2    4    4    0    0  0.45414104973E+03 -0.26697467556E+02 -0.12253335068E+03  0.48032157277E+03  0.93474827754E+02 0.  0.
         23    2    4    4    0    0 -0.22967115846E+03 -0.62599464877E+02  0.43294946350E+03  0.50204593359E+03  0.89091792343E+02 0.  0.
          4    1    3    3  502    0 -0.14954168709E+03  0.43925424878E+02  0.24401209403E+03  0.28954112171E+03  0.00000000000E+00 0. -1.
         -3    1    3    3    0  502 -0.74928204173E+02  0.45371507555E+02  0.48288278012E+02  0.10002283375E+03  0.00000000000E+00 0.  1.
         11    1    5    5    0    0 -0.38917149370E+01  0.22746940511E+00  0.26664562258E+01  0.47230473516E+01  0.00000000000E+00 0. -1.
        -11    1    5    5    0    0  0.45803276466E+03 -0.26924936961E+02 -0.12519980691E+03  0.47559852542E+03  0.00000000000E+00 0.  1.
          2    1    6    6  503    0 -0.11299405117E+02 -0.31247296222E+02  0.65819382916E+02  0.73731005992E+02  0.00000000000E+00 0. -1.
         -2    1    6    6    0  503 -0.21837175334E+03 -0.31352168655E+02  0.36713008058E+03  0.42831492760E+03  0.00000000000E+00 0.  1.
<mgrwt>
<rscale>  0 0.12324483E+04</rscale>
<asrwt>0</asrwt>
<pdfrwt beam="1">  1        2 0.15189599E+00 0.12324483E+04</pdfrwt>
<pdfrwt beam="2">  1       -1 0.59170383E-01 0.12324483E+04</pdfrwt>
<totfact> 0.83474059E+01</totfact>
</mgrwt>
</event>
<event>
12    6  0.1586493E-007  0.2770010E+04  0.7818608E-02  0.8312640E-01
         -1   -1    0    0    0  501 -0.00000000000E+00  0.00000000000E+00  0.93728287628E+03  0.93728287628E+03  0.00000000000E+00 0.  1.
          2   -1    0    0  501    0  0.00000000000E+00 -0.00000000000E+00 -0.20465957211E+04  0.20465957211E+04  0.00000000000E+00 0. -1.
         24    2    1    2    0    0 -0.55029704126E+03  0.59872661793E+03  0.49502617569E+03  0.95617727393E+03  0.89014987000E+02 0.  0.
        254    2    1    2    0    0  0.55029704126E+03 -0.59872661793E+03 -0.16043390205E+04  0.20277013234E+04  0.93614559109E+03 0.  0.
         23    2    4    4    0    0  0.24795859667E+03 -0.38611375163E+02  0.32022734428E+02  0.26955372059E+03  0.93056159442E+02 0.  0.
         23    2    4    4    0    0  0.30233844459E+03 -0.56011524277E+03 -0.16363617549E+04  0.17581476029E+04  0.90915235948E+02 0.  0.
          2    1    3    3  502    0 -0.25338409626E+03  0.25078111983E+03  0.26485637863E+03  0.44412112267E+03  0.00000000000E+00 0. -1.
         -1    1    3    3    0  502 -0.29691294500E+03  0.34794549810E+03  0.23016979706E+03  0.51205615125E+03  0.00000000000E+00 0.  1.
         11    1    5    5    0    0  0.20869530279E+03 -0.21610296890E+02 -0.93725587388E+01  0.21002042566E+03  0.00000000000E+00 0.  1.
        -11    1    5    5    0    0  0.39263293881E+02 -0.17001078273E+02  0.41395293167E+02  0.59533294930E+02  0.00000000000E+00 0. -1.
          3    1    6    6  503    0  0.11461108893E+03 -0.16176772127E+03 -0.60668296901E+03  0.63825443378E+03  0.00000000000E+00 0. -1.
         -3    1    6    6    0  503  0.18772735566E+03 -0.39834752149E+03 -0.10296787859E+04  0.11198931691E+04  0.00000000000E+00 0.  1.
<mgrwt>
<rscale>  0 0.27700102E+04</rscale>
<asrwt>0</asrwt>
<pdfrwt beam="1">  1        2 0.31486088E+00 0.27700102E+04</pdfrwt>
<pdfrwt beam="2">  1       -1 0.14419737E+00 0.27700102E+04</pdfrwt>
<totfact> 0.24214400E+00</totfact>
</mgrwt>
</event>
<event>
12    6  0.1586493E-007  0.2673432E+04  0.7818608E-02  0.8343677E-01
         -1   -1    0    0    0  501 -0.00000000000E+00  0.00000000000E+00  0.91308669723E+03  0.91308669723E+03  0.00000000000E+00 0.  1.
          2   -1    0    0  501    0  0.00000000000E+00 -0.00000000000E+00 -0.19568891702E+04  0.19568891702E+04  0.00000000000E+00 0. -1.
         24    2    1    2    0    0  0.74289271064E+03  0.45066713026E+03  0.39921890843E+03  0.95947028153E+03  0.78848224309E+02 0.  0.
        254    2    1    2    0    0 -0.74289271064E+03 -0.45066713026E+03 -0.14430213814E+04  0.19105055859E+04  0.90151563752E+03 0.  0.
         23    2    4    4    0    0 -0.94203213134E+03 -0.38503172565E+03 -0.12153922759E+04  0.15884463678E+04  0.10153577087E+03 0.  0.
         23    2    4    4    0    0  0.19913942070E+03 -0.65635404607E+02 -0.22762910548E+03  0.32205921808E+03  0.89121350282E+02 0.  0.
          4    1    3    3  502    0  0.60537893560E+03  0.35452091045E+03  0.28915708245E+03  0.75880204925E+03  0.00000000000E+00 0. -1.
         -3    1    3    3    0  502  0.13751377504E+03  0.96146219812E+02  0.11006182598E+03  0.20066823228E+03  0.00000000000E+00 0.  1.
         11    1    5    5    0    0 -0.24884256329E+03 -0.56120370799E+02 -0.32213845755E+03  0.41090790106E+03  0.00000000000E+00 0. -1.
        -11    1    5    5    0    0 -0.69318956805E+03 -0.32891135485E+03 -0.89325381833E+03  0.11775384667E+04  0.00000000000E+00 0.  1.
          4    1    6    6  503    0  0.63369533038E+01  0.75077405877E+01  0.51386188704E+01  0.11087314815E+02  0.00000000000E+00 0. -1.
         -4    1    6    6    0  503  0.19280246740E+03 -0.73143145195E+02 -0.23276772435E+03  0.31097190327E+03  0.00000000000E+00 0.  1.
<mgrwt>
<rscale>  0 0.26734319E+04</rscale>
<asrwt>0</asrwt>
<pdfrwt beam="1">  1        2 0.30105987E+00 0.26734319E+04</pdfrwt>
<pdfrwt beam="2">  1       -1 0.14047488E+00 0.26734319E+04</pdfrwt>
<totfact> 0.29343635E+00</totfact>
</mgrwt>
</event>
<event>
12    6  0.1586493E-007  0.2070470E+04  0.7818608E-02  0.8574364E-01
          2   -1    0    0  501    0  0.00000000000E+00  0.00000000000E+00  0.32066424500E+04  0.32066424500E+04  0.00000000000E+00 0. -1.
         -1   -1    0    0    0  501 -0.00000000000E+00 -0.00000000000E+00 -0.33421610770E+03  0.33421610770E+03  0.00000000000E+00 0.  1.
         24    2    1    2    0    0  0.22801155093E+02  0.76440764185E+03  0.17990396994E+04  0.19564316707E+04  0.79007003850E+02 0.  0.
        254    2    1    2    0    0 -0.22801155093E+02 -0.76440764185E+03  0.10733866429E+04  0.15844268870E+04  0.87943774049E+03 0.  0.
         23    2    4    4    0    0  0.38260522049E+03 -0.56121285171E+03  0.77047103123E+03  0.10311697188E+04  0.91316807236E+02 0.  0.
         23    2    4    4    0    0 -0.40540637558E+03 -0.20319479014E+03  0.30291561169E+03  0.55325716821E+03  0.93237193568E+02 0.  0.
          4    1    3    3  502    0  0.33230563948E+02  0.75024498750E+03  0.17498446746E+04  0.19041870173E+04  0.00000000000E+00 0. -1.
         -3    1    3    3    0  502 -0.10429408855E+02  0.14162654352E+02  0.49195024771E+02  0.52244653406E+02  0.00000000000E+00 0.  1.
         11    1    5    5    0    0  0.53472258161E+02 -0.12010431480E+03  0.19214423119E+03  0.23281695473E+03  0.00000000000E+00 0. -1.
        -11    1    5    5    0    0  0.32913296233E+03 -0.44110853691E+03  0.57832680004E+03  0.79835276405E+03  0.00000000000E+00 0.  1.
          4    1    6    6  503    0 -0.21974200901E+02 -0.28983095992E+02  0.50567250660E+02  0.62289101758E+02  0.00000000000E+00 0. -1.
         -4    1    6    6    0  503 -0.38343217468E+03 -0.17421169414E+03  0.25234836103E+03  0.49096806645E+03  0.00000000000E+00 0.  1.
<mgrwt>
<rscale>  0 0.20704701E+04</rscale>
<asrwt>0</asrwt>
<pdfrwt beam="1">  1        2 0.49332959E+00 0.20704701E+04</pdfrwt>
<pdfrwt beam="2">  1       -1 0.51417865E-01 0.20704701E+04</pdfrwt>
<totfact> 0.51510837E+00</totfact>
</mgrwt>
</event>
<event>
12    6  0.1586493E-007  0.2326366E+04  0.7818608E-02  0.8467597E-01
          2   -1    0    0  501    0  0.00000000000E+00  0.00000000000E+00  0.26312537578E+04  0.26312537578E+04  0.00000000000E+00 0. -1.
         -1   -1    0    0    0  501 -0.00000000000E+00 -0.00000000000E+00 -0.51420170100E+03  0.51420170100E+03  0.00000000000E+00 0.  1.
         24    2    1    2    0    0 -0.59594129666E+02  0.89566595304E+03  0.33011121334E+03  0.95972957615E+03  0.79614611930E+02 0.  0.
        254    2    1    2    0    0  0.59594129666E+02 -0.89566595304E+03  0.17869408434E+04  0.21857258826E+04  0.88231009078E+03 0.  0.
         23    2    4    4    0    0 -0.15327617473E+03  0.95254934503E+02  0.53653886975E+03  0.57362928900E+03  0.92787467713E+02 0.  0.
         23    2    4    4    0    0  0.21287030439E+03 -0.99092088755E+03  0.12504019737E+04  0.16120965936E+04  0.90068637676E+02 0.  0.
          4    1    3    3  502    0 -0.64138463140E+01  0.32993354535E+02 -0.23261054255E+01  0.33691388135E+02  0.00000000000E+00 0. -1.
         -3    1    3    3    0  502 -0.53180283352E+02  0.86267259851E+03  0.33243731876E+03  0.92603818801E+03  0.00000000000E+00 0.  1.
         11    1    5    5    0    0 -0.30305324347E+02  0.65992509857E+02  0.14458631388E+03  0.16179810321E+03  0.00000000000E+00 0. -1.
        -11    1    5    5    0    0 -0.12297085038E+03  0.29262424646E+02  0.39195255587E+03  0.41183118579E+03  0.00000000000E+00 0.  1.
          2    1    6    6  503    0  0.10986794876E+03 -0.44200363973E+03  0.49499280629E+03  0.67264854269E+03  0.00000000000E+00 0.  1.
         -2    1    6    6    0  503  0.10300235564E+03 -0.54891724781E+03  0.75540916739E+03  0.93944805093E+03  0.00000000000E+00 0. -1.
<mgrwt>
<rscale>  0 0.23263664E+04</rscale>
<asrwt>0</asrwt>
<pdfrwt beam="1">  1        2 0.40480826E+00 0.23263664E+04</pdfrwt>
<pdfrwt beam="2">  1       -1 0.79107955E-01 0.23263664E+04</pdfrwt>
<totfact> 0.47965697E+00</totfact>
</mgrwt>
</event>
<event>
12    6  0.1586493E-007  0.1594956E+04  0.7818608E-02  0.8823653E-01
          2   -1    0    0  501    0  0.00000000000E+00  0.00000000000E+00  0.14448092548E+04  0.14448092548E+04  0.00000000000E+00 0. -1.
         -1   -1    0    0    0  501 -0.00000000000E+00 -0.00000000000E+00 -0.44017640328E+03  0.44017640328E+03  0.00000000000E+00 0.  1.
         24    2    1    2    0    0 -0.53659474903E+03  0.19691213689E+02  0.34496921603E+03  0.64276424280E+03  0.76291829380E+02 0.  0.
        254    2    1    2    0    0  0.53659474903E+03 -0.19691213689E+02  0.65966363551E+03  0.12422214153E+04  0.90533765195E+03 0.  0.
         23    2    4    4    0    0  0.55670886524E+03 -0.24109713926E+03  0.76446706088E+03  0.98008146145E+03  0.89984402616E+02 0.  0.
         23    2    4    4    0    0 -0.20114116208E+02  0.22140592557E+03 -0.10480342537E+03  0.26213995385E+03  0.91150621994E+02 0.  0.
          2    1    3    3  502    0 -0.20453542331E+03  0.92583886969E+01  0.88451644272E+02  0.22303396720E+03  0.00000000000E+00 0. -1.
         -1    1    3    3    0  502 -0.33205932572E+03  0.10432824992E+02  0.25651757176E+03  0.41973027560E+03  0.00000000000E+00 0.  1.
         11    1    5    5    0    0  0.53933222890E+03 -0.21610594514E+03  0.70755527290E+03  0.91554109513E+03  0.00000000000E+00 0. -1.
        -11    1    5    5    0    0  0.17376636334E+02 -0.24991194122E+02  0.56911787985E+02  0.64540366326E+02  0.00000000000E+00 0.  1.
          2    1    6    6  503    0 -0.19212526988E+02  0.13901421313E+03 -0.16398692975E+02  0.14129044475E+03  0.00000000000E+00 0. -1.
         -2    1    6    6    0  503 -0.90158922003E+00  0.82391712438E+02 -0.88404732396E+02  0.12084950911E+03  0.00000000000E+00 0.  1.
<mgrwt>
<rscale>  0 0.15949557E+04</rscale>
<asrwt>0</asrwt>
<pdfrwt beam="1">  1        2 0.22227834E+00 0.15949557E+04</pdfrwt>
<pdfrwt beam="2">  1       -1 0.67719447E-01 0.15949557E+04</pdfrwt>
<totfact> 0.32932763E+01</totfact>
</mgrwt>
</event>
<event>
12    6  0.1586493E-007  0.1491086E+04  0.7818608E-02  0.8890402E-01
         -1   -1    0    0    0  501 -0.00000000000E+00  0.00000000000E+00  0.38796985203E+03  0.38796985203E+03  0.00000000000E+00 0.  1.
          2   -1    0    0  501    0  0.00000000000E+00 -0.00000000000E+00 -0.14326738679E+04  0.14326738679E+04  0.00000000000E+00 0. -1.
         24    2    1    2    0    0  0.23724291962E+03 -0.25250909758E+03  0.42406905729E+02  0.35846657254E+03  0.81577513473E+02 0.  0.
        254    2    1    2    0    0 -0.23724291962E+03  0.25250909758E+03 -0.10871109216E+04  0.14621771474E+04  0.91438876155E+03 0.  0.
         23    2    4    4    0    0 -0.33702724060E+03  0.33424028766E+03 -0.11823064492E+04  0.12773143829E+04  0.91539948739E+02 0.  0.
         23    2    4    4    0    0  0.99784320982E+02 -0.81731190089E+02  0.95195527578E+02  0.18486276449E+03  0.92060605450E+02 0.  0.
          2    1    3    3  502    0  0.53730888741E+01 -0.21767797451E+02  0.20887574323E+02  0.30643071827E+02  0.00000000000E+00 0. -1.
         -1    1    3    3    0  502  0.23186983075E+03 -0.23074130013E+03  0.21519331407E+02  0.32782350071E+03  0.00000000000E+00 0.  1.
         11    1    5    5    0    0 -0.24289862887E+03  0.24131610960E+03 -0.95237530493E+03  0.10120533237E+04  0.00000000000E+00 0.  1.
        -11    1    5    5    0    0 -0.94128611734E+02  0.92924178068E+02 -0.22993114428E+03  0.26526105919E+03  0.00000000000E+00 0. -1.
          4    1    6    6  503    0  0.21061952624E+02 -0.31548322885E+02  0.82297634839E+02  0.90619000354E+02  0.00000000000E+00 0.  1.
         -4    1    6    6    0  503  0.78722368358E+02 -0.50182867204E+02  0.12897892739E+02  0.94243764133E+02  0.00000000000E+00 0. -1.
<mgrwt>
<rscale>  0 0.14910859E+04</rscale>
<asrwt>0</asrwt>
<pdfrwt beam="1">  1        2 0.22041136E+00 0.14910859E+04</pdfrwt>
<pdfrwt beam="2">  1       -1 0.59687670E-01 0.14910859E+04</pdfrwt>
<totfact> 0.43462263E+01</totfact>
</mgrwt>
</event>
<event>
12    6  0.1586493E-007  0.1354043E+04  0.7818608E-02  0.8987773E-01
         -3   -1    0    0    0  501 -0.00000000000E+00  0.00000000000E+00  0.12745498292E+04  0.12745498292E+04  0.00000000000E+00 0.  1.
          4   -1    0    0  501    0  0.00000000000E+00 -0.00000000000E+00 -0.35962367698E+03  0.35962367698E+03  0.00000000000E+00 0. -1.
         24    2    1    2    0    0  0.18995603665E+03 -0.26399286233E+03  0.53765278227E+02  0.34636263289E+03  0.10630541425E+03 0.  0.
        254    2    1    2    0    0 -0.18995603665E+03  0.26399286233E+03  0.86116087398E+03  0.12878108733E+04  0.90060161407E+03 0.  0.
         23    2    4    4    0    0 -0.45552882851E+03  0.32002701512E+03  0.81842177998E+03  0.99470058172E+03  0.98444061909E+02 0.  0.
         23    2    4    4    0    0  0.26557279186E+03 -0.56034152789E+02  0.42739093999E+02  0.29311029157E+03  0.10206997018E+03 0.  0.
          4    1    3    3  502    0  0.91697057822E+02 -0.91907058531E+02 -0.26598774285E+02  0.13252453590E+03  0.00000000000E+00 0. -1.
         -3    1    3    3    0  502  0.98258978827E+02 -0.17208580379E+03  0.80364052512E+02  0.21383809699E+03  0.00000000000E+00 0.  1.
         11    1    5    5    0    0 -0.29111589545E+02  0.31807335045E+02  0.11708481976E+03  0.12477197693E+03  0.00000000000E+00 0. -1.
        -11    1    5    5    0    0 -0.42641723896E+03  0.28821968007E+03  0.70133696022E+03  0.86992860479E+03  0.00000000000E+00 0.  1.
          1    1    6    6  503    0  0.79541315335E+02  0.25734517871E+02  0.32332280740E+02  0.89635164044E+02  0.00000000000E+00 0. -1.
         -1    1    6    6    0  503  0.18603147652E+03 -0.81768670660E+02  0.10406813260E+02  0.20347512752E+03  0.00000000000E+00 0.  1.
<mgrwt>
<rscale>  0 0.13540433E+04</rscale>
<asrwt>0</asrwt>
<pdfrwt beam="1">  1        4 0.55326720E-01 0.13540433E+04</pdfrwt>
<pdfrwt beam="2">  1       -3 0.19608459E+00 0.13540433E+04</pdfrwt>
<totfact> 0.10817596E+00</totfact>
</mgrwt>
</event>
<event>
12    6  0.1586493E-007  0.1241915E+04  0.7818608E-02  0.9076939E-01
         -1   -1    0    0    0  501 -0.00000000000E+00  0.00000000000E+00  0.24739509928E+03  0.24739509928E+03  0.00000000000E+00 0.  1.
          2   -1    0    0  501    0  0.00000000000E+00 -0.00000000000E+00 -0.15585939305E+04  0.15585939305E+04  0.00000000000E+00 0. -1.
         24    2    1    2    0    0 -0.20191416930E+03 -0.17537958097E+03 -0.17066038581E+03  0.32854723515E+03  0.85387289746E+02 0.  0.
        254    2    1    2    0    0  0.20191416930E+03  0.17537958097E+03 -0.11405384454E+04  0.14774417946E+04  0.90026606172E+03 0.  0.
         23    2    4    4    0    0  0.37331928920E+01  0.13659381767E+03 -0.12279352020E+04  0.12389769512E+04  0.92559265407E+02 0.  0.
         23    2    4    4    0    0  0.19818097641E+03  0.38785763301E+02  0.87396756583E+02  0.23846484341E+03  0.91908942085E+02 0.  0.
          4    1    3    3  502    0 -0.13193794155E+02 -0.39233667710E+02 -0.54571783061E+02  0.68494061002E+02  0.00000000000E+00 0. -1.
         -3    1    3    3    0  502 -0.18872037515E+03 -0.13614591327E+03 -0.11608860275E+03  0.26005317415E+03  0.00000000000E+00 0.  1.
         11    1    5    5    0    0 -0.12203906886E+02 -0.96419862700E+01 -0.19508385086E+03  0.19570286689E+03  0.00000000000E+00 0.  1.
        -11    1    5    5    0    0  0.15937099778E+02  0.14623580394E+03 -0.10328513512E+04  0.10432740844E+04  0.00000000000E+00 0. -1.
          4    1    6    6  503    0  0.19873649710E+03  0.28494008486E+02  0.60539333214E+02  0.20969767444E+03  0.00000000000E+00 0. -1.
         -4    1    6    6    0  503 -0.55552069176E+00  0.10291754816E+02  0.26857423369E+02  0.28767168968E+02  0.00000000000E+00 0.  1.
<mgrwt>
<rscale>  0 0.12419155E+04</rscale>
<asrwt>0</asrwt>
<pdfrwt beam="1">  1        2 0.23978368E+00 0.12419155E+04</pdfrwt>
<pdfrwt beam="2">  1       -1 0.38060785E-01 0.12419155E+04</pdfrwt>
<totfact> 0.87937479E+01</totfact>
</mgrwt>
</event>
<event>
12    6  0.1586493E-007  0.1758584E+04  0.7818608E-02  0.8728640E-01
         -1   -1    0    0    0  501 -0.00000000000E+00  0.00000000000E+00  0.11258680968E+04  0.11258680968E+04  0.00000000000E+00 0.  1.
          2   -1    0    0  501    0  0.00000000000E+00 -0.00000000000E+00 -0.68671816418E+03  0.68671816418E+03  0.00000000000E+00 0. -1.
         24    2    1    2    0    0 -0.18099212216E+03  0.36721096491E+03 -0.36139307477E+03  0.55165054209E+03  0.78174964431E+02 0.  0.
        254    2    1    2    0    0  0.18099212216E+03 -0.36721096491E+03  0.80054300741E+03  0.12609357189E+04  0.88401795200E+03 0.  0.
         23    2    4    4    0    0  0.38076071839E+03 -0.55810660396E+03  0.52948599364E+03  0.86336525204E+03  0.92641431998E+02 0.  0.
         23    2    4    4    0    0 -0.19976859623E+03  0.19089563905E+03  0.27105701377E+03  0.39757046686E+03  0.90783998378E+02 0.  0.
          2    1    3    3  502    0 -0.75407593283E+02  0.23376145845E+03 -0.23210266806E+03  0.33793841614E+03  0.00000000000E+00 0. -1.
         -1    1    3    3    0  502 -0.10558452887E+03  0.13344950647E+03 -0.12929040671E+03  0.21371212595E+03  0.00000000000E+00 0.  1.
         11    1    5    5    0    0  0.12040519464E+03 -0.10764496264E+03  0.11793339614E+03  0.19998283627E+03  0.00000000000E+00 0. -1.
        -11    1    5    5    0    0  0.26035552375E+03 -0.45046164131E+03  0.41155259750E+03  0.66338241576E+03  0.00000000000E+00 0.  1.
          4    1    6    6  503    0 -0.11735623914E+03  0.75892462503E+02  0.84091464191E+02  0.16310587690E+03  0.00000000000E+00 0. -1.
         -4    1    6    6    0  503 -0.82412357084E+02  0.11500317654E+03  0.18696554958E+03  0.23446458996E+03  0.00000000000E+00 0.  1.
<mgrwt>
<rscale>  0 0.17585836E+04</rscale>
<asrwt>0</asrwt>
<pdfrwt beam="1">  1        2 0.10564895E+00 0.17585836E+04</pdfrwt>
<pdfrwt beam="2">  1       -1 0.17321048E+00 0.17585836E+04</pdfrwt>
<totfact> 0.10582606E+01</totfact>
</mgrwt>
</event>
<event>
12    6  0.1586493E-007  0.1355675E+04  0.7818608E-02  0.8986543E-01
         -1   -1    0    0    0  501 -0.00000000000E+00  0.00000000000E+00  0.23040225401E+03  0.23040225401E+03  0.00000000000E+00 0.  1.
          2   -1    0    0  501    0  0.00000000000E+00 -0.00000000000E+00 -0.19941814414E+04  0.19941814414E+04  0.00000000000E+00 0. -1.
         24    2    1    2    0    0 -0.22047689715E+03  0.72797296546E+02 -0.97472700297E+03  0.10051565427E+04  0.79608017814E+02 0.  0.
        254    2    1    2    0    0  0.22047689715E+03 -0.72797296546E+02 -0.78905218445E+03  0.12194271527E+04  0.90027202691E+03 0.  0.
         23    2    4    4    0    0  0.48166484423E+03  0.47708930889E+02 -0.77426315693E+03  0.91760708958E+03  0.90786399928E+02 0.  0.
         23    2    4    4    0    0 -0.26118794708E+03 -0.12050622744E+03 -0.14789027524E+02  0.30182006314E+03  0.90198340486E+02 0.  0.
          4    1    3    3  502    0 -0.12713501402E+03  0.69085600781E+02 -0.70545660045E+03  0.72014244920E+03  0.00000000000E+00 0. -1.
         -3    1    3    3    0  502 -0.93341883139E+02  0.37116957653E+01 -0.26927040252E+03  0.28501409352E+03  0.00000000000E+00 0.  1.
         11    1    5    5    0    0  0.44681216668E+03  0.38599398201E+02 -0.66122613756E+03  0.79896872956E+03  0.00000000000E+00 0.  1.
        -11    1    5    5    0    0  0.34852677554E+02  0.91095326882E+01 -0.11303701937E+03  0.11863836001E+03  0.00000000000E+00 0. -1.
          3    1    6    6  503    0  0.49603085946E+01 -0.99809694517E+01 -0.77016666636E+01  0.13547696555E+02  0.00000000000E+00 0. -1.
         -3    1    6    6    0  503 -0.26614825567E+03 -0.11052525798E+03 -0.70873608601E+01  0.28827236658E+03  0.00000000000E+00 0.  1.
<mgrwt>
<rscale>  0 0.13556753E+04</rscale>
<asrwt>0</asrwt>
<pdfrwt beam="1">  1        2 0.30679714E+00 0.13556753E+04</pdfrwt>
<pdfrwt beam="2">  1       -1 0.35446501E-01 0.13556753E+04</pdfrwt>
<totfact> 0.56826551E+01</totfact>
</mgrwt>
</event>
<event>
12    6  0.1586493E-007  0.2338303E+04  0.7818608E-02  0.8462970E-01
         -1   -1    0    0    0  501 -0.00000000000E+00  0.00000000000E+00  0.56596641362E+03  0.56596641362E+03  0.00000000000E+00 0.  1.
          2   -1    0    0  501    0  0.00000000000E+00 -0.00000000000E+00 -0.24151878371E+04  0.24151878371E+04  0.00000000000E+00 0. -1.
         24    2    1    2    0    0 -0.95028971557E+03  0.27805032131E+02 -0.42417765214E+03  0.10441653960E+04  0.80814790761E+02 0.  0.
        254    2    1    2    0    0  0.95028971557E+03 -0.27805032131E+02 -0.14250437713E+04  0.19369888546E+04  0.90407544460E+03 0.  0.
         23    2    4    4    0    0  0.60224329379E+03  0.99343474346E+02 -0.14278940297E+04  0.15555612944E+04  0.91233050822E+02 0.  0.
         23    2    4    4    0    0  0.34804642178E+03 -0.12714850648E+03  0.28502584179E+01  0.38142756029E+03  0.90420160139E+02 0.  0.
          4    1    3    3  502    0 -0.70781783794E+03 -0.93426126410E+01 -0.33512581523E+03  0.78320028610E+03  0.00000000000E+00 0. -1.
         -3    1    3    3    0  502 -0.24247187763E+03  0.37147644772E+02 -0.89051836907E+02  0.26096510995E+03  0.00000000000E+00 0.  1.
         11    1    5    5    0    0  0.55362945809E+03  0.10914370335E+03 -0.13504121217E+04  0.14635678404E+04  0.00000000000E+00 0.  1.
        -11    1    5    5    0    0  0.48613835692E+02 -0.98002290001E+01 -0.77481907981E+02  0.91993453971E+02  0.00000000000E+00 0. -1.
          1    1    6    6  503    0  0.19367702279E+03 -0.35010339065E+02 -0.28721260633E+02  0.19890053748E+03  0.00000000000E+00 0. -1.
         -1    1    6    6    0  503  0.15436939899E+03 -0.92138167411E+02  0.31571519051E+02  0.18252702280E+03  0.00000000000E+00 0.  1.
<mgrwt>
<rscale>  0 0.23383030E+04</rscale>
<asrwt>0</asrwt>
<pdfrwt beam="1">  1        2 0.37156735E+00 0.23383030E+04</pdfrwt>
<pdfrwt beam="2">  1       -1 0.87071757E-01 0.23383030E+04</pdfrwt>
<totfact> 0.52043508E+00</totfact>
</mgrwt>
</event>
<event>
12    6  0.1586493E-007  0.1455326E+04  0.7818608E-02  0.8914716E-01
          4   -1    0    0  501    0  0.00000000000E+00  0.00000000000E+00  0.28548859720E+03  0.28548859720E+03  0.00000000000E+00 0. -1.
         -3   -1    0    0    0  501 -0.00000000000E+00 -0.00000000000E+00 -0.18546925531E+04  0.18546925531E+04  0.00000000000E+00 0.  1.
         24    2    1    2    0    0 -0.86705380564E+02  0.14831896578E+03 -0.10809945871E+04  0.10974414931E+04  0.79449322277E+02 0.  0.
        254    2    1    2    0    0  0.86705380564E+02 -0.14831896578E+03 -0.48820936875E+03  0.10427396571E+04  0.90522995211E+03 0.  0.
         23    2    4    4    0    0  0.24301358909E+03  0.32014277184E+03 -0.27752972081E+03  0.49825987351E+03  0.98453830658E+02 0.  0.
         23    2    4    4    0    0 -0.15630820853E+03 -0.46846173763E+03 -0.21067964794E+03  0.54447978363E+03  0.90463611738E+02 0.  0.
          2    1    3    3  502    0  0.35651244780E+01  0.63917343067E+02 -0.44128923186E+03  0.44590842447E+03  0.00000000000E+00 0. -1.
         -1    1    3    3    0  502 -0.90270505042E+02  0.84401622716E+02 -0.63970535528E+03  0.65153306867E+03  0.00000000000E+00 0.  1.
         11    1    5    5    0    0  0.25284355065E+02  0.87499052476E+01 -0.46284014288E+02  0.53460914989E+02  0.00000000000E+00 0.  1.
        -11    1    5    5    0    0  0.21772923403E+03  0.31139286660E+03 -0.23124570652E+03  0.44479895852E+03  0.00000000000E+00 0. -1.
          3    1    6    6  503    0 -0.10752888954E+03 -0.41240540432E+03 -0.16361175797E+03  0.45651887907E+03  0.00000000000E+00 0. -1.
         -3    1    6    6    0  503 -0.48779318991E+02 -0.56056333307E+02 -0.47067889969E+02  0.87960904561E+02  0.00000000000E+00 0.  1.
<mgrwt>
<rscale>  0 0.14553262E+04</rscale>
<asrwt>0</asrwt>
<pdfrwt beam="1">  1        4 0.43921325E-01 0.14553262E+04</pdfrwt>
<pdfrwt beam="2">  1       -3 0.28533730E+00 0.14553262E+04</pdfrwt>
<totfact> 0.51704925E-01</totfact>
</mgrwt>
</event>
<event>
12    6  0.1586493E-007  0.1502408E+04  0.7818608E-02  0.8882853E-01
          2   -1    0    0  501    0  0.00000000000E+00  0.00000000000E+00  0.10783241545E+04  0.10783241545E+04  0.00000000000E+00 0. -1.
         -1   -1    0    0    0  501 -0.00000000000E+00 -0.00000000000E+00 -0.52331886206E+03  0.52331886206E+03  0.00000000000E+00 0.  1.
         24    2    1    2    0    0  0.14324317896E+03 -0.44242063055E+03  0.29979525291E+03  0.55908817698E+03  0.80298028079E+02 0.  0.
        254    2    1    2    0    0 -0.14324317896E+03  0.44242063055E+03  0.25521003949E+03  0.10425548395E+04  0.89751535170E+03 0.  0.
         23    2    4    4    0    0 -0.76354220956E+02 -0.13554520511E+03  0.39754510116E+03  0.43680783365E+03  0.92501385924E+02 0.  0.
         23    2    4    4    0    0 -0.66888958003E+02  0.57796583566E+03 -0.14233506167E+03  0.60574700589E+03  0.90285798841E+02 0.  0.
          2    1    3    3  502    0  0.14203451688E+03 -0.38575825011E+03  0.23701274408E+03  0.47450845342E+03  0.00000000000E+00 0. -1.
         -1    1    3    3    0  502  0.12086620736E+01 -0.56662380444E+02  0.62782508835E+02  0.84579723558E+02  0.00000000000E+00 0.  1.
         11    1    5    5    0    0 -0.32147391740E+02 -0.78034923853E+02  0.31863821079E+03  0.32962586900E+03  0.00000000000E+00 0.  1.
        -11    1    5    5    0    0 -0.44206829215E+02 -0.57510281254E+02  0.78906890367E+02  0.10718196465E+03  0.00000000000E+00 0. -1.
          2    1    6    6  503    0  0.13963978042E+02  0.13369814303E+03 -0.57858522396E+02  0.14634819693E+03  0.00000000000E+00 0. -1.
         -2    1    6    6    0  503 -0.80852936045E+02  0.44426769263E+03 -0.84476539273E+02  0.45939880896E+03  0.00000000000E+00 0.  1.
<mgrwt>
<rscale>  0 0.15024079E+04</rscale>
<asrwt>0</asrwt>
<pdfrwt beam="1">  1        2 0.16589602E+00 0.15024079E+04</pdfrwt>
<pdfrwt beam="2">  1       -1 0.80510595E-01 0.15024079E+04</pdfrwt>
<totfact> 0.38110300E+01</totfact>
</mgrwt>
</event>
<event>
12    6  0.1586493E-007  0.1600723E+04  0.7818608E-02  0.8820104E-01
         -1   -1    0    0    0  501 -0.00000000000E+00  0.00000000000E+00  0.42773955749E+03  0.42773955749E+03  0.00000000000E+00 0.  1.
          2   -1    0    0  501    0  0.00000000000E+00 -0.00000000000E+00 -0.14975906247E+04  0.14975906247E+04  0.00000000000E+00 0. -1.
         24    2    1    2    0    0  0.39824450570E+02  0.50718842774E+03 -0.63855820059E+03  0.82011859308E+03  0.77536076006E+02 0.  0.
        254    2    1    2    0    0 -0.39824450570E+02 -0.50718842774E+03 -0.43129286658E+03  0.11052115891E+04  0.88127920194E+03 0.  0.
         23    2    4    4    0    0  0.55799351259E+02 -0.68214823621E+03 -0.52627304869E+03  0.86824616440E+03  0.91914615037E+02 0.  0.
         23    2    4    4    0    0 -0.95623801829E+02  0.17495980847E+03  0.94980182109E+02  0.23696542468E+03  0.85886736132E+02 0.  0.
          2    1    3    3  502    0  0.33044259377E+01  0.12464724633E+03 -0.21232959812E+03  0.24623507769E+03  0.00000000000E+00 0. -1.
         -1    1    3    3    0  502  0.36520024632E+02  0.38254118141E+03 -0.42622860248E+03  0.57388351540E+03  0.00000000000E+00 0.  1.
         11    1    5    5    0    0  0.14797907106E+02 -0.57768959674E+03 -0.45233230206E+03  0.73385881457E+03  0.00000000000E+00 0. -1.
        -11    1    5    5    0    0  0.41001444153E+02 -0.10445863947E+03 -0.73940746624E+02  0.13438734983E+03  0.00000000000E+00 0.  1.
          3    1    6    6  503    0 -0.88320352345E+02  0.18340272117E+03  0.97210553842E+02  0.22558132580E+03  0.00000000000E+00 0. -1.
         -3    1    6    6    0  503 -0.73034494842E+01 -0.84429127000E+01 -0.22303717331E+01  0.11384098879E+02  0.00000000000E+00 0.  1.
<mgrwt>
<rscale>  0 0.16007233E+04</rscale>
<asrwt>0</asrwt>
<pdfrwt beam="1">  1        2 0.23039856E+00 0.16007233E+04</pdfrwt>
<pdfrwt beam="2">  1       -1 0.65806085E-01 0.16007233E+04</pdfrwt>
<totfact> 0.32565176E+01</totfact>
</mgrwt>
</event>
<event>
12    6  0.1586493E-007  0.2132833E+04  0.7818608E-02  0.8546917E-01
         -1   -1    0    0    0  501 -0.00000000000E+00  0.00000000000E+00  0.53042821599E+03  0.53042821599E+03  0.00000000000E+00 0.  1.
          2   -1    0    0  501    0  0.00000000000E+00 -0.00000000000E+00 -0.21440104738E+04  0.21440104738E+04  0.00000000000E+00 0. -1.
         24    2    1    2    0    0  0.46147829826E+03  0.54385927691E+03 -0.12684781034E+04  0.14574116071E+04  0.79162876092E+02 0.  0.
        254    2    1    2    0    0 -0.46147829826E+03 -0.54385927691E+03 -0.34510415440E+03  0.12170270827E+04  0.92374937601E+03 0.  0.
         23    2    4    4    0    0  0.25697483313E+03 -0.21266407611E+03 -0.22307061270E+03  0.41116700283E+03  0.89642243617E+02 0.  0.
         23    2    4    4    0    0 -0.71845313139E+03 -0.33119520080E+03 -0.12203354171E+03  0.80586007982E+03  0.93022147451E+02 0.  0.
          2    1    3    3  502    0  0.29550120157E+03  0.36813151442E+03 -0.76521201442E+03  0.89910577745E+03  0.00000000000E+00 0. -1.
         -1    1    3    3    0  502  0.16597709669E+03  0.17572776249E+03 -0.50326608899E+03  0.55830582969E+03  0.00000000000E+00 0.  1.
         11    1    5    5    0    0  0.99956267358E+02 -0.12911733800E+03 -0.74777041867E+02  0.17959439954E+03  0.00000000000E+00 0. -1.
        -11    1    5    5    0    0  0.15701856577E+03 -0.83546738107E+02 -0.14829357083E+03  0.23157260329E+03  0.00000000000E+00 0.  1.
          4    1    6    6  503    0 -0.11529853373E+03 -0.29783572629E+02 -0.44574353865E+02  0.12715221626E+03  0.00000000000E+00 0. -1.
         -4    1    6    6    0  503 -0.60315459766E+03 -0.30141162817E+03 -0.77459187840E+02  0.67870786356E+03  0.00000000000E+00 0.  1.
<mgrwt>
<rscale>  0 0.21328325E+04</rscale>
<asrwt>0</asrwt>
<pdfrwt beam="1">  1        2 0.32984777E+00 0.21328325E+04</pdfrwt>
<pdfrwt beam="2">  1       -1 0.81604340E-01 0.21328325E+04</pdfrwt>
<totfact> 0.86823364E+00</totfact>
</mgrwt>
</event>
<event>
12    6  0.1586493E-007  0.3245488E+04  0.7818608E-02  0.8176906E-01
          2   -1    0    0  501    0  0.00000000000E+00  0.00000000000E+00  0.15618368033E+04  0.15618368033E+04  0.00000000000E+00 0. -1.
         -1   -1    0    0    0  501 -0.00000000000E+00 -0.00000000000E+00 -0.16860258990E+04  0.16860258990E+04  0.00000000000E+00 0.  1.
         24    2    1    2    0    0  0.10193460573E+04  0.29052429397E+03  0.10002225271E+04  0.14594303543E+04  0.77595781393E+02 0.  0.
        254    2    1    2    0    0 -0.10193460573E+04 -0.29052429397E+03 -0.11244116228E+04  0.17884323480E+04  0.90039880941E+03 0.  0.
         23    2    4    4    0    0 -0.64602371180E+03 -0.60737143953E+03 -0.74891782502E+03  0.11644891345E+04  0.94394565146E+02 0.  0.
         23    2    4    4    0    0 -0.37332234549E+03  0.31684714556E+03 -0.37549379781E+03  0.62394321354E+03  0.92454606373E+02 0.  0.
          4    1    3    3  502    0  0.45935905152E+03  0.16643344863E+03  0.48505981370E+03  0.68847211556E+03  0.00000000000E+00 0. -1.
         -3    1    3    3    0  502  0.55998700577E+03  0.12409084535E+03  0.51516271341E+03  0.77095823870E+03  0.00000000000E+00 0.  1.
         11    1    5    5    0    0 -0.57360998122E+02 -0.34848583607E+02 -0.31770413701E+02  0.74256764485E+02  0.00000000000E+00 0. -1.
        -11    1    5    5    0    0 -0.58866271368E+03 -0.57252285592E+03 -0.71714741132E+03  0.10902323700E+04  0.00000000000E+00 0.  1.
          1    1    6    6  503    0 -0.43313714231E+02  0.59856458548E+02 -0.94916570390E+02  0.12028311937E+03  0.00000000000E+00 0. -1.
         -1    1    6    6    0  503 -0.33000863126E+03  0.25699068701E+03 -0.28057722742E+03  0.50366009417E+03  0.00000000000E+00 0.  1.
<mgrwt>
<rscale>  0 0.32454875E+04</rscale>
<asrwt>0</asrwt>
<pdfrwt beam="1">  1        2 0.24028259E+00 0.32454875E+04</pdfrwt>
<pdfrwt beam="2">  1       -1 0.25938860E+00 0.32454875E+04</pdfrwt>
<totfact> 0.67748171E-01</totfact>
</mgrwt>
</event>
<event>
12    6  0.1586493E-007  0.1549896E+04  0.7818608E-02  0.8851934E-01
         -1   -1    0    0    0  501 -0.00000000000E+00  0.00000000000E+00  0.10140088608E+04  0.10140088608E+04  0.00000000000E+00 0.  1.
          2   -1    0    0  501    0  0.00000000000E+00 -0.00000000000E+00 -0.59224802487E+03  0.59224802487E+03  0.00000000000E+00 0. -1.
         24    2    1    2    0    0  0.28404538741E+01 -0.49801767208E+01  0.68286103265E+03  0.68749139395E+03  0.79450339887E+02 0.  0.
        254    2    1    2    0    0 -0.28404538741E+01  0.49801767208E+01 -0.26110019670E+03  0.91876549174E+03  0.88086539594E+03 0.  0.
         23    2    4    4    0    0  0.59533620443E+02  0.17771485569E+03 -0.53632733768E+03  0.57574176817E+03  0.93299242116E+02 0.  0.
         23    2    4    4    0    0 -0.62374074317E+02 -0.17273467897E+03  0.27522714097E+03  0.34302372357E+03  0.90484812752E+02 0.  0.
          4    1    3    3  502    0  0.40577149852E+02 -0.17773980367E+01  0.41164552307E+03  0.41364441359E+03  0.00000000000E+00 0. -1.
         -3    1    3    3    0  502 -0.37736695978E+02 -0.32027786841E+01  0.27121550958E+03  0.27384698036E+03  0.00000000000E+00 0.  1.
         11    1    5    5    0    0  0.25473190797E+02  0.15844758220E+03 -0.34562493321E+03  0.38106576101E+03  0.00000000000E+00 0. -1.
        -11    1    5    5    0    0  0.34060429646E+02  0.19267273486E+02 -0.19070240447E+03  0.19467600716E+03  0.00000000000E+00 0.  1.
          4    1    6    6  503    0 -0.56309681833E+02 -0.18363135941E+03  0.25466878987E+03  0.31897875942E+03  0.00000000000E+00 0. -1.
         -4    1    6    6    0  503 -0.60643924842E+01  0.10896680444E+02  0.20558351101E+02  0.24044964148E+02  0.00000000000E+00 0.  1.
<mgrwt>
<rscale>  0 0.15498964E+04</rscale>
<asrwt>0</asrwt>
<pdfrwt beam="1">  1        2 0.91115081E-01 0.15498964E+04</pdfrwt>
<pdfrwt beam="2">  1       -1 0.15600136E+00 0.15498964E+04</pdfrwt>
<totfact> 0.17374236E+01</totfact>
</mgrwt>
</event>
<event>
12    6  0.1586493E-007  0.2247604E+04  0.7818608E-02  0.8498872E-01
          2   -1    0    0  501    0  0.00000000000E+00  0.00000000000E+00  0.13880923118E+04  0.13880923118E+04  0.00000000000E+00 0. -1.
         -1   -1    0    0    0  501 -0.00000000000E+00 -0.00000000000E+00 -0.90983185898E+03  0.90983185898E+03  0.00000000000E+00 0.  1.
         24    2    1    2    0    0 -0.46484091797E+03 -0.49912418013E+03  0.86457237135E+03  0.11040951382E+04  0.79615718375E+02 0.  0.
        254    2    1    2    0    0  0.46484091797E+03  0.49912418013E+03 -0.38631191854E+03  0.11938290326E+04  0.90043813472E+03 0.  0.
         23    2    4    4    0    0  0.65767570390E+01  0.45398230535E+03 -0.52965518874E+03  0.70336151464E+03  0.89663894697E+02 0.  0.
         23    2    4    4    0    0  0.45826416093E+03  0.45141874783E+02  0.14334327020E+03  0.49046751796E+03  0.89259526158E+02 0.  0.
          4    1    3    3  502    0 -0.46421092983E+03 -0.49509375111E+03  0.86554740103E+03  0.10999008652E+04  0.00000000000E+00 0. -1.
         -3    1    3    3    0  502 -0.62998814268E+00 -0.40304290250E+01 -0.97502967733E+00  0.41942730070E+01  0.00000000000E+00 0.  1.
         11    1    5    5    0    0  0.18399707536E+02  0.38288835148E+03 -0.39374269050E+03  0.54952283416E+03  0.00000000000E+00 0. -1.
        -11    1    5    5    0    0 -0.11822950497E+02  0.71093953872E+02 -0.13591249824E+03  0.15383868048E+03  0.00000000000E+00 0.  1.
          2    1    6    6  503    0  0.46159036012E+03  0.40574890758E+02  0.14224503389E+03  0.48471190617E+03  0.00000000000E+00 0. -1.
         -2    1    6    6    0  503 -0.33261991870E+01  0.45669840250E+01  0.10982363054E+01  0.57556117919E+01  0.00000000000E+00 0.  1.
<mgrwt>
<rscale>  0 0.22476037E+04</rscale>
<asrwt>0</asrwt>
<pdfrwt beam="1">  1        2 0.21355266E+00 0.22476037E+04</pdfrwt>
<pdfrwt beam="2">  1       -1 0.13997413E+00 0.22476037E+04</pdfrwt>
<totfact> 0.63960269E+00</totfact>
</mgrwt>
</event>
<event>
12    6  0.1586493E-007  0.2542657E+04  0.7818608E-02  0.8387944E-01
          2   -1    0    0  501    0  0.00000000000E+00  0.00000000000E+00  0.16373699108E+04  0.16373699108E+04  0.00000000000E+00 0. -1.
         -1   -1    0    0    0  501 -0.00000000000E+00 -0.00000000000E+00 -0.98711755085E+03  0.98711755085E+03  0.00000000000E+00 0.  1.
         24    2    1    2    0    0 -0.54480874874E+03 -0.12483476321E+03 -0.70506632209E+03  0.90467439892E+03  0.94429649473E+02 0.  0.
        254    2    1    2    0    0  0.54480874874E+03  0.12483476321E+03  0.13553186820E+04  0.17198130627E+04  0.89914845828E+03 0.  0.
         23    2    4    4    0    0  0.33309360253E+03 -0.30449942072E+03  0.28215380347E+03  0.54103840685E+03  0.97162459886E+02 0.  0.
         23    2    4    4    0    0  0.21171514621E+03  0.42933418393E+03  0.10731648785E+04  0.11787746558E+04  0.93143373952E+02 0.  0.
          2    1    3    3  502    0 -0.31561846437E+03 -0.53735112855E+02 -0.33305425804E+03  0.46198226828E+03  0.00000000000E+00 0. -1.
         -1    1    3    3    0  502 -0.22919028437E+03 -0.71099650351E+02 -0.37201206405E+03  0.44269213063E+03  0.00000000000E+00 0.  1.
         11    1    5    5    0    0  0.25124192720E+03 -0.20677789282E+03  0.15298186385E+03  0.35955952721E+03  0.00000000000E+00 0. -1.
        -11    1    5    5    0    0  0.81851675329E+02 -0.97721527905E+02  0.12917193963E+03  0.18147887964E+03  0.00000000000E+00 0.  1.
          2    1    6    6  503    0 -0.52715106839E+01  0.21366058600E+02  0.86667215520E+02  0.89417579541E+02  0.00000000000E+00 0.  1.
         -2    1    6    6    0  503  0.21698665689E+03  0.40796812533E+03  0.98649766301E+03  0.10893570763E+04  0.00000000000E+00 0. -1.
<mgrwt>
<rscale>  0 0.25426573E+04</rscale>
<asrwt>0</asrwt>
<pdfrwt beam="1">  1        2 0.25190306E+00 0.25426573E+04</pdfrwt>
<pdfrwt beam="2">  1       -1 0.15186424E+00 0.25426573E+04</pdfrwt>
<totfact> 0.36291807E+00</totfact>
</mgrwt>
</event>
<event>
12    6  0.1586493E-007  0.1541158E+04  0.7818608E-02  0.8857535E-01
          2   -1    0    0  501    0  0.00000000000E+00  0.00000000000E+00  0.10702949934E+04  0.10702949934E+04  0.00000000000E+00 0. -1.
         -3   -1    0    0    0  501 -0.00000000000E+00 -0.00000000000E+00 -0.55479312664E+03  0.55479312664E+03  0.00000000000E+00 0.  1.
         24    2    1    2    0    0  0.13859121589E+03 -0.45281974062E+03  0.35602753377E+03  0.59780579330E+03  0.79767907650E+02 0.  0.
        254    2    1    2    0    0 -0.13859121589E+03  0.45281974062E+03  0.15947433303E+03  0.10272823268E+04  0.89756541456E+03 0.  0.
         23    2    4    4    0    0 -0.42288664071E+03  0.53780622488E+03  0.19010852608E+03  0.71525712180E+03  0.85923525274E+02 0.  0.
         23    2    4    4    0    0  0.28429542482E+03 -0.84986484263E+02 -0.30634193048E+02  0.31202520498E+03  0.91513297838E+02 0.  0.
          2    1    3    3  502    0  0.12866626466E+03 -0.43835504258E+03  0.35764412334E+03  0.58018916740E+03  0.00000000000E+00 0. -1.
         -1    1    3    3    0  502  0.99249512272E+01 -0.14464698038E+02 -0.16165895684E+01  0.17616625898E+02  0.00000000000E+00 0.  1.
         11    1    5    5    0    0 -0.15789495141E+03  0.26710278119E+03  0.73002512330E+02  0.31875394618E+03  0.00000000000E+00 0. -1.
        -11    1    5    5    0    0 -0.26499168930E+03  0.27070344369E+03  0.11710601375E+03  0.39650317562E+03  0.00000000000E+00 0.  1.
          2    1    6    6  503    0  0.95772911487E+02 -0.48935601855E+02  0.28356470696E+02  0.11122604521E+03  0.00000000000E+00 0. -1.
         -2    1    6    6    0  503  0.18852251333E+03 -0.36050882408E+02 -0.58990663743E+02  0.20079915977E+03  0.00000000000E+00 0.  1.
<mgrwt>
<rscale>  0 0.15411584E+04</rscale>
<asrwt>0</asrwt>
<pdfrwt beam="1">  1        2 0.16466077E+00 0.15411584E+04</pdfrwt>
<pdfrwt beam="2">  1       -3 0.85352789E-01 0.15411584E+04</pdfrwt>
<totfact> 0.17488288E+01</totfact>
</mgrwt>
</event>
<event>
12    6  0.1586493E-007  0.1879524E+04  0.7818608E-02  0.8665116E-01
         -1   -1    0    0    0  501 -0.00000000000E+00  0.00000000000E+00  0.36895837378E+03  0.36895837378E+03  0.00000000000E+00 0.  1.
          2   -1    0    0  501    0  0.00000000000E+00 -0.00000000000E+00 -0.23936374578E+04  0.23936374578E+04  0.00000000000E+00 0. -1.
         24    2    1    2    0    0  0.49820455068E+03  0.61887161281E+02 -0.20026051556E+02  0.50913498426E+03  0.82338292474E+02 0.  0.
        254    2    1    2    0    0 -0.49820455068E+03 -0.61887161281E+02 -0.20046530325E+04  0.22534608473E+04  0.89856230431E+03 0.  0.
         23    2    4    4    0    0  0.23283879215E+03 -0.77497724093E+02 -0.79688996818E+03  0.83870764297E+03  0.90427255966E+02 0.  0.
         23    2    4    4    0    0 -0.73104334284E+03  0.15610562812E+02 -0.12077630643E+04  0.14147532043E+04  0.90371184302E+02 0.  0.
          2    1    3    3  502    0  0.91907541305E+02  0.37384409339E+02  0.16027909092E+02  0.10050613951E+03  0.00000000000E+00 0. -1.
         -1    1    3    3    0  502  0.40629700938E+03  0.24502751943E+02 -0.36053960648E+02  0.40862884475E+03  0.00000000000E+00 0.  1.
         11    1    5    5    0    0  0.11131587847E+03 -0.28149246552E+02 -0.51718570616E+03  0.52977793417E+03  0.00000000000E+00 0. -1.
        -11    1    5    5    0    0  0.12152291368E+03 -0.49348477541E+02 -0.27970426202E+03  0.30892970880E+03  0.00000000000E+00 0.  1.
          4    1    6    6  503    0 -0.71343608814E+03  0.29745624201E+02 -0.11657976497E+04  0.13670991237E+04  0.00000000000E+00 0.  1.
         -4    1    6    6    0  503 -0.17607254697E+02 -0.14135061389E+02 -0.41965414610E+02  0.47654080642E+02  0.00000000000E+00 0. -1.
<mgrwt>
<rscale>  0 0.18795240E+04</rscale>
<asrwt>0</asrwt>
<pdfrwt beam="1">  1        2 0.36825191E+00 0.18795240E+04</pdfrwt>
<pdfrwt beam="2">  1       -1 0.56762828E-01 0.18795240E+04</pdfrwt>
<totfact> 0.13460258E+01</totfact>
</mgrwt>
</event>
<event>
12    6  0.1586493E-007  0.1853982E+04  0.7818608E-02  0.8678108E-01
          2   -1    0    0  501    0  0.00000000000E+00  0.00000000000E+00  0.97255084665E+03  0.97255084665E+03  0.00000000000E+00 0. -1.
         -1   -1    0    0    0  501 -0.00000000000E+00 -0.00000000000E+00 -0.88356513881E+03  0.88356513881E+03  0.00000000000E+00 0.  1.
         24    2    1    2    0    0 -0.14079596596E+03 -0.58293497046E+03 -0.33984150353E+03  0.69422113553E+03  0.82547281465E+02 0.  0.
        254    2    1    2    0    0  0.14079596596E+03  0.58293497046E+03  0.42882721137E+03  0.11618948499E+04  0.89803684851E+03 0.  0.
         23    2    4    4    0    0 -0.25408003720E+03  0.54808861007E+03  0.61627737960E+02  0.61410447994E+03  0.91479748561E+02 0.  0.
         23    2    4    4    0    0  0.39487600316E+03  0.34846360393E+02  0.36719947341E+03  0.54779037000E+03  0.89986162751E+02 0.  0.
          4    1    3    3  502    0 -0.67034030243E+01 -0.18157409138E+03 -0.11494309398E+03  0.21500232819E+03  0.00000000000E+00 0. -1.
         -3    1    3    3    0  502 -0.13409256294E+03 -0.40136087908E+03 -0.22489840955E+03  0.47921880734E+03  0.00000000000E+00 0.  1.
         11    1    5    5    0    0 -0.17499104726E+03  0.27929529520E+03  0.52708675663E+02  0.33377527324E+03  0.00000000000E+00 0. -1.
        -11    1    5    5    0    0 -0.79088989942E+02  0.26879331488E+03  0.89190622969E+01  0.28032920669E+03  0.00000000000E+00 0.  1.
          4    1    6    6  503    0  0.37629442212E+03  0.13357134466E+02  0.32787284396E+03  0.49927598277E+03  0.00000000000E+00 0. -1.
         -4    1    6    6    0  503  0.18581581042E+02  0.21489225926E+02  0.39326629447E+02  0.48514387233E+02  0.00000000000E+00 0.  1.
<mgrwt>
<rscale>  0 0.18539817E+04</rscale>
<asrwt>0</asrwt>
<pdfrwt beam="1">  1        2 0.14962321E+00 0.18539817E+04</pdfrwt>
<pdfrwt beam="2">  1       -1 0.13593310E+00 0.18539817E+04</pdfrwt>
<totfact> 0.12737333E+01</totfact>
</mgrwt>
</event>
<event>
12    6  0.1586493E-007  0.1682251E+04  0.7818608E-02  0.8771553E-01
         -1   -1    0    0    0  501 -0.00000000000E+00  0.00000000000E+00  0.51563991569E+03  0.51563991569E+03  0.00000000000E+00 0.  1.
          2   -1    0    0  501    0  0.00000000000E+00 -0.00000000000E+00 -0.13720654275E+04  0.13720654275E+04  0.00000000000E+00 0. -1.
         24    2    1    2    0    0  0.40593469011E+03  0.36044496201E+03 -0.66086695471E+02  0.55479976371E+03  0.93444011152E+02 0.  0.
        254    2    1    2    0    0 -0.40593469011E+03 -0.36044496201E+03 -0.79033881635E+03  0.13329055795E+04  0.92590404251E+03 0.  0.
         23    2    4    4    0    0 -0.12234052908E+03  0.78825666280E+02  0.16540011395E+03  0.23957505616E+03  0.94118643842E+02 0.  0.
         23    2    4    4    0    0 -0.28359416103E+03 -0.43927062829E+03 -0.95573893029E+03  0.10933305233E+04  0.92468358526E+02 0.  0.
          4    1    3    3  502    0  0.10450860315E+03  0.43094483647E+02 -0.89230101881E+01  0.11339666117E+03  0.00000000000E+00 0. -1.
         -3    1    3    3    0  502  0.30142608695E+03  0.31735047836E+03 -0.57163685283E+02  0.44140310253E+03  0.00000000000E+00 0.  1.
         11    1    5    5    0    0 -0.49212088780E+02  0.31082524974E+02  0.69088986304E+01  0.58614724440E+02  0.00000000000E+00 0.  1.
        -11    1    5    5    0    0 -0.73128440299E+02  0.47743141306E+02  0.15849121532E+03  0.18096033172E+03  0.00000000000E+00 0. -1.
          1    1    6    6  503    0 -0.54131384801E+02 -0.66307344406E+02 -0.23368067644E+03  0.24886447976E+03  0.00000000000E+00 0. -1.
         -1    1    6    6    0  503 -0.22946277623E+03 -0.37296328388E+03 -0.72205825385E+03  0.84446604358E+03  0.00000000000E+00 0.  1.
<mgrwt>
<rscale>  0 0.16822505E+04</rscale>
<asrwt>0</asrwt>
<pdfrwt beam="1">  1        2 0.21108699E+00 0.16822505E+04</pdfrwt>
<pdfrwt beam="2">  1       -1 0.79329216E-01 0.16822505E+04</pdfrwt>
<totfact> 0.25899884E+01</totfact>
</mgrwt>
</event>
<event>
12    6  0.1586493E-007  0.2293545E+04  0.7818608E-02  0.8480470E-01
         -1   -1    0    0    0  501 -0.00000000000E+00  0.00000000000E+00  0.10979151761E+04  0.10979151761E+04  0.00000000000E+00 0.  1.
          2   -1    0    0  501    0  0.00000000000E+00 -0.00000000000E+00 -0.11978043919E+04  0.11978043919E+04  0.00000000000E+00 0. -1.
         24    2    1    2    0    0  0.87932747871E+03  0.40449133414E+03 -0.83705102293E+02  0.97474944652E+03  0.79371815689E+02 0.  0.
        254    2    1    2    0    0 -0.87932747871E+03 -0.40449133414E+03 -0.16184113481E+02  0.13209701214E+04  0.89881593327E+03 0.  0.
         23    2    4    4    0    0 -0.40605906619E+03 -0.15424274041E+03  0.43051957430E+03  0.61844383671E+03  0.91928706648E+02 0.  0.
         23    2    4    4    0    0 -0.47326841252E+03 -0.25024859373E+03 -0.44670368778E+03  0.70252628470E+03  0.85974688459E+02 0.  0.
          2    1    3    3  502    0  0.17056179891E+03  0.96581449870E+02 -0.44497909919E+02  0.20099593949E+03  0.00000000000E+00 0. -1.
         -1    1    3    3    0  502  0.70876567981E+03  0.30790988427E+03 -0.39207192374E+02  0.77375350703E+03  0.00000000000E+00 0.  1.
         11    1    5    5    0    0 -0.28323291594E+02 -0.21258212029E+02  0.75001923590E+02  0.82942202573E+02  0.00000000000E+00 0.  1.
        -11    1    5    5    0    0 -0.37773577460E+03 -0.13298452838E+03  0.35551765071E+03  0.53550163414E+03  0.00000000000E+00 0. -1.
          1    1    6    6  503    0 -0.42750682285E+03 -0.25222514945E+03 -0.40638558387E+03  0.64150514603E+03  0.00000000000E+00 0. -1.
         -1    1    6    6    0  503 -0.45761589670E+02  0.19765557183E+01 -0.40318103913E+02  0.61021138672E+02  0.00000000000E+00 0.  1.
<mgrwt>
<rscale>  0 0.22935454E+04</rscale>
<asrwt>0</asrwt>
<pdfrwt beam="1">  1        2 0.18427760E+00 0.22935454E+04</pdfrwt>
<pdfrwt beam="2">  1       -1 0.16891003E+00 0.22935454E+04</pdfrwt>
<totfact> 0.49241378E+00</totfact>
</mgrwt>
</event>
<event>
12    6  0.1586493E-007  0.2044393E+04  0.7818608E-02  0.8586142E-01
         -1   -1    0    0    0  501 -0.00000000000E+00  0.00000000000E+00  0.61216430875E+03  0.61216430875E+03  0.00000000000E+00 0.  1.
          2   -1    0    0  501    0  0.00000000000E+00 -0.00000000000E+00 -0.17068713098E+04  0.17068713098E+04  0.00000000000E+00 0. -1.
         24    2    1    2    0    0 -0.91294617883E+02 -0.64322175248E+03 -0.10142160313E+04  0.12076631222E+04  0.88017772541E+02 0.  0.
        254    2    1    2    0    0  0.91294617883E+02  0.64322175248E+03 -0.80490969711E+02  0.11113724964E+04  0.89810973683E+03 0.  0.
         23    2    4    4    0    0 -0.16182045397E+03  0.91171385381E+02 -0.37662905389E+03  0.42932533242E+03  0.89290066567E+02 0.  0.
         23    2    4    4    0    0  0.25311507186E+03  0.55205036710E+03  0.29613808418E+03  0.68204716396E+03  0.93079114515E+02 0.  0.
          2    1    3    3  502    0 -0.76213349539E+02 -0.49123754715E+03 -0.83909980000E+03  0.97530060840E+03  0.00000000000E+00 0. -1.
         -1    1    3    3    0  502 -0.15081268343E+02 -0.15198420532E+03 -0.17511623134E+03  0.23236251376E+03  0.00000000000E+00 0.  1.
         11    1    5    5    0    0 -0.14383979979E+02  0.46385038390E+02 -0.59985937859E+02  0.77180200877E+02  0.00000000000E+00 0. -1.
        -11    1    5    5    0    0 -0.14743647399E+03  0.44786346991E+02 -0.31664311603E+03  0.35214513154E+03  0.00000000000E+00 0.  1.
          3    1    6    6  503    0 -0.73838171036E+01  0.70208250444E+01  0.31736209372E+01  0.10671673214E+02  0.00000000000E+00 0. -1.
         -3    1    6    6    0  503  0.26049888896E+03  0.54502954205E+03  0.29296446324E+03  0.67137549075E+03  0.00000000000E+00 0.  1.
<mgrwt>
<rscale>  0 0.20443930E+04</rscale>
<asrwt>0</asrwt>
<pdfrwt beam="1">  1        2 0.26259558E+00 0.20443930E+04</pdfrwt>
<pdfrwt beam="2">  1       -1 0.94179126E-01 0.20443930E+04</pdfrwt>
<totfact> 0.11189716E+01</totfact>
</mgrwt>
</event>
<event>
12    6  0.1586493E-007  0.1517039E+04  0.7818608E-02  0.8873201E-01
         -1   -1    0    0    0  501 -0.00000000000E+00  0.00000000000E+00  0.24341612063E+03  0.24341612063E+03  0.00000000000E+00 0.  1.
          2   -1    0    0  501    0  0.00000000000E+00 -0.00000000000E+00 -0.23636550373E+04  0.23636550373E+04  0.00000000000E+00 0. -1.
         24    2    1    2    0    0  0.25813588779E+03 -0.26492164497E+03 -0.12051759348E+04  0.12632931016E+04  0.81503448285E+02 0.  0.
        254    2    1    2    0    0 -0.25813588779E+03  0.26492164497E+03 -0.91506298188E+03  0.13437780564E+04  0.91191095479E+03 0.  0.
         23    2    4    4    0    0 -0.23798331705E+03  0.40107516025E+03 -0.10353225083E+04  0.11391619346E+04  0.91103643036E+02 0.  0.
         23    2    4    4    0    0 -0.20152570736E+02 -0.13615351529E+03  0.12025952640E+03  0.20461612176E+03  0.91986399881E+02 0.  0.
          4    1    3    3  502    0  0.21247653284E+03 -0.20941798241E+03 -0.84771063301E+03  0.89867429344E+03  0.00000000000E+00 0. -1.
         -3    1    3    3    0  502  0.45659354949E+02 -0.55503662559E+02 -0.35746530179E+03  0.36461880812E+03  0.00000000000E+00 0.  1.
         11    1    5    5    0    0 -0.97976191168E+02  0.24703256351E+03 -0.53896728309E+03  0.60092441597E+03  0.00000000000E+00 0. -1.
        -11    1    5    5    0    0 -0.14000712589E+03  0.15404259675E+03 -0.49635522519E+03  0.53823751865E+03  0.00000000000E+00 0.  1.
          2    1    6    6  503    0 -0.55282240971E+02 -0.98309347689E+02  0.71135132233E+02  0.13334564503E+03  0.00000000000E+00 0. -1.
         -2    1    6    6    0  503  0.35129670235E+02 -0.37844167599E+02  0.49124394164E+02  0.71270476735E+02  0.00000000000E+00 0.  1.
<mgrwt>
<rscale>  0 0.15170389E+04</rscale>
<asrwt>0</asrwt>
<pdfrwt beam="1">  1        2 0.36363925E+00 0.15170389E+04</pdfrwt>
<pdfrwt beam="2">  1       -1 0.37448632E-01 0.15170389E+04</pdfrwt>
<totfact> 0.31538478E+01</totfact>
</mgrwt>
</event>
<event>
12    6  0.1586493E-007  0.1465224E+04  0.7818608E-02  0.8907913E-01
          2   -1    0    0  501    0  0.00000000000E+00  0.00000000000E+00  0.39121180100E+04  0.39121180100E+04  0.00000000000E+00 0. -1.
         -1   -1    0    0    0  501 -0.00000000000E+00 -0.00000000000E+00 -0.13719435552E+03  0.13719435552E+03  0.00000000000E+00 0.  1.
         24    2    1    2    0    0 -0.17380326181E+03  0.40158040191E+03  0.13668638247E+04  0.14373589405E+04  0.78801114260E+02 0.  0.
        254    2    1    2    0    0  0.17380326181E+03 -0.40158040191E+03  0.24080598297E+04  0.26119534250E+04  0.91218098948E+03 0.  0.
         23    2    4    4    0    0  0.99473782305E+02  0.15307191418E+03  0.90696769905E+02  0.22626692241E+03  0.98207799230E+02 0.  0.
         23    2    4    4    0    0  0.74329479507E+02 -0.55465231609E+03  0.23173630598E+04  0.23856865026E+04  0.90357479588E+02 0.  0.
          4    1    3    3  502    0 -0.67493853766E+02  0.10157686991E+03  0.47489192144E+03  0.49030155807E+03  0.00000000000E+00 0. -1.
         -1    1    3    3    0  502 -0.10630940805E+03  0.30000353200E+03  0.89197190328E+03  0.94705738247E+03  0.00000000000E+00 0.  1.
         11    1    5    5    0    0  0.65916811197E+02  0.15981156689E+03  0.72004572880E+02  0.18726831400E+03  0.00000000000E+00 0. -1.
        -11    1    5    5    0    0  0.33556971108E+02 -0.67396527147E+01  0.18692197025E+02  0.38998608414E+02  0.00000000000E+00 0.  1.
          1    1    6    6  503    0  0.63416005083E+02 -0.40487605035E+03  0.15183422709E+04  0.15726758908E+04  0.00000000000E+00 0. -1.
         -1    1    6    6    0  503  0.10913474424E+02 -0.14977626574E+03  0.79902078897E+03  0.81301061181E+03  0.00000000000E+00 0.  1.
<mgrwt>
<rscale>  0 0.14652242E+04</rscale>
<asrwt>0</asrwt>
<pdfrwt beam="1">  1        2 0.60186422E+00 0.14652242E+04</pdfrwt>
<pdfrwt beam="2">  1       -1 0.21106827E-01 0.14652242E+04</pdfrwt>
<totfact> 0.84833701E+00</totfact>
</mgrwt>
</event>
<event>
12    6  0.1586493E-007  0.1775131E+04  0.7818608E-02  0.8719637E-01
          2   -1    0    0  501    0  0.00000000000E+00  0.00000000000E+00  0.91535404784E+03  0.91535404784E+03  0.00000000000E+00 0. -1.
         -1   -1    0    0    0  501 -0.00000000000E+00 -0.00000000000E+00 -0.86062061155E+03  0.86062061155E+03  0.00000000000E+00 0.  1.
         24    2    1    2    0    0 -0.54031861304E+03  0.12217731401E+03 -0.33614824179E+03  0.65245976272E+03  0.76397656075E+02 0.  0.
        254    2    1    2    0    0  0.54031861304E+03 -0.12217731401E+03  0.39088167809E+03  0.11235148967E+04  0.89589382022E+03 0.  0.
         23    2    4    4    0    0  0.95221596060E+02  0.20607270719E+02 -0.27407216177E+03  0.30540386148E+03  0.93081452443E+02 0.  0.
         23    2    4    4    0    0  0.44509701698E+03 -0.14278458473E+03  0.66495383985E+03  0.81811103519E+03  0.92969159376E+02 0.  0.
          2    1    3    3  502    0  0.14886799521E+01 -0.23301954302E+01  0.72815542469E-01  0.27660948730E+01  0.00000000000E+00 0. -1.
         -1    1    3    3    0  502 -0.54180729299E+03  0.12450750944E+03 -0.33622105734E+03  0.64969366785E+03  0.00000000000E+00 0.  1.
         11    1    5    5    0    0  0.59108093744E+01  0.48341294929E+00  0.73619886639E+01  0.94535830576E+01  0.00000000000E+00 0.  1.
        -11    1    5    5    0    0  0.89310786685E+02  0.20123857769E+02 -0.28143415043E+03  0.29595027842E+03  0.00000000000E+00 0. -1.
          1    1    6    6  503    0  0.39143660062E+03 -0.15545237119E+03  0.59672286891E+03  0.73038772874E+03  0.00000000000E+00 0. -1.
         -1    1    6    6    0  503  0.53660416365E+02  0.12667786460E+02  0.68230970938E+02  0.87723306444E+02  0.00000000000E+00 0.  1.
<mgrwt>
<rscale>  0 0.17751310E+04</rscale>
<asrwt>0</asrwt>
<pdfrwt beam="1">  1        2 0.14082370E+00 0.17751310E+04</pdfrwt>
<pdfrwt beam="2">  1       -1 0.13240317E+00 0.17751310E+04</pdfrwt>
<totfact> 0.14963095E+01</totfact>
</mgrwt>
</event>
<event>
12    6  0.1586493E-007  0.1362432E+04  0.7818608E-02  0.8981470E-01
         -1   -1    0    0    0  501 -0.00000000000E+00  0.00000000000E+00  0.13346751416E+03  0.13346751416E+03  0.00000000000E+00 0.  1.
          2   -1    0    0  501    0  0.00000000000E+00 -0.00000000000E+00 -0.34769176506E+04  0.34769176506E+04  0.00000000000E+00 0. -1.
         24    2    1    2    0    0 -0.21840364000E+03 -0.21794254398E+02 -0.13443675209E+03  0.26846537411E+03  0.76323504205E+02 0.  0.
        254    2    1    2    0    0  0.21840364000E+03  0.21794254398E+02 -0.32090133843E+04  0.33419197906E+04  0.90691005439E+03 0.  0.
         23    2    4    4    0    0 -0.29810584013E+03 -0.16786591982E+03 -0.92498990953E+03  0.99042846135E+03  0.91083178286E+02 0.  0.
         23    2    4    4    0    0  0.51650948013E+03  0.18966017422E+03 -0.22840234748E+04  0.23514913293E+04  0.99976064697E+02 0.  0.
          4    1    3    3  502    0  0.32483684306E+00  0.10456338840E+02 -0.17331155450E+01  0.10603972388E+02  0.00000000000E+00 0. -1.
         -3    1    3    3    0  502 -0.21872847684E+03 -0.32250593238E+02 -0.13270363654E+03  0.25786140172E+03  0.00000000000E+00 0.  1.
         11    1    5    5    0    0 -0.26004068791E+03 -0.11862708753E+03 -0.67937009045E+03  0.73704631134E+03  0.00000000000E+00 0.  1.
        -11    1    5    5    0    0 -0.38065152219E+02 -0.49238832290E+02 -0.24561981908E+03  0.25338215001E+03  0.00000000000E+00 0. -1.
          1    1    6    6  503    0 -0.27182000422E+01  0.85576057306E+01 -0.48729500838E+02  0.49549828247E+02  0.00000000000E+00 0. -1.
         -1    1    6    6    0  503  0.51922768017E+03  0.18110256849E+03 -0.22352939740E+04  0.23019415010E+04  0.00000000000E+00 0.  1.
<mgrwt>
<rscale>  0 0.13624325E+04</rscale>
<asrwt>0</asrwt>
<pdfrwt beam="1">  1        2 0.53491050E+00 0.13624325E+04</pdfrwt>
<pdfrwt beam="2">  1       -1 0.20533460E-01 0.13624325E+04</pdfrwt>
<totfact> 0.18686389E+01</totfact>
</mgrwt>
</event>
<event>
12    6  0.1586493E-007  0.2186091E+04  0.7818608E-02  0.8524240E-01
          2   -1    0    0  501    0  0.00000000000E+00  0.00000000000E+00  0.13193087747E+04  0.13193087747E+04  0.00000000000E+00 0. -1.
         -1   -1    0    0    0  501 -0.00000000000E+00 -0.00000000000E+00 -0.90558690955E+03  0.90558690955E+03  0.00000000000E+00 0.  1.
         24    2    1    2    0    0 -0.45976638928E+03  0.11081763649E+03 -0.61052775097E+03  0.77631319274E+03  0.79071848595E+02 0.  0.
        254    2    1    2    0    0  0.45976638928E+03 -0.11081763649E+03  0.10242496161E+04  0.14485824915E+04  0.90864639839E+03 0.  0.
         23    2    4    4    0    0 -0.26478992692E+03 -0.84675077249E+02  0.25528415995E+03  0.38781447435E+03  0.89143087736E+02 0.  0.
         23    2    4    4    0    0  0.72455631620E+03 -0.26142559238E+02  0.76896545614E+03  0.10607680171E+04  0.90860468190E+02 0.  0.
          2    1    3    3  502    0 -0.36826724669E+03  0.73049204729E+02 -0.43341633276E+03  0.57341666248E+03  0.00000000000E+00 0. -1.
         -1    1    3    3    0  502 -0.91499142587E+02  0.37768431759E+02 -0.17711141821E+03  0.20289653026E+03  0.00000000000E+00 0.  1.
         11    1    5    5    0    0 -0.17693743339E+03 -0.89516502748E+02  0.13974407566E+03  0.24258702826E+03  0.00000000000E+00 0. -1.
        -11    1    5    5    0    0 -0.87852493528E+02  0.48414254987E+01  0.11554008429E+03  0.14522744609E+03  0.00000000000E+00 0.  1.
          2    1    6    6  503    0  0.60557882293E+03 -0.46682614611E+02  0.67289476084E+03  0.90647246867E+03  0.00000000000E+00 0. -1.
         -2    1    6    6    0  503  0.11897749327E+03  0.20540055373E+02  0.96070695301E+02  0.15429554846E+03  0.00000000000E+00 0.  1.
<mgrwt>
<rscale>  0 0.21860913E+04</rscale>
<asrwt>0</asrwt>
<pdfrwt beam="1">  1        2 0.20297058E+00 0.21860913E+04</pdfrwt>
<pdfrwt beam="2">  1       -1 0.13932106E+00 0.21860913E+04</pdfrwt>
<totfact> 0.71324659E+00</totfact>
</mgrwt>
</event>
<event>
12    6  0.1586493E-007  0.1263546E+04  0.7818608E-02  0.9058983E-01
         -1   -1    0    0    0  501 -0.00000000000E+00  0.00000000000E+00  0.13950681123E+03  0.13950681123E+03  0.00000000000E+00 0.  1.
          2   -1    0    0  501    0  0.00000000000E+00 -0.00000000000E+00 -0.28610600599E+04  0.28610600599E+04  0.00000000000E+00 0. -1.
         24    2    1    2    0    0  0.31898718597E+01  0.11493027483E+02  0.30625990117E+02  0.86376891721E+02  0.79879604340E+02 0.  0.
        254    2    1    2    0    0 -0.31898718597E+01 -0.11493027483E+02 -0.27521792388E+04  0.29141899794E+04  0.95805553531E+03 0.  0.
         23    2    4    4    0    0  0.38801324672E+03  0.12237886956E+03 -0.20687933737E+04  0.21104016102E+04  0.91422457245E+02 0.  0.
         23    2    4    4    0    0 -0.39120311858E+03 -0.13387189705E+03 -0.68338586507E+03  0.80378836925E+03  0.89988539073E+02 0.  0.
          4    1    3    3  502    0 -0.23567552128E+02 -0.22412366416E+02  0.28317559295E+02  0.43123402534E+02  0.00000000000E+00 0. -1.
         -3    1    3    3    0  502  0.26757423988E+02  0.33905393899E+02  0.23084308215E+01  0.43253489186E+02  0.00000000000E+00 0.  1.
         11    1    5    5    0    0  0.57138880572E+02  0.54975261497E+02 -0.40476874196E+03  0.41246195644E+03  0.00000000000E+00 0. -1.
        -11    1    5    5    0    0  0.33087436614E+03  0.67403608066E+02 -0.16640246318E+04  0.16979396537E+04  0.00000000000E+00 0.  1.
          3    1    6    6  503    0 -0.15376826796E+03 -0.98894603965E+02 -0.31134159463E+03  0.36105181272E+03  0.00000000000E+00 0. -1.
         -3    1    6    6    0  503 -0.23743485062E+03 -0.34977293080E+02 -0.37204427045E+03  0.44273655653E+03  0.00000000000E+00 0.  1.
<mgrwt>
<rscale>  0 0.12635464E+04</rscale>
<asrwt>0</asrwt>
<pdfrwt beam="1">  1        2 0.44016307E+00 0.12635464E+04</pdfrwt>
<pdfrwt beam="2">  1       -1 0.21462587E-01 0.12635464E+04</pdfrwt>
<totfact> 0.43590691E+01</totfact>
</mgrwt>
</event>
<event>
12    6  0.1586493E-007  0.1457852E+04  0.7818608E-02  0.8912975E-01
          2   -1    0    0  501    0  0.00000000000E+00  0.00000000000E+00  0.12592922333E+04  0.12592922333E+04  0.00000000000E+00 0. -1.
         -1   -1    0    0    0  501 -0.00000000000E+00 -0.00000000000E+00 -0.42193002762E+03  0.42193002762E+03  0.00000000000E+00 0.  1.
         24    2    1    2    0    0 -0.39873760157E+03 -0.54493152774E+02  0.50424083172E+02  0.41337410100E+03  0.79839718251E+02 0.  0.
        254    2    1    2    0    0  0.39873760157E+03  0.54493152774E+02  0.78693812248E+03  0.12678481599E+04  0.90895883809E+03 0.  0.
         23    2    4    4    0    0 -0.17424341586E+03  0.30169146578E+03  0.23622761313E+03  0.43067320991E+03  0.91090175287E+02 0.  0.
         23    2    4    4    0    0  0.57298101743E+03 -0.24719831301E+03  0.55071050935E+03  0.83717494999E+03  0.90363596076E+02 0.  0.
          4    1    3    3  502    0 -0.10074559716E+03 -0.38859671350E+02 -0.11576964737E+02  0.10859915062E+03  0.00000000000E+00 0. -1.
         -3    1    3    3    0  502 -0.29799200441E+03 -0.15633481424E+02  0.62001047909E+02  0.30477495038E+03  0.00000000000E+00 0.  1.
         11    1    5    5    0    0 -0.80994072011E+02  0.60311382985E+02  0.57797154680E+02  0.11635297034E+03  0.00000000000E+00 0.  1.
        -11    1    5    5    0    0 -0.93249343846E+02  0.24138008280E+03  0.17843045845E+03  0.31432023956E+03  0.00000000000E+00 0. -1.
          2    1    6    6  503    0  0.89786918069E+01 -0.74126752249E+01 -0.20980369257E+01  0.11830740446E+02  0.00000000000E+00 0.  1.
         -2    1    6    6    0  503  0.56400232562E+03 -0.23978563778E+03  0.55280854628E+03  0.82534420955E+03  0.00000000000E+00 0. -1.
<mgrwt>
<rscale>  0 0.14578521E+04</rscale>
<asrwt>0</asrwt>
<pdfrwt beam="1">  1        2 0.19373726E+00 0.14578521E+04</pdfrwt>
<pdfrwt beam="2">  1       -1 0.64912313E-01 0.14578521E+04</pdfrwt>
<totfact> 0.46439079E+01</totfact>
</mgrwt>
</event>
<event>
12    6  0.1586493E-007  0.1987183E+04  0.7818608E-02  0.8612637E-01
         -1   -1    0    0    0  501 -0.00000000000E+00  0.00000000000E+00  0.90910161763E+03  0.90910161763E+03  0.00000000000E+00 0.  1.
          2   -1    0    0  501    0  0.00000000000E+00 -0.00000000000E+00 -0.10859338248E+04  0.10859338248E+04  0.00000000000E+00 0. -1.
         24    2    1    2    0    0  0.57024354667E+01 -0.62115288758E+03 -0.56159256207E+03  0.84140892954E+03  0.81971662291E+02 0.  0.
        254    2    1    2    0    0 -0.57024354667E+01  0.62115288758E+03  0.38476035490E+03  0.11536265129E+04  0.89272065790E+03 0.  0.
         23    2    4    4    0    0  0.29217907113E+03  0.11672032612E+03 -0.14669582962E+03  0.35733784720E+03  0.84725595193E+02 0.  0.
         23    2    4    4    0    0 -0.29788150659E+03  0.50443256146E+03  0.53145618452E+03  0.79628866570E+03  0.91893209831E+02 0.  0.
          4    1    3    3  502    0  0.12220431884E+02 -0.15766031444E+03 -0.19081403830E+03  0.24782274092E+03  0.00000000000E+00 0. -1.
         -3    1    3    3    0  502 -0.65179964173E+01 -0.46349257313E+03 -0.37077852377E+03  0.59358618862E+03  0.00000000000E+00 0.  1.
         11    1    5    5    0    0  0.23319348781E+03  0.12711330590E+03 -0.11312246419E+03  0.28867574751E+03  0.00000000000E+00 0.  1.
        -11    1    5    5    0    0  0.58985583313E+02 -0.10392979786E+02 -0.33573365427E+02  0.68662099689E+02  0.00000000000E+00 0. -1.
          2    1    6    6  503    0 -0.25214212240E+03  0.47601338256E+03  0.47373205741E+03  0.71734681465E+03  0.00000000000E+00 0. -1.
         -2    1    6    6    0  503 -0.45739384195E+02  0.28419178899E+02  0.57724127117E+02  0.78941851051E+02  0.00000000000E+00 0.  1.
<mgrwt>
<rscale>  0 0.19871831E+04</rscale>
<asrwt>0</asrwt>
<pdfrwt beam="1">  1        2 0.16706674E+00 0.19871831E+04</pdfrwt>
<pdfrwt beam="2">  1       -1 0.13986179E+00 0.19871831E+04</pdfrwt>
<totfact> 0.99086703E+00</totfact>
</mgrwt>
</event>
<event>
12    6  0.1586493E-007  0.2242677E+04  0.7818608E-02  0.8500872E-01
          2   -1    0    0  501    0  0.00000000000E+00  0.00000000000E+00  0.14868780234E+04  0.14868780234E+04  0.00000000000E+00 0. -1.
         -1   -1    0    0    0  501 -0.00000000000E+00 -0.00000000000E+00 -0.84566455407E+03  0.84566455407E+03  0.00000000000E+00 0.  1.
         24    2    1    2    0    0 -0.57579545112E+03  0.25389669409E+03  0.99216202626E+03  0.11775826139E+04  0.79444278562E+02 0.  0.
        254    2    1    2    0    0  0.57579545112E+03 -0.25389669409E+03 -0.35094855692E+03  0.11549599636E+04  0.90264261759E+03 0.  0.
         23    2    4    4    0    0  0.40920262443E+02 -0.22662534430E+03 -0.52795470117E+03  0.58321532987E+03  0.91490108500E+02 0.  0.
         23    2    4    4    0    0  0.53487518868E+03 -0.27271349785E+02  0.17700614425E+03  0.57174463372E+03  0.93410690502E+02 0.  0.
          4    1    3    3  502    0 -0.50570149749E+03  0.23217036253E+03  0.91635769046E+03  0.10720767224E+04  0.00000000000E+00 0. -1.
         -3    1    3    3    0  502 -0.70093953631E+02  0.21726331558E+02  0.75804335796E+02  0.10550589151E+03  0.00000000000E+00 0.  1.
         11    1    5    5    0    0 -0.81331759496E+01 -0.61111105374E+02 -0.23713863351E+03  0.24502132000E+03  0.00000000000E+00 0. -1.
        -11    1    5    5    0    0  0.49053438393E+02 -0.16551423893E+03 -0.29081606766E+03  0.33819400988E+03  0.00000000000E+00 0.  1.
          1    1    6    6  503    0  0.38929634494E+03 -0.42764740619E+02  0.91436688724E+02  0.40217053009E+03  0.00000000000E+00 0. -1.
         -1    1    6    6    0  503  0.14557884373E+03  0.15493390834E+02  0.85569455527E+02  0.16957410363E+03  0.00000000000E+00 0.  1.
<mgrwt>
<rscale>  0 0.22426770E+04</rscale>
<asrwt>0</asrwt>
<pdfrwt beam="1">  1        2 0.22875046E+00 0.22426770E+04</pdfrwt>
<pdfrwt beam="2">  1       -1 0.13010224E+00 0.22426770E+04</pdfrwt>
<totfact> 0.67820001E+00</totfact>
</mgrwt>
</event>
<event>
12    6  0.1586493E-007  0.2036254E+04  0.7818608E-02  0.8589856E-01
         -1   -1    0    0    0  501 -0.00000000000E+00  0.00000000000E+00  0.40799825127E+03  0.40799825127E+03  0.00000000000E+00 0.  1.
          2   -1    0    0  501    0  0.00000000000E+00 -0.00000000000E+00 -0.25406549307E+04  0.25406549307E+04  0.00000000000E+00 0. -1.
         24    2    1    2    0    0 -0.33394585830E+03 -0.71105718870E+03 -0.11765065015E+04  0.14171030601E+04  0.83014293704E+02 0.  0.
        254    2    1    2    0    0  0.33394585830E+03  0.71105718870E+03 -0.95615017792E+03  0.15315501219E+04  0.90238597683E+03 0.  0.
         23    2    4    4    0    0  0.15691654327E+03 -0.12215106713E+03  0.35232765502E+02  0.22137314328E+03  0.90669929120E+02 0.  0.
         23    2    4    4    0    0  0.17702931502E+03  0.83320825584E+03 -0.99138294342E+03  0.13101769786E+04  0.90267373657E+02 0.  0.
          2    1    3    3  502    0 -0.28415943683E+03 -0.64608277849E+03 -0.10845363103E+04  0.12939816655E+04  0.00000000000E+00 0. -1.
         -1    1    3    3    0  502 -0.49786421466E+02 -0.64974410215E+02 -0.91970191222E+02  0.12312139464E+03  0.00000000000E+00 0.  1.
         11    1    5    5    0    0  0.31903970711E+02  0.10470341944E+02 -0.69761339084E+01  0.34295157848E+02  0.00000000000E+00 0.  1.
        -11    1    5    5    0    0  0.12501257256E+03 -0.13262140908E+03  0.42208899410E+02  0.18707798543E+03  0.00000000000E+00 0. -1.
          1    1    6    6  503    0  0.15141264534E+03  0.61843826738E+03 -0.79009437135E+03  0.10147121737E+04  0.00000000000E+00 0. -1.
         -1    1    6    6    0  503  0.25616669688E+02  0.21476998846E+03 -0.20128857208E+03  0.29546480494E+03  0.00000000000E+00 0.  1.
<mgrwt>
<rscale>  0 0.20362542E+04</rscale>
<asrwt>0</asrwt>
<pdfrwt beam="1">  1        2 0.39087000E+00 0.20362542E+04</pdfrwt>
<pdfrwt beam="2">  1       -1 0.62768960E-01 0.20362542E+04</pdfrwt>
<totfact> 0.89534245E+00</totfact>
</mgrwt>
</event>
<event>
12    6  0.1586493E-007  0.1732374E+04  0.7818608E-02  0.8743113E-01
          2   -1    0    0  501    0  0.00000000000E+00  0.00000000000E+00  0.15856611295E+04  0.15856611295E+04  0.00000000000E+00 0. -1.
         -1   -1    0    0    0  501 -0.00000000000E+00 -0.00000000000E+00 -0.47316519443E+03  0.47316519443E+03  0.00000000000E+00 0.  1.
         24    2    1    2    0    0  0.25300047858E+03 -0.53101146883E+03  0.13963369682E+03  0.60864278465E+03  0.70470191036E+02 0.  0.
        254    2    1    2    0    0 -0.25300047858E+03  0.53101146883E+03  0.97286223825E+03  0.14501835393E+04  0.90032712987E+03 0.  0.
         23    2    4    4    0    0 -0.16645839493E+03 -0.22376309844E+03  0.16165803372E+03  0.33543814683E+03  0.92774506271E+02 0.  0.
         23    2    4    4    0    0 -0.86542083645E+02  0.75477456728E+03  0.81120420452E+03  0.11147453924E+04  0.86202371638E+02 0.  0.
          4    1    3    3  502    0  0.23629080463E+02 -0.55703618306E+02 -0.69502873400E+01  0.60905935918E+02  0.00000000000E+00 0. -1.
         -3    1    3    3    0  502  0.22937139812E+03 -0.47530785053E+03  0.14658398416E+03  0.54773684873E+03  0.00000000000E+00 0.  1.
         11    1    5    5    0    0 -0.16994422521E+03 -0.18094409338E+03  0.12048003675E+03  0.27592978068E+03  0.00000000000E+00 0. -1.
        -11    1    5    5    0    0  0.34858302742E+01 -0.42819005063E+02  0.41177996975E+02  0.59508366153E+02  0.00000000000E+00 0.  1.
          3    1    6    6  503    0 -0.10071927637E+03  0.71052577966E+03  0.75174136404E+03  0.10392816435E+04  0.00000000000E+00 0. -1.
         -3    1    6    6    0  503  0.14177192723E+02  0.44248787614E+02  0.59462840489E+02  0.75463748899E+02  0.00000000000E+00 0.  1.
<mgrwt>
<rscale>  0 0.17323737E+04</rscale>
<asrwt>0</asrwt>
<pdfrwt beam="1">  1        2 0.24394786E+00 0.17323737E+04</pdfrwt>
<pdfrwt beam="2">  1       -1 0.72794646E-01 0.17323737E+04</pdfrwt>
<totfact> 0.23374316E+01</totfact>
</mgrwt>
</event>
<event>
12    6  0.1586493E-007  0.1940683E+04  0.7818608E-02  0.8634867E-01
          2   -1    0    0  501    0  0.00000000000E+00  0.00000000000E+00  0.15939442776E+04  0.15939442776E+04  0.00000000000E+00 0. -1.
         -1   -1    0    0    0  501 -0.00000000000E+00 -0.00000000000E+00 -0.59071231315E+03  0.59071231315E+03  0.00000000000E+00 0.  1.
         24    2    1    2    0    0  0.54174445043E+03  0.44000705320E+03  0.72424295561E+03  0.10088320962E+04  0.78237351401E+02 0.  0.
        254    2    1    2    0    0 -0.54174445043E+03 -0.44000705320E+03  0.27898900887E+03  0.11758244946E+04  0.90423178362E+03 0.  0.
         23    2    4    4    0    0 -0.61124367261E+03 -0.11579331409E+03 -0.12984723918E+03  0.64190903419E+03  0.90332628475E+02 0.  0.
         23    2    4    4    0    0  0.69499222175E+02 -0.32421373911E+03  0.40883624804E+03  0.53391546037E+03  0.89296979783E+02 0.  0.
          4    1    3    3  502    0  0.47585426080E+03  0.40022175423E+03  0.67353955877E+03  0.91666257004E+03  0.00000000000E+00 0. -1.
         -3    1    3    3    0  502  0.65890189630E+02  0.39785298976E+02  0.50703396841E+02  0.92169526175E+02  0.00000000000E+00 0.  1.
         11    1    5    5    0    0 -0.60104256768E+02 -0.37399055118E+02 -0.24580194888E+01  0.70832569240E+02  0.00000000000E+00 0.  1.
        -11    1    5    5    0    0 -0.55113941584E+03 -0.78394258973E+02 -0.12738921969E+03  0.57107646495E+03  0.00000000000E+00 0. -1.
          3    1    6    6  503    0  0.81583475311E+02 -0.31486467868E+03  0.40218795447E+03  0.51725311023E+03  0.00000000000E+00 0. -1.
         -3    1    6    6    0  503 -0.12084253136E+02 -0.93490604326E+01  0.66482935779E+01  0.16662350144E+02  0.00000000000E+00 0.  1.
<mgrwt>
<rscale>  0 0.19406829E+04</rscale>
<asrwt>0</asrwt>
<pdfrwt beam="1">  1        2 0.24522219E+00 0.19406829E+04</pdfrwt>
<pdfrwt beam="2">  1       -1 0.90878818E-01 0.19406829E+04</pdfrwt>
<totfact> 0.14130551E+01</totfact>
</mgrwt>
</event>
<event>
12    6  0.1586493E-007  0.1579180E+04  0.7818608E-02  0.8833441E-01
          2   -1    0    0  501    0  0.00000000000E+00  0.00000000000E+00  0.10776008566E+04  0.10776008566E+04  0.00000000000E+00 0. -1.
         -1   -1    0    0    0  501 -0.00000000000E+00 -0.00000000000E+00 -0.57855623227E+03  0.57855623227E+03  0.00000000000E+00 0.  1.
         24    2    1    2    0    0 -0.21353588299E+03  0.42855566441E+03  0.41657488741E+03  0.63962301246E+03  0.79532574639E+02 0.  0.
        254    2    1    2    0    0  0.21353588299E+03 -0.42855566441E+03  0.82469736871E+02  0.10165340764E+04  0.89290690450E+03 0.  0.
         23    2    4    4    0    0 -0.83059453683E+02  0.24321746975E+03  0.30135222913E+02  0.27450117864E+03  0.91592330346E+02 0.  0.
         23    2    4    4    0    0  0.29659533667E+03 -0.67177313415E+03  0.52334513959E+02  0.74203289773E+03  0.92876167335E+02 0.  0.
          2    1    3    3  502    0 -0.66754270243E-01  0.32272727057E+01  0.19690462257E+02  0.19953296698E+02  0.00000000000E+00 0. -1.
         -1    1    3    3    0  502 -0.21346912871E+03  0.42532839170E+03  0.39688442515E+03  0.61966971576E+03  0.00000000000E+00 0.  1.
         11    1    5    5    0    0 -0.29025845954E+02  0.72777546752E+02  0.52489703278E+02  0.94309278414E+02  0.00000000000E+00 0. -1.
        -11    1    5    5    0    0 -0.54033607728E+02  0.17043992299E+03 -0.22354480366E+02  0.18019190022E+03  0.00000000000E+00 0.  1.
          1    1    6    6  503    0  0.12270429025E+03 -0.26458178405E+03  0.66118697204E+02  0.29905107493E+03  0.00000000000E+00 0. -1.
         -1    1    6    6    0  503  0.17389104642E+03 -0.40719135010E+03 -0.13784183246E+02  0.44298182280E+03  0.00000000000E+00 0.  1.
<mgrwt>
<rscale>  0 0.15791804E+04</rscale>
<asrwt>0</asrwt>
<pdfrwt beam="1">  1        2 0.16578475E+00 0.15791804E+04</pdfrwt>
<pdfrwt beam="2">  1       -1 0.89008651E-01 0.15791804E+04</pdfrwt>
<totfact> 0.30510926E+01</totfact>
</mgrwt>
</event>
<event>
12    6  0.1586493E-007  0.1640483E+04  0.7818608E-02  0.8796057E-01
         -1   -1    0    0    0  501 -0.00000000000E+00  0.00000000000E+00  0.11744284309E+04  0.11744284309E+04  0.00000000000E+00 0.  1.
          2   -1    0    0  501    0  0.00000000000E+00 -0.00000000000E+00 -0.57287093862E+03  0.57287093862E+03  0.00000000000E+00 0. -1.
         24    2    1    2    0    0  0.62570298207E+02  0.48051397686E+03  0.53275599309E+03  0.72451801692E+03  0.79301226316E+02 0.  0.
        254    2    1    2    0    0 -0.62570298207E+02 -0.48051397686E+03  0.68801499146E+02  0.10227813526E+04  0.89807534466E+03 0.  0.
         23    2    4    4    0    0 -0.37622019751E+03 -0.12465262321E+03 -0.21732395111E+03  0.46105826136E+03  0.90912634737E+02 0.  0.
         23    2    4    4    0    0  0.31364989930E+03 -0.35586135365E+03  0.28612545026E+03  0.56172309120E+03  0.93013415940E+02 0.  0.
          4    1    3    3  502    0  0.49614236626E+02  0.22115415781E+03  0.19883273973E+03  0.30150487953E+03  0.00000000000E+00 0. -1.
         -3    1    3    3    0  502  0.12956061581E+02  0.25935981904E+03  0.33392325337E+03  0.42301313739E+03  0.00000000000E+00 0.  1.
         11    1    5    5    0    0 -0.37172915747E+03 -0.13485965575E+03 -0.21238678223E+03  0.44886282818E+03  0.00000000000E+00 0. -1.
        -11    1    5    5    0    0 -0.44910400444E+01  0.10207032535E+02 -0.49371688842E+01  0.12195433180E+02  0.00000000000E+00 0.  1.
          2    1    6    6  503    0  0.18926349470E+03 -0.14527162746E+03  0.13283238190E+03  0.27307317308E+03  0.00000000000E+00 0. -1.
         -2    1    6    6    0  503  0.12438640460E+03 -0.21058972618E+03  0.15329306836E+03  0.28864991812E+03  0.00000000000E+00 0.  1.
<mgrwt>
<rscale>  0 0.16404828E+04</rscale>
<asrwt>0</asrwt>
<pdfrwt beam="1">  1        2 0.88133991E-01 0.16404828E+04</pdfrwt>
<pdfrwt beam="2">  1       -1 0.18068130E+00 0.16404828E+04</pdfrwt>
<totfact> 0.11785734E+01</totfact>
</mgrwt>
</event>
<event>
12    6  0.1586493E-007  0.1182513E+04  0.7818608E-02  0.9128302E-01
          2   -1    0    0  501    0  0.00000000000E+00  0.00000000000E+00  0.16180105064E+04  0.16180105064E+04  0.00000000000E+00 0. -1.
         -1   -1    0    0    0  501 -0.00000000000E+00 -0.00000000000E+00 -0.21605818925E+03  0.21605818925E+03  0.00000000000E+00 0.  1.
         24    2    1    2    0    0  0.20905307979E+03  0.65444802029E+02  0.19168120563E+03  0.30673988104E+03  0.96754626490E+02 0.  0.
        254    2    1    2    0    0 -0.20905307979E+03 -0.65444802029E+02  0.12102711116E+04  0.15273288146E+04  0.90553350698E+03 0.  0.
         23    2    4    4    0    0 -0.55628049038E+01  0.33721469566E+03  0.91713949595E+03  0.98170859754E+03  0.94139363123E+02 0.  0.
         23    2    4    4    0    0 -0.20349027489E+03 -0.40265949769E+03  0.29313161560E+03  0.54562021709E+03  0.90732101137E+02 0.  0.
          4    1    3    3  502    0  0.20567818854E+03  0.38742509133E+02  0.18419067043E+03  0.27880226385E+03  0.00000000000E+00 0. -1.
         -3    1    3    3    0  502  0.33748912586E+01  0.26702292895E+02  0.74905351926E+01  0.27937617191E+02  0.00000000000E+00 0.  1.
         11    1    5    5    0    0 -0.69108991722E+01  0.12567101595E+03  0.47766633028E+03  0.49396972363E+03  0.00000000000E+00 0.  1.
        -11    1    5    5    0    0  0.13480942684E+01  0.21154367971E+03  0.43947316567E+03  0.48773887392E+03  0.00000000000E+00 0. -1.
          4    1    6    6  503    0 -0.18792486076E+03 -0.36044499895E+03  0.29220182960E+03  0.50061787801E+03  0.00000000000E+00 0. -1.
         -4    1    6    6    0  503 -0.15565414135E+02 -0.42214498735E+02  0.92978600233E+00  0.45002339080E+02  0.00000000000E+00 0.  1.
<mgrwt>
<rscale>  0 0.11825133E+04</rscale>
<asrwt>0</asrwt>
<pdfrwt beam="1">  1        2 0.24892468E+00 0.11825133E+04</pdfrwt>
<pdfrwt beam="2">  1       -1 0.33239723E-01 0.11825133E+04</pdfrwt>
<totfact> 0.10432799E+02</totfact>
</mgrwt>
</event>
<event>
12    6  0.1586493E-007  0.4514202E+04  0.7818608E-02  0.7908155E-01
         -1   -1    0    0    0  501 -0.00000000000E+00  0.00000000000E+00  0.22922958306E+04  0.22922958306E+04  0.00000000000E+00 0.  1.
          2   -1    0    0  501    0  0.00000000000E+00 -0.00000000000E+00 -0.22224463184E+04  0.22224463184E+04  0.00000000000E+00 0. -1.
         24    2    1    2    0    0 -0.11560836099E+04 -0.99697048157E+03  0.15695552909E+04  0.21909278444E+04  0.78622859931E+02 0.  0.
        254    2    1    2    0    0  0.11560836099E+04  0.99697048157E+03 -0.14997057788E+04  0.23238143045E+04  0.90582340710E+03 0.  0.
         23    2    4    4    0    0  0.80274943874E+03  0.89098796619E+03 -0.59379008769E+03  0.13414519212E+04  0.92953598562E+02 0.  0.
         23    2    4    4    0    0  0.35333417113E+03  0.10598251538E+03 -0.90591569110E+03  0.98236238328E+03  0.90968580559E+02 0.  0.
          2    1    3    3  502    0 -0.22335174990E+03 -0.16484881232E+03  0.25460422447E+03  0.37667551848E+03  0.00000000000E+00 0. -1.
         -1    1    3    3    0  502 -0.93273185998E+03 -0.83212166925E+03  0.13149510665E+04  0.18142523260E+04  0.00000000000E+00 0.  1.
         11    1    5    5    0    0  0.72489122879E+03  0.80560572280E+03 -0.56589612983E+03  0.12225818189E+04  0.00000000000E+00 0. -1.
        -11    1    5    5    0    0  0.77858209945E+02  0.85382243388E+02 -0.27893957850E+02  0.11887010232E+03  0.00000000000E+00 0.  1.
          2    1    6    6  503    0  0.32341374625E+03  0.86290753015E+02 -0.86750203800E+03  0.92983994926E+03  0.00000000000E+00 0. -1.
         -2    1    6    6    0  503  0.29920424884E+02  0.19691762369E+02 -0.38413653103E+02  0.52522434018E+02  0.00000000000E+00 0.  1.
<mgrwt>
<rscale>  0 0.45142018E+04</rscale>
<asrwt>0</asrwt>
<pdfrwt beam="1">  1        2 0.34191482E+00 0.45142018E+04</pdfrwt>
<pdfrwt beam="2">  1       -1 0.35266090E+00 0.45142018E+04</pdfrwt>
<totfact> 0.64427269E-02</totfact>
</mgrwt>
</event>
<event>
12    6  0.1586493E-007  0.2480235E+04  0.7818608E-02  0.8410061E-01
         -1   -1    0    0    0  501 -0.00000000000E+00  0.00000000000E+00  0.61507933768E+03  0.61507933768E+03  0.00000000000E+00 0.  1.
          2   -1    0    0  501    0  0.00000000000E+00 -0.00000000000E+00 -0.25003143792E+04  0.25003143792E+04  0.00000000000E+00 0. -1.
         24    2    1    2    0    0  0.30415182498E+03 -0.57374611272E+03 -0.18854945030E+04  0.19958863027E+04  0.82338800640E+02 0.  0.
        254    2    1    2    0    0 -0.30415182498E+03  0.57374611272E+03  0.25946145257E+00  0.11195074142E+04  0.91192315936E+03 0.  0.
         23    2    4    4    0    0 -0.57698441336E+03  0.14727075081E+03  0.36742610785E+02  0.60353568093E+03  0.91135127220E+02 0.  0.
         23    2    4    4    0    0  0.27283258838E+03  0.42647536190E+03 -0.36483149332E+02  0.51597173324E+03  0.92611844430E+02 0.  0.
          2    1    3    3  502    0  0.28544378704E+03 -0.51077821621E+03 -0.16215309867E+04  0.17238721770E+04  0.00000000000E+00 0. -1.
         -1    1    3    3    0  502  0.18708037940E+02 -0.62967896503E+02 -0.26396351631E+03  0.27201412577E+03  0.00000000000E+00 0.  1.
         11    1    5    5    0    0 -0.12164102609E+03  0.50832295204E+02 -0.24461109412E+02  0.13408507500E+03  0.00000000000E+00 0. -1.
        -11    1    5    5    0    0 -0.45534338727E+03  0.96438455610E+02  0.61203720197E+02  0.46945060594E+03  0.00000000000E+00 0.  1.
          3    1    6    6  503    0  0.11502643130E+02  0.69792022829E+02 -0.19938541377E+02  0.73490017565E+02  0.00000000000E+00 0. -1.
         -3    1    6    6    0  503  0.26132994525E+03  0.35668333907E+03 -0.16544607955E+02  0.44248171568E+03  0.00000000000E+00 0.  1.
<mgrwt>
<rscale>  0 0.24802352E+04</rscale>
<asrwt>0</asrwt>
<pdfrwt beam="1">  1        2 0.38466375E+00 0.24802352E+04</pdfrwt>
<pdfrwt beam="2">  1       -1 0.94627590E-01 0.24802352E+04</pdfrwt>
<totfact> 0.38187403E+00</totfact>
</mgrwt>
</event>
<event>
12    6  0.1586493E-007  0.1803638E+04  0.7818608E-02  0.8704367E-01
          2   -1    0    0  501    0  0.00000000000E+00  0.00000000000E+00  0.29660692256E+04  0.29660692256E+04  0.00000000000E+00 0. -1.
         -1   -1    0    0    0  501 -0.00000000000E+00 -0.00000000000E+00 -0.27419384219E+03  0.27419384219E+03  0.00000000000E+00 0.  1.
         24    2    1    2    0    0 -0.45768018554E+03 -0.48425386973E+03  0.86109446329E+03  0.10918147451E+04  0.81257617419E+02 0.  0.
        254    2    1    2    0    0  0.45768018554E+03  0.48425386973E+03  0.18307809201E+04  0.21484483227E+04  0.90559287492E+03 0.  0.
         23    2    4    4    0    0 -0.83440308289E+02 -0.18512906561E+03  0.18529581430E+03  0.28917275694E+03  0.89728972906E+02 0.  0.
         23    2    4    4    0    0  0.54112049383E+03  0.66938293534E+03  0.16454851058E+04  0.18592755657E+04  0.91648747160E+02 0.  0.
          2    1    3    3  502    0 -0.33961171682E+03 -0.34432815299E+03  0.67867280889E+03  0.83336353212E+03  0.00000000000E+00 0. -1.
         -1    1    3    3    0  502 -0.11806846873E+03 -0.13992571674E+03  0.18242165440E+03  0.25845121301E+03  0.00000000000E+00 0.  1.
         11    1    5    5    0    0  0.71260456224E+01 -0.65325006541E+02  0.89516335656E+02  0.11104643783E+03  0.00000000000E+00 0. -1.
        -11    1    5    5    0    0 -0.90566353911E+02 -0.11980405907E+03  0.95779478647E+02  0.17812631911E+03  0.00000000000E+00 0.  1.
          3    1    6    6  503    0  0.16369227832E+03  0.26932525382E+03  0.57096472109E+03  0.65217479793E+03  0.00000000000E+00 0. -1.
         -3    1    6    6    0  503  0.37742821551E+03  0.40005768152E+03  0.10745203847E+04  0.12071007678E+04  0.00000000000E+00 0.  1.
<mgrwt>
<rscale>  0 0.18036385E+04</rscale>
<asrwt>0</asrwt>
<pdfrwt beam="1">  1        2 0.45631832E+00 0.18036385E+04</pdfrwt>
<pdfrwt beam="2">  1       -1 0.42183670E-01 0.18036385E+04</pdfrwt>
<totfact> 0.10889191E+01</totfact>
</mgrwt>
</event>
<event>
12    6  0.1586493E-007  0.1443890E+04  0.7818608E-02  0.8922647E-01
          2   -1    0    0  501    0  0.00000000000E+00  0.00000000000E+00  0.88247018314E+03  0.88247018314E+03  0.00000000000E+00 0. -1.
         -1   -1    0    0    0  501 -0.00000000000E+00 -0.00000000000E+00 -0.59062014324E+03  0.59062014324E+03  0.00000000000E+00 0.  1.
         24    2    1    2    0    0  0.25407477693E+03  0.42645492187E+02 -0.30633037786E+03  0.40815581596E+03  0.79876400938E+02 0.  0.
        254    2    1    2    0    0 -0.25407477693E+03 -0.42645492187E+02  0.59818041777E+03  0.10649345104E+04  0.84255152305E+03 0.  0.
         23    2    4    4    0    0 -0.33453429577E+00 -0.36131288603E+03  0.50690663720E+02  0.37640728178E+03  0.92551525454E+02 0.  0.
         23    2    4    4    0    0 -0.25374024263E+03  0.31866739384E+03  0.54748975405E+03  0.68852722863E+03  0.91606196052E+02 0.  0.
          4    1    3    3  502    0  0.83406889155E+02  0.31645779694E+02 -0.57195561436E+02  0.10596931999E+03  0.00000000000E+00 0. -1.
         -3    1    3    3    0  502  0.17066788777E+03  0.10999712492E+02 -0.24913481643E+03  0.30218649597E+03  0.00000000000E+00 0.  1.
         11    1    5    5    0    0  0.17210007433E+02 -0.30364954412E+02 -0.15927557074E+02  0.38365373537E+02  0.00000000000E+00 0. -1.
        -11    1    5    5    0    0 -0.17544541729E+02 -0.33094793162E+03  0.66618220794E+02  0.33804190824E+03  0.00000000000E+00 0.  1.
          4    1    6    6  503    0 -0.13389239069E+03  0.97240037355E+02  0.22916838722E+03  0.28266755535E+03  0.00000000000E+00 0. -1.
         -4    1    6    6    0  503 -0.11984785194E+03  0.22142735649E+03  0.31832136683E+03  0.40585967328E+03  0.00000000000E+00 0.  1.
<mgrwt>
<rscale>  0 0.14438901E+04</rscale>
<asrwt>0</asrwt>
<pdfrwt beam="1">  1        2 0.13576464E+00 0.14438901E+04</pdfrwt>
<pdfrwt beam="2">  1       -1 0.90864637E-01 0.14438901E+04</pdfrwt>
<totfact> 0.39484300E+01</totfact>
</mgrwt>
</event>
<event>
12    6  0.1586493E-007  0.2865294E+04  0.7818608E-02  0.8283279E-01
          2   -1    0    0  501    0  0.00000000000E+00  0.00000000000E+00  0.16663356811E+04  0.16663356811E+04  0.00000000000E+00 0. -1.
         -1   -1    0    0    0  501 -0.00000000000E+00 -0.00000000000E+00 -0.12317309374E+04  0.12317309374E+04  0.00000000000E+00 0.  1.
         24    2    1    2    0    0  0.14526984350E+03  0.27767057905E+03 -0.10690012123E+04  0.11168031839E+04  0.79255798890E+02 0.  0.
        254    2    1    2    0    0 -0.14526984350E+03 -0.27767057905E+03  0.15036059561E+04  0.17812634346E+04  0.90214426469E+03 0.  0.
         23    2    4    4    0    0 -0.36523747395E+03  0.17980802428E+01  0.19431432229E+03  0.42152604542E+03  0.80774412092E+02 0.  0.
         23    2    4    4    0    0  0.21996763045E+03 -0.27946865929E+03  0.13092916338E+04  0.13597373891E+04  0.90292276560E+02 0.  0.
          4    1    3    3  502    0  0.28804385517E+01  0.55504019471E+02 -0.25923587961E+03  0.26512682697E+03  0.00000000000E+00 0. -1.
         -3    1    3    3    0  502  0.14238940495E+03  0.22216655957E+03 -0.80976533272E+03  0.85167635691E+03  0.00000000000E+00 0.  1.
         11    1    5    5    0    0 -0.39673918231E+02  0.17669889483E+02  0.46493621680E+02  0.63623121891E+02  0.00000000000E+00 0.  1.
        -11    1    5    5    0    0 -0.32556355572E+03 -0.15871809240E+02  0.14782070061E+03  0.35790292353E+03  0.00000000000E+00 0. -1.
          1    1    6    6  503    0  0.14321157851E+03 -0.19307409263E+03  0.10259007784E+04  0.10536885539E+04  0.00000000000E+00 0. -1.
         -1    1    6    6    0  503  0.76756051939E+02 -0.86394566657E+02  0.28339085539E+03  0.30604883528E+03  0.00000000000E+00 0.  1.
<mgrwt>
<rscale>  0 0.28652938E+04</rscale>
<asrwt>0</asrwt>
<pdfrwt beam="1">  1        2 0.25635934E+00 0.28652938E+04</pdfrwt>
<pdfrwt beam="2">  1       -1 0.18949707E+00 0.28652938E+04</pdfrwt>
<totfact> 0.17973361E+00</totfact>
</mgrwt>
</event>
<event>
12    6  0.1586493E-007  0.2102656E+04  0.7818608E-02  0.8560074E-01
          2   -1    0    0  501    0  0.00000000000E+00  0.00000000000E+00  0.29473025350E+04  0.29473025350E+04  0.00000000000E+00 0. -1.
         -1   -1    0    0    0  501 -0.00000000000E+00 -0.00000000000E+00 -0.37501782446E+03  0.37501782446E+03  0.00000000000E+00 0.  1.
         24    2    1    2    0    0  0.16118915571E+03  0.47485577001E+03 -0.42754602335E+02  0.50966590123E+03  0.80383012074E+02 0.  0.
        254    2    1    2    0    0 -0.16118915571E+03 -0.47485577001E+03  0.26150393129E+04  0.28126544582E+04  0.90615922843E+03 0.  0.
         23    2    4    4    0    0 -0.50728510740E+03 -0.43729335862E+03  0.16742546320E+04  0.18054220320E+04  0.88636782510E+02 0.  0.
         23    2    4    4    0    0  0.34609595169E+03 -0.37562411387E+02  0.94078468086E+03  0.10072324262E+04  0.90818512055E+02 0.  0.
          4    1    3    3  502    0  0.31722272206E+02  0.10950175073E+03 -0.43581190443E+02  0.12205021969E+03  0.00000000000E+00 0. -1.
         -3    1    3    3    0  502  0.12946688351E+03  0.36535401928E+03  0.82658810881E+00  0.38761568154E+03  0.00000000000E+00 0.  1.
         11    1    5    5    0    0 -0.52219653105E+02 -0.13958920880E+02  0.13634765497E+03  0.14667115142E+03  0.00000000000E+00 0. -1.
        -11    1    5    5    0    0 -0.45506545429E+03 -0.42333443774E+03  0.15379069770E+04  0.16587508806E+04  0.00000000000E+00 0.  1.
          4    1    6    6  503    0  0.81462952015E+02 -0.48348547013E+02  0.26276120276E+03  0.27931567128E+03  0.00000000000E+00 0. -1.
         -4    1    6    6    0  503  0.26463299967E+03  0.10786135626E+02  0.67802347811E+03  0.72791675493E+03  0.00000000000E+00 0.  1.
<mgrwt>
<rscale>  0 0.21026564E+04</rscale>
<asrwt>0</asrwt>
<pdfrwt beam="1">  1        2 0.45343114E+00 0.21026564E+04</pdfrwt>
<pdfrwt beam="2">  1       -1 0.57695052E-01 0.21026564E+04</pdfrwt>
<totfact> 0.60019791E+00</totfact>
</mgrwt>
</event>
<event>
12    6  0.1586493E-007  0.1574116E+04  0.7818608E-02  0.8836609E-01
         -1   -1    0    0    0  501 -0.00000000000E+00  0.00000000000E+00  0.66027218196E+03  0.66027218196E+03  0.00000000000E+00 0.  1.
          2   -1    0    0  501    0  0.00000000000E+00 -0.00000000000E+00 -0.93818981601E+03  0.93818981601E+03  0.00000000000E+00 0. -1.
         24    2    1    2    0    0  0.44080794119E+03 -0.28544784860E+03 -0.14943593700E+03  0.55146152310E+03  0.77373101907E+02 0.  0.
        254    2    1    2    0    0 -0.44080794119E+03  0.28544784860E+03 -0.12848169705E+03  0.10470004749E+04  0.89661046872E+03 0.  0.
         23    2    4    4    0    0 -0.35309401481E+03  0.55150496826E+03  0.10794703251E+03  0.66972105180E+03  0.89669460165E+02 0.  0.
         23    2    4    4    0    0 -0.87713926379E+02 -0.26605711965E+03 -0.23642872956E+03  0.37727942308E+03  0.89224969132E+02 0.  0.
          4    1    3    3  502    0  0.18519748814E+03 -0.13259757249E+03 -0.10322972974E+03  0.25007319518E+03  0.00000000000E+00 0. -1.
         -3    1    3    3    0  502  0.25561045305E+03 -0.15285027611E+03 -0.46206207262E+02  0.30138832792E+03  0.00000000000E+00 0.  1.
         11    1    5    5    0    0 -0.16598755918E+02  0.32044166463E+02  0.27952753488E+02  0.45647603769E+02  0.00000000000E+00 0. -1.
        -11    1    5    5    0    0 -0.33649525890E+03  0.51946080179E+03  0.79994279021E+02  0.62407344803E+03  0.00000000000E+00 0.  1.
          2    1    6    6  503    0 -0.59511607207E+02 -0.25705820335E+03 -0.21918726244E+03  0.34302129280E+03  0.00000000000E+00 0.  1.
         -2    1    6    6    0  503 -0.28202319173E+02 -0.89989163062E+01 -0.17241467122E+02  0.34258130275E+02  0.00000000000E+00 0. -1.
<mgrwt>
<rscale>  0 0.15741164E+04</rscale>
<asrwt>0</asrwt>
<pdfrwt beam="1">  1        2 0.14433689E+00 0.15741164E+04</pdfrwt>
<pdfrwt beam="2">  1       -1 0.10158034E+00 0.15741164E+04</pdfrwt>
<totfact> 0.27871339E+01</totfact>
</mgrwt>
</event>
<event>
12    6  0.1586493E-007  0.2969414E+04  0.7818608E-02  0.8252519E-01
          2   -1    0    0  501    0  0.00000000000E+00  0.00000000000E+00  0.18875142051E+04  0.18875142051E+04  0.00000000000E+00 0. -1.
         -1   -1    0    0    0  501 -0.00000000000E+00 -0.00000000000E+00 -0.11678610125E+04  0.11678610125E+04  0.00000000000E+00 0.  1.
         24    2    1    2    0    0 -0.58531189381E+03 -0.54221203554E+03  0.14418565689E+04  0.16499589450E+04  0.82645330358E+02 0.  0.
        254    2    1    2    0    0  0.58531189381E+03  0.54221203554E+03 -0.72220337628E+03  0.14054162725E+04  0.90389893115E+03 0.  0.
         23    2    4    4    0    0  0.42427270087E+03 -0.14533671721E+03 -0.12170328998E+03  0.47347106776E+03  0.90736294502E+02 0.  0.
         23    2    4    4    0    0  0.16103919293E+03  0.68754875276E+03 -0.60050008631E+03  0.93194520472E+03  0.96252801908E+02 0.  0.
          4    1    3    3  502    0 -0.16595377631E+03 -0.15664465604E+03  0.49244806290E+03  0.54275528444E+03  0.00000000000E+00 0. -1.
         -3    1    3    3    0  502 -0.41935811749E+03 -0.38556737951E+03  0.94940850597E+03  0.11072036606E+04  0.00000000000E+00 0.  1.
         11    1    5    5    0    0  0.11847790844E+03 -0.15290194659E+02  0.36453386612E+00  0.11946103016E+03  0.00000000000E+00 0. -1.
        -11    1    5    5    0    0  0.30579479243E+03 -0.13004652256E+03 -0.12206782384E+03  0.35401003760E+03  0.00000000000E+00 0.  1.
          3    1    6    6  503    0  0.91916231896E+02  0.20414671805E+03 -0.17300788584E+03  0.28294205191E+03  0.00000000000E+00 0. -1.
         -3    1    6    6    0  503  0.69122961034E+02  0.48340203471E+03 -0.42749220047E+03  0.64900315281E+03  0.00000000000E+00 0.  1.
<mgrwt>
<rscale>  0 0.29694136E+04</rscale>
<asrwt>0</asrwt>
<pdfrwt beam="1">  1        2 0.29038680E+00 0.29694136E+04</pdfrwt>
<pdfrwt beam="2">  1       -1 0.17967093E+00 0.29694136E+04</pdfrwt>
<totfact> 0.15764456E+00</totfact>
</mgrwt>
</event>
<event>
12    6  0.1586493E-007  0.2636971E+04  0.7818608E-02  0.8355750E-01
          2   -1    0    0  501    0  0.00000000000E+00  0.00000000000E+00  0.13420195916E+04  0.13420195916E+04  0.00000000000E+00 0. -1.
         -1   -1    0    0    0  501 -0.00000000000E+00 -0.00000000000E+00 -0.12953641125E+04  0.12953641125E+04  0.00000000000E+00 0.  1.
         24    2    1    2    0    0 -0.16227319821E+03 -0.44999990015E+02  0.11717658387E+04  0.11862223522E+04  0.75701374326E+02 0.  0.
        254    2    1    2    0    0  0.16227319821E+03  0.44999990015E+02 -0.11251103597E+04  0.14511613519E+04  0.90090973898E+03 0.  0.
         23    2    4    4    0    0  0.18179040808E+03 -0.20535440534E+02  0.95033985141E+02  0.22570800166E+03  0.91886815656E+02 0.  0.
         23    2    4    4    0    0 -0.19517209873E+02  0.65535430549E+02 -0.12201443448E+04  0.12254533502E+04  0.91147557685E+02 0.  0.
          4    1    3    3  502    0 -0.86691865122E+02 -0.55702874105E+02  0.80718209570E+03  0.81373289554E+03  0.00000000000E+00 0. -1.
         -3    1    3    3    0  502 -0.75581333087E+02  0.10702884090E+02  0.36458374302E+03  0.37248945664E+03  0.00000000000E+00 0.  1.
         11    1    5    5    0    0  0.11397616880E+03 -0.63665415819E+01  0.79527153814E+01  0.11443052734E+03  0.00000000000E+00 0. -1.
        -11    1    5    5    0    0  0.67814239284E+02 -0.14168898952E+02  0.87081269760E+02  0.11127747432E+03  0.00000000000E+00 0.  1.
          3    1    6    6  503    0  0.94192955769E+01  0.56009712541E+02 -0.33467502058E+03  0.33946013084E+03  0.00000000000E+00 0. -1.
         -3    1    6    6    0  503 -0.28936505449E+02  0.95257180074E+01 -0.88546932422E+03  0.88599321938E+03  0.00000000000E+00 0.  1.
<mgrwt>
<rscale>  0 0.26369710E+04</rscale>
<asrwt>0</asrwt>
<pdfrwt beam="1">  1        2 0.20646455E+00 0.26369710E+04</pdfrwt>
<pdfrwt beam="2">  1       -1 0.19928679E+00 0.26369710E+04</pdfrwt>
<totfact> 0.23899395E+00</totfact>
</mgrwt>
</event>
<event>
12    6  0.1586493E-007  0.1889465E+04  0.7818608E-02  0.8660118E-01
         -1   -1    0    0    0  501 -0.00000000000E+00  0.00000000000E+00  0.46145549182E+03  0.46145549182E+03  0.00000000000E+00 0.  1.
          2   -1    0    0  501    0  0.00000000000E+00 -0.00000000000E+00 -0.19341394935E+04  0.19341394935E+04  0.00000000000E+00 0. -1.
         24    2    1    2    0    0  0.30221028392E+03  0.50462928488E+03 -0.11584433949E+04  0.13017358801E+04  0.80891479696E+02 0.  0.
        254    2    1    2    0    0 -0.30221028392E+03 -0.50462928488E+03 -0.31424060671E+03  0.10938591052E+04  0.86706332650E+03 0.  0.
         23    2    4    4    0    0 -0.82249307126E+02  0.40042955931E+02  0.24295398128E+03  0.27915940573E+03  0.10263990426E+03 0.  0.
         23    2    4    4    0    0 -0.21996097680E+03 -0.54467224081E+03 -0.55719458800E+03  0.81469969943E+03  0.90659308031E+02 0.  0.
          2    1    3    3  502    0  0.15753041744E+03  0.24845627708E+03 -0.49206526984E+03  0.57330147725E+03  0.00000000000E+00 0. -1.
         -1    1    3    3    0  502  0.14467986648E+03  0.25617300780E+03 -0.66637812509E+03  0.72843440287E+03  0.00000000000E+00 0.  1.
         11    1    5    5    0    0 -0.61532284368E+02  0.42775997933E+02  0.62734296662E+02  0.97732287379E+02  0.00000000000E+00 0.  1.
        -11    1    5    5    0    0 -0.20717022758E+02 -0.27330420021E+01  0.18021968462E+03  0.18142711836E+03  0.00000000000E+00 0. -1.
          1    1    6    6  503    0 -0.14956973272E+03 -0.37246860257E+03 -0.43625645712E+03  0.59280997059E+03  0.00000000000E+00 0. -1.
         -1    1    6    6    0  503 -0.70391244075E+02 -0.17220363824E+03 -0.12093813087E+03  0.22188972884E+03  0.00000000000E+00 0.  1.
<mgrwt>
<rscale>  0 0.18894648E+04</rscale>
<asrwt>0</asrwt>
<pdfrwt beam="1">  1        2 0.29755992E+00 0.18894648E+04</pdfrwt>
<pdfrwt beam="2">  1       -1 0.70993153E-01 0.18894648E+04</pdfrwt>
<totfact> 0.15550014E+01</totfact>
</mgrwt>
</event>
<event>
12    6  0.1586493E-007  0.1584758E+04  0.7818608E-02  0.8829967E-01
         -1   -1    0    0    0  501 -0.00000000000E+00  0.00000000000E+00  0.40430816345E+03  0.40430816345E+03  0.00000000000E+00 0.  1.
          2   -1    0    0  501    0  0.00000000000E+00 -0.00000000000E+00 -0.15529349836E+04  0.15529349836E+04  0.00000000000E+00 0. -1.
         24    2    1    2    0    0  0.26632932189E+01 -0.48676236785E+01  0.26734203024E+03  0.27946265070E+03  0.81220841632E+02 0.  0.
        254    2    1    2    0    0 -0.26632932189E+01  0.48676236785E+01 -0.14159688504E+04  0.16777804964E+04  0.89997156720E+03 0.  0.
         23    2    4    4    0    0  0.63784202481E+02 -0.36947680465E+03 -0.27899402843E+03  0.47539519273E+03  0.87071164633E+02 0.  0.
         23    2    4    4    0    0 -0.66447495700E+02  0.37434442833E+03 -0.11369748220E+04  0.12023853037E+04  0.92030711555E+02 0.  0.
          2    1    3    3  502    0 -0.97360367607E+01 -0.22154764484E+02  0.20528477332E+02  0.31733931094E+02  0.00000000000E+00 0. -1.
         -1    1    3    3    0  502  0.12399329980E+02  0.17287140805E+02  0.24681355291E+03  0.24772871961E+03  0.00000000000E+00 0.  1.
         11    1    5    5    0    0  0.43143226487E+02 -0.84299455241E+02 -0.40228511742E+02  0.10288862572E+03  0.00000000000E+00 0.  1.
        -11    1    5    5    0    0  0.20640975994E+02 -0.28517734941E+03 -0.23876551669E+03  0.37250656701E+03  0.00000000000E+00 0. -1.
          2    1    6    6  503    0 -0.61217310472E+02  0.37166414122E+03 -0.10554698996E+04  0.11206687744E+04  0.00000000000E+00 0. -1.
         -2    1    6    6    0  503 -0.52301852288E+01  0.26802871110E+01 -0.81504922383E+02  0.81716529229E+02  0.00000000000E+00 0.  1.
<mgrwt>
<rscale>  0 0.15847578E+04</rscale>
<asrwt>0</asrwt>
<pdfrwt beam="1">  1        2 0.23891308E+00 0.15847578E+04</pdfrwt>
<pdfrwt beam="2">  1       -1 0.62201254E-01 0.15847578E+04</pdfrwt>
<totfact> 0.33983916E+01</totfact>
</mgrwt>
</event>
<event>
12    6  0.1586493E-007  0.2833786E+04  0.7818608E-02  0.8292855E-01
          2   -1    0    0  501    0  0.00000000000E+00  0.00000000000E+00  0.37077688508E+04  0.37077688508E+04  0.00000000000E+00 0. -1.
         -1   -1    0    0    0  501 -0.00000000000E+00 -0.00000000000E+00 -0.54145390009E+03  0.54145390009E+03  0.00000000000E+00 0.  1.
         24    2    1    2    0    0  0.29338938331E+03 -0.36008815989E+03  0.32086017256E+04  0.32430518821E+04  0.80744434108E+02 0.  0.
        254    2    1    2    0    0 -0.29338938331E+03  0.36008815989E+03 -0.42286774904E+02  0.10061708687E+04  0.89154407216E+03 0.  0.
         23    2    4    4    0    0  0.46367639426E+02  0.54858199843E+03  0.12612566885E+03  0.57344639668E+03  0.99201403883E+02 0.  0.
         23    2    4    4    0    0 -0.33975702274E+03 -0.18849383854E+03 -0.16841244376E+03  0.43272447204E+03  0.89010987121E+02 0.  0.
          4    1    3    3  502    0  0.26863522265E+03 -0.31062372031E+03  0.29612650713E+04  0.29896057935E+04  0.00000000000E+00 0. -1.
         -3    1    3    3    0  502  0.24754160659E+02 -0.49464439578E+02  0.24733665433E+03  0.25344608860E+03  0.00000000000E+00 0.  1.
         11    1    5    5    0    0 -0.12589142990E+02  0.17974556045E+03  0.79799738514E+02  0.19706585521E+03  0.00000000000E+00 0. -1.
        -11    1    5    5    0    0  0.58956782416E+02  0.36883643797E+03  0.46325930339E+02  0.37638054146E+03  0.00000000000E+00 0.  1.
          3    1    6    6  503    0 -0.10601205112E+02 -0.29861263724E+02 -0.24350609198E+02  0.39962892654E+02  0.00000000000E+00 0. -1.
         -3    1    6    6    0  503 -0.32915581762E+03 -0.15863257481E+03 -0.14406183456E+03  0.39276157939E+03  0.00000000000E+00 0.  1.
<mgrwt>
<rscale>  0 0.28337861E+04</rscale>
<asrwt>0</asrwt>
<pdfrwt beam="1">  1        2 0.57042596E+00 0.28337861E+04</pdfrwt>
<pdfrwt beam="2">  1       -1 0.83300602E-01 0.28337861E+04</pdfrwt>
<totfact> 0.81243327E-01</totfact>
</mgrwt>
</event>
<event>
12    6  0.1586493E-007  0.1325966E+04  0.7818608E-02  0.9009224E-01
          2   -1    0    0  501    0  0.00000000000E+00  0.00000000000E+00  0.12867164068E+04  0.12867164068E+04  0.00000000000E+00 0. -1.
         -1   -1    0    0    0  501 -0.00000000000E+00 -0.00000000000E+00 -0.34160318332E+03  0.34160318332E+03  0.00000000000E+00 0.  1.
         24    2    1    2    0    0  0.27699965851E+03 -0.14717186233E+03  0.46516008003E+03  0.56674506166E+03  0.80235260253E+02 0.  0.
        254    2    1    2    0    0 -0.27699965851E+03  0.14717186233E+03  0.47995314345E+03  0.10615745285E+04  0.89341876614E+03 0.  0.
         23    2    4    4    0    0  0.18138682273E+03  0.32018500974E+03  0.40878661258E+03  0.55876246669E+03  0.98434646471E+02 0.  0.
         23    2    4    4    0    0 -0.45838648125E+03 -0.17301314740E+03  0.71166530871E+02  0.50281206177E+03  0.87770034669E+02 0.  0.
          2    1    3    3  502    0  0.23220382508E+03 -0.13677985701E+03  0.34293599431E+03  0.43615644195E+03  0.00000000000E+00 0. -1.
         -1    1    3    3    0  502  0.44795833435E+02 -0.10392005325E+02  0.12222408572E+03  0.13058861971E+03  0.00000000000E+00 0.  1.
         11    1    5    5    0    0  0.34002351992E+02  0.29199717055E+02  0.14637356672E+02  0.47149078755E+02  0.00000000000E+00 0.  1.
        -11    1    5    5    0    0  0.14738447074E+03  0.29098529269E+03  0.39414925591E+03  0.51161338793E+03  0.00000000000E+00 0. -1.
          4    1    6    6  503    0 -0.33778513981E+03 -0.15514122301E+03  0.25361968261E+02  0.37257325345E+03  0.00000000000E+00 0. -1.
         -4    1    6    6    0  503 -0.12060134143E+03 -0.17871924399E+02  0.45804562611E+02  0.13023880832E+03  0.00000000000E+00 0.  1.
<mgrwt>
<rscale>  0 0.13259659E+04</rscale>
<asrwt>0</asrwt>
<pdfrwt beam="1">  1        2 0.19795637E+00 0.13259659E+04</pdfrwt>
<pdfrwt beam="2">  1       -1 0.52554337E-01 0.13259659E+04</pdfrwt>
<totfact> 0.68469541E+01</totfact>
</mgrwt>
</event>
<event>
12    6  0.1586493E-007  0.1592890E+04  0.7818608E-02  0.8824928E-01
          2   -1    0    0  501    0  0.00000000000E+00  0.00000000000E+00  0.24380661716E+04  0.24380661716E+04  0.00000000000E+00 0. -1.
         -1   -1    0    0    0  501 -0.00000000000E+00 -0.00000000000E+00 -0.26017539814E+03  0.26017539814E+03  0.00000000000E+00 0.  1.
         24    2    1    2    0    0  0.73097889345E+02 -0.53600745693E+02  0.16539194780E+04  0.16582530523E+04  0.78340311074E+02 0.  0.
        254    2    1    2    0    0 -0.73097889345E+02  0.53600745693E+02  0.52397129547E+03  0.10399885175E+04  0.89376387073E+03 0.  0.
         23    2    4    4    0    0 -0.37044318867E+03 -0.75424518049E+02 -0.30887732032E+02  0.39000604413E+03  0.90739453990E+02 0.  0.
         23    2    4    4    0    0  0.29734529933E+03  0.12902526374E+03  0.55485902750E+03  0.64998247335E+03  0.97708390320E+02 0.  0.
          2    1    3    3  502    0  0.47510148740E+02 -0.40758411791E+02  0.49009444191E+03  0.49407592975E+03  0.00000000000E+00 0. -1.
         -1    1    3    3    0  502  0.25587740604E+02 -0.12842333902E+02  0.11638250361E+04  0.11641771225E+04  0.00000000000E+00 0.  1.
         11    1    5    5    0    0 -0.15463097249E+03 -0.52915199889E+02 -0.53209783625E+02  0.17187797155E+03  0.00000000000E+00 0.  1.
        -11    1    5    5    0    0 -0.21581221618E+03 -0.22509318160E+02  0.22322051593E+02  0.21812807257E+03  0.00000000000E+00 0. -1.
          1    1    6    6  503    0  0.85104002102E+02 -0.80727966256E+01  0.12714399178E+03  0.15321049529E+03  0.00000000000E+00 0. -1.
         -1    1    6    6    0  503  0.21224129722E+03  0.13709806037E+03  0.42771503572E+03  0.49677197806E+03  0.00000000000E+00 0.  1.
<mgrwt>
<rscale>  0 0.15928902E+04</rscale>
<asrwt>0</asrwt>
<pdfrwt beam="1">  1        2 0.37508709E+00 0.15928902E+04</pdfrwt>
<pdfrwt beam="2">  1       -1 0.40026986E-01 0.15928902E+04</pdfrwt>
<totfact> 0.25173386E+01</totfact>
</mgrwt>
</event>
<event>
12    6  0.1586493E-007  0.2092286E+04  0.7818608E-02  0.8564649E-01
          2   -1    0    0  501    0  0.00000000000E+00  0.00000000000E+00  0.30253435849E+04  0.30253435849E+04  0.00000000000E+00 0. -1.
         -1   -1    0    0    0  501 -0.00000000000E+00 -0.00000000000E+00 -0.36174916816E+03  0.36174916816E+03  0.00000000000E+00 0.  1.
         24    2    1    2    0    0 -0.34671916361E+03 -0.24864058766E+03  0.22788253522E+04  0.23197785060E+04  0.79315892169E+02 0.  0.
        254    2    1    2    0    0  0.34671916361E+03  0.24864058766E+03  0.38476906457E+03  0.10673142471E+04  0.89948660289E+03 0.  0.
         23    2    4    4    0    0  0.41563270347E+03  0.44888424755E+03 -0.40803973843E+00  0.61838976171E+03  0.90322306194E+02 0.  0.
         23    2    4    4    0    0 -0.68913539862E+02 -0.20024365989E+03  0.38517710431E+03  0.44892448540E+03  0.91242493393E+02 0.  0.
          4    1    3    3  502    0 -0.30918690625E+03 -0.23607836218E+03  0.21534455349E+04  0.21883000726E+04  0.00000000000E+00 0. -1.
         -3    1    3    3    0  502 -0.37532257357E+02 -0.12562225474E+02  0.12537981730E+03  0.13147843335E+03  0.00000000000E+00 0.  1.
         11    1    5    5    0    0  0.37914332600E+03  0.36641293218E+03 -0.12414938537E+02  0.52741087324E+03  0.00000000000E+00 0.  1.
        -11    1    5    5    0    0  0.36489377471E+02  0.82471315372E+02  0.12006898799E+02  0.90978888464E+02  0.00000000000E+00 0. -1.
          3    1    6    6  503    0  0.15115216713E+02 -0.51328956871E+02  0.14117971988E+03  0.15097961749E+03  0.00000000000E+00 0. -1.
         -3    1    6    6    0  503 -0.84028756575E+02 -0.14891470302E+03  0.24399738442E+03  0.29794486791E+03  0.00000000000E+00 0.  1.
<mgrwt>
<rscale>  0 0.20922863E+04</rscale>
<asrwt>0</asrwt>
<pdfrwt beam="1">  1        2 0.46543746E+00 0.20922863E+04</pdfrwt>
<pdfrwt beam="2">  1       -1 0.55653720E-01 0.20922863E+04</pdfrwt>
<totfact> 0.57623709E+00</totfact>
</mgrwt>
</event>
<event>
12    6  0.1586493E-007  0.1747121E+04  0.7818608E-02  0.8734937E-01
         -1   -1    0    0    0  501 -0.00000000000E+00  0.00000000000E+00  0.30390394190E+03  0.30390394190E+03  0.00000000000E+00 0.  1.
          2   -1    0    0  501    0  0.00000000000E+00 -0.00000000000E+00 -0.25110162456E+04  0.25110162456E+04  0.00000000000E+00 0. -1.
         24    2    1    2    0    0  0.28193480155E+03 -0.32316957462E+03 -0.50707001600E+02  0.43960591346E+03  0.82197036748E+02 0.  0.
        254    2    1    2    0    0 -0.28193480155E+03  0.32316957462E+03 -0.21564053021E+04  0.23753142740E+04  0.89894842305E+03 0.  0.
         23    2    4    4    0    0  0.16167441760E+03 -0.18164108263E+03 -0.28853493101E+03  0.38819358007E+03  0.91157824653E+02 0.  0.
         23    2    4    4    0    0 -0.44360921915E+03  0.50481065725E+03 -0.18678703711E+04  0.19871206940E+04  0.89922134300E+02 0.  0.
          4    1    3    3  502    0  0.99979330546E+02 -0.16319862573E+03  0.31483849080E+01  0.19141465541E+03  0.00000000000E+00 0. -1.
         -3    1    3    3    0  502  0.18195547100E+03 -0.15997094889E+03 -0.53855386508E+02  0.24819125805E+03  0.00000000000E+00 0.  1.
         11    1    5    5    0    0 -0.82425930002E+01  0.19334722973E+01 -0.40801284391E+01  0.93981967723E+01  0.00000000000E+00 0. -1.
        -11    1    5    5    0    0  0.16991701060E+03 -0.18357455493E+03 -0.28445480257E+03  0.37879538330E+03  0.00000000000E+00 0.  1.
          4    1    6    6  503    0 -0.16893434626E+01  0.87901519256E+01 -0.67560571422E+02  0.68150946164E+02  0.00000000000E+00 0. -1.
         -4    1    6    6    0  503 -0.44191987568E+03  0.49602050533E+03 -0.18003097997E+04  0.19189697478E+04  0.00000000000E+00 0.  1.
<mgrwt>
<rscale>  0 0.17471208E+04</rscale>
<asrwt>0</asrwt>
<pdfrwt beam="1">  1        2 0.38631018E+00 0.17471208E+04</pdfrwt>
<pdfrwt beam="2">  1       -1 0.46754454E-01 0.17471208E+04</pdfrwt>
<totfact> 0.16903266E+01</totfact>
</mgrwt>
</event>
<event>
12    6  0.1586493E-007  0.2500784E+04  0.7818608E-02  0.8402706E-01
          2   -1    0    0  501    0  0.00000000000E+00  0.00000000000E+00  0.19347107715E+04  0.19347107715E+04  0.00000000000E+00 0. -1.
         -1   -1    0    0    0  501 -0.00000000000E+00 -0.00000000000E+00 -0.80812119124E+03  0.80812119124E+03  0.00000000000E+00 0.  1.
         24    2    1    2    0    0 -0.58010843817E+03 -0.88503206833E+02 -0.51233584564E+03  0.78315193017E+03  0.80500368559E+02 0.  0.
        254    2    1    2    0    0  0.58010843817E+03  0.88503206833E+02  0.16389254259E+04  0.19596800325E+04  0.89995036570E+03 0.  0.
         23    2    4    4    0    0 -0.30292127135E+02 -0.31875184138E+03  0.55110530041E+03  0.64463862996E+03  0.96548235378E+02 0.  0.
         23    2    4    4    0    0  0.61040056530E+03  0.40725504821E+03  0.10878201255E+04  0.13150414026E+04  0.86808644236E+02 0.  0.
          4    1    3    3  502    0 -0.28816733378E+03 -0.28315152128E+02 -0.30163447490E+03  0.41812141364E+03  0.00000000000E+00 0. -1.
         -3    1    3    3    0  502 -0.29194110439E+03 -0.60188054705E+02 -0.21070137074E+03  0.36503051652E+03  0.00000000000E+00 0.  1.
         11    1    5    5    0    0 -0.64112582924E+02 -0.17633631557E+03  0.32555945949E+03  0.37575774262E+03  0.00000000000E+00 0.  1.
        -11    1    5    5    0    0  0.33820455789E+02 -0.14241552581E+03  0.22554584092E+03  0.26888088734E+03  0.00000000000E+00 0. -1.
          1    1    6    6  503    0  0.51124810820E+03  0.37687787111E+03  0.94076020118E+03  0.11350952885E+04  0.00000000000E+00 0. -1.
         -1    1    6    6    0  503  0.99152457103E+02  0.30377177101E+02  0.14705992429E+03  0.17994611408E+03  0.00000000000E+00 0.  1.
<mgrwt>
<rscale>  0 0.25007845E+04</rscale>
<asrwt>0</asrwt>
<pdfrwt beam="1">  1        2 0.29764781E+00 0.25007845E+04</pdfrwt>
<pdfrwt beam="2">  1       -1 0.12432634E+00 0.25007845E+04</pdfrwt>
<totfact> 0.41812960E+00</totfact>
</mgrwt>
</event>
<event>
12    6  0.1586493E-007  0.1140795E+04  0.7818608E-02  0.9166318E-01
          2   -1    0    0  501    0  0.00000000000E+00  0.00000000000E+00  0.13828256228E+04  0.13828256228E+04  0.00000000000E+00 0. -1.
         -1   -1    0    0    0  501 -0.00000000000E+00 -0.00000000000E+00 -0.23528140817E+03  0.23528140817E+03  0.00000000000E+00 0.  1.
         24    2    1    2    0    0  0.16825567128E+03  0.10747490797E+03  0.30032525414E+03  0.37016632682E+03  0.83468703579E+02 0.  0.
        254    2    1    2    0    0 -0.16825567128E+03 -0.10747490797E+03  0.84721896044E+03  0.12479407041E+04  0.89426797285E+03 0.  0.
         23    2    4    4    0    0 -0.35273025172E+03 -0.40278230975E+03  0.40580875098E+03  0.67809372945E+03  0.92076837568E+02 0.  0.
         23    2    4    4    0    0  0.18447458045E+03  0.29530740177E+03  0.44141020946E+03  0.56984697466E+03  0.92979939456E+02 0.  0.
          2    1    3    3  502    0  0.23378557558E+02  0.25758984398E+02  0.11956240069E+03  0.12452007826E+03  0.00000000000E+00 0. -1.
         -1    1    3    3    0  502  0.14487711372E+03  0.81715923574E+02  0.18076285345E+03  0.24564624856E+03  0.00000000000E+00 0.  1.
         11    1    5    5    0    0 -0.29551629095E+03 -0.27940442545E+03  0.31737155732E+03  0.51586957322E+03  0.00000000000E+00 0. -1.
        -11    1    5    5    0    0 -0.57213960772E+02 -0.12337788430E+03  0.88437193664E+02  0.16222415623E+03  0.00000000000E+00 0.  1.
          1    1    6    6  503    0  0.13001752027E+03  0.26891631626E+03  0.38337550240E+03  0.48600135450E+03  0.00000000000E+00 0. -1.
         -1    1    6    6    0  503  0.54457060178E+02  0.26391085513E+02  0.58034707055E+02  0.83845620164E+02  0.00000000000E+00 0.  1.
<mgrwt>
<rscale>  0 0.11407947E+04</rscale>
<asrwt>0</asrwt>
<pdfrwt beam="1">  1        2 0.21274240E+00 0.11407947E+04</pdfrwt>
<pdfrwt beam="2">  1       -1 0.36197140E-01 0.11407947E+04</pdfrwt>
<totfact> 0.12193942E+02</totfact>
</mgrwt>
</event>
<event>
12    6  0.1586493E-007  0.1855471E+04  0.7818608E-02  0.8677345E-01
         -1   -1    0    0    0  501 -0.00000000000E+00  0.00000000000E+00  0.27361208906E+03  0.27361208906E+03  0.00000000000E+00 0.  1.
          2   -1    0    0  501    0  0.00000000000E+00 -0.00000000000E+00 -0.31456680624E+04  0.31456680624E+04  0.00000000000E+00 0. -1.
         24    2    1    2    0    0  0.16673130427E+03 -0.18315018808E+03  0.10787232395E+03  0.28176643512E+03  0.80078501918E+02 0.  0.
        254    2    1    2    0    0 -0.16673130427E+03  0.18315018808E+03 -0.29799282973E+04  0.31375137164E+04  0.95009280811E+03 0.  0.
         23    2    4    4    0    0  0.19471269095E+03 -0.23664556448E+03 -0.48751679534E+03  0.58265120152E+03  0.88857423371E+02 0.  0.
         23    2    4    4    0    0 -0.36144399522E+03  0.41979575256E+03 -0.24924115020E+04  0.25548625148E+04  0.91307935279E+02 0.  0.
          4    1    3    3  502    0  0.26752647059E+02 -0.12938970862E+02 -0.10614972392E+02  0.31556278781E+02  0.00000000000E+00 0. -1.
         -3    1    3    3    0  502  0.13997865721E+03 -0.17021121722E+03  0.11848729634E+03  0.25021015634E+03  0.00000000000E+00 0.  1.
         11    1    5    5    0    0  0.17464785928E+03 -0.15962914315E+03 -0.39663597800E+03  0.46184785063E+03  0.00000000000E+00 0. -1.
        -11    1    5    5    0    0  0.20064831676E+02 -0.77016421329E+02 -0.90880817345E+02  0.12080335089E+03  0.00000000000E+00 0.  1.
          4    1    6    6  503    0 -0.32117378743E+03  0.39838550289E+03 -0.23591778798E+04  0.24140389142E+04  0.00000000000E+00 0. -1.
         -4    1    6    6    0  503 -0.40270207790E+02  0.21410249666E+02 -0.13323362216E+03  0.14082360065E+03  0.00000000000E+00 0.  1.
<mgrwt>
<rscale>  0 0.18554706E+04</rscale>
<asrwt>0</asrwt>
<pdfrwt beam="1">  1        2 0.48394891E+00 0.18554706E+04</pdfrwt>
<pdfrwt beam="2">  1       -1 0.42094170E-01 0.18554706E+04</pdfrwt>
<totfact> 0.83810682E+00</totfact>
</mgrwt>
</event>
<event>
12    6  0.1586493E-007  0.2802727E+04  0.7818608E-02  0.8302422E-01
         -1   -1    0    0    0  501 -0.00000000000E+00  0.00000000000E+00  0.53777658718E+03  0.53777658718E+03  0.00000000000E+00 0.  1.
          2   -1    0    0  501    0  0.00000000000E+00 -0.00000000000E+00 -0.36517378931E+04  0.36517378931E+04  0.00000000000E+00 0. -1.
         24    2    1    2    0    0  0.79350645525E+03  0.29028824202E+03 -0.11083916389E+02  0.84979987136E+03  0.90095561364E+02 0.  0.
        254    2    1    2    0    0 -0.79350645525E+03 -0.29028824202E+03 -0.31028773895E+04  0.33397146089E+04  0.90106926291E+03 0.  0.
         23    2    4    4    0    0 -0.29337662391E+02  0.26588988386E+03 -0.80983759640E+03  0.85791200960E+03  0.92832940861E+02 0.  0.
         23    2    4    4    0    0 -0.76416879286E+03 -0.55617812588E+03 -0.22930397931E+04  0.24818025993E+04  0.89580116997E+02 0.  0.
          4    1    3    3  502    0  0.13298498521E+03  0.20557437120E+02  0.17835055948E+02  0.13574131182E+03  0.00000000000E+00 0. -1.
         -3    1    3    3    0  502  0.66052147003E+03  0.26973080490E+03 -0.28918972337E+02  0.71405855954E+03  0.00000000000E+00 0.  1.
         11    1    5    5    0    0 -0.17445508813E+02  0.50270281025E+02 -0.29269913401E+03  0.29749660500E+03  0.00000000000E+00 0.  1.
        -11    1    5    5    0    0 -0.11892153579E+02  0.21561960284E+03 -0.51713846238E+03  0.56041540461E+03  0.00000000000E+00 0. -1.
          1    1    6    6  503    0 -0.42178060253E+03 -0.32941775894E+03 -0.14022690395E+04  0.15009241805E+04  0.00000000000E+00 0. -1.
         -1    1    6    6    0  503 -0.34238819032E+03 -0.22676036695E+03 -0.89077075367E+03  0.98087841881E+03  0.00000000000E+00 0.  1.
<mgrwt>
<rscale>  0 0.28027266E+04</rscale>
<asrwt>0</asrwt>
<pdfrwt beam="1">  1        2 0.56180583E+00 0.28027266E+04</pdfrwt>
<pdfrwt beam="2">  1       -1 0.82734860E-01 0.28027266E+04</pdfrwt>
<totfact> 0.90889527E-01</totfact>
</mgrwt>
</event>
<event>
12    6  0.1586493E-007  0.2335319E+04  0.7818608E-02  0.8464124E-01
          2   -1    0    0  501    0  0.00000000000E+00  0.00000000000E+00  0.14397582816E+04  0.14397582816E+04  0.00000000000E+00 0. -1.
         -1   -1    0    0    0  501 -0.00000000000E+00 -0.00000000000E+00 -0.94698435961E+03  0.94698435961E+03  0.00000000000E+00 0.  1.
         24    2    1    2    0    0 -0.92577662369E+03  0.14607573793E+03  0.18491732407E+03  0.95868394227E+03  0.80498485906E+02 0.  0.
        254    2    1    2    0    0  0.92577662369E+03 -0.14607573793E+03  0.30785659789E+03  0.14280586989E+04  0.10325577391E+04 0.  0.
         23    2    4    4    0    0  0.38533866838E+03  0.61036664065E+02 -0.36047410756E+03  0.53913411947E+03  0.92264038751E+02 0.  0.
         23    2    4    4    0    0  0.54043795532E+03 -0.20711240199E+03  0.66833070545E+03  0.88892457945E+03  0.92478351510E+02 0.  0.
          2    1    3    3  502    0 -0.44864691799E+03  0.39564944653E+02  0.62382518774E+02  0.45468782755E+03  0.00000000000E+00 0. -1.
         -1    1    3    3    0  502 -0.47712970570E+03  0.10651079328E+03  0.12253480530E+03  0.50399611472E+03  0.00000000000E+00 0.  1.
         11    1    5    5    0    0  0.35608816925E+03  0.63416169971E+02 -0.35921417435E+03  0.50975996111E+03  0.00000000000E+00 0. -1.
        -11    1    5    5    0    0  0.29250499129E+02 -0.23795059060E+01 -0.12599332056E+01  0.29374158360E+02  0.00000000000E+00 0.  1.
          3    1    6    6  503    0  0.52964098899E+03 -0.20980652949E+03  0.63168171159E+03  0.85062338423E+03  0.00000000000E+00 0. -1.
         -3    1    6    6    0  503  0.10796966324E+02  0.26941274912E+01  0.36648993856E+02  0.38301195221E+02  0.00000000000E+00 0.  1.
<mgrwt>
<rscale>  0 0.23353189E+04</rscale>
<asrwt>0</asrwt>
<pdfrwt beam="1">  1        2 0.22150127E+00 0.23353189E+04</pdfrwt>
<pdfrwt beam="2">  1       -1 0.14568990E+00 0.23353189E+04</pdfrwt>
<totfact> 0.53365023E+00</totfact>
</mgrwt>
</event>
<event>
12    6  0.1586493E-007  0.1164793E+04  0.7818608E-02  0.9144244E-01
          2   -1    0    0  501    0  0.00000000000E+00  0.00000000000E+00  0.12754374994E+04  0.12754374994E+04  0.00000000000E+00 0. -1.
         -1   -1    0    0    0  501 -0.00000000000E+00 -0.00000000000E+00 -0.26593675477E+03  0.26593675477E+03  0.00000000000E+00 0.  1.
         24    2    1    2    0    0  0.45157848166E+02 -0.42133371010E+02  0.49892738799E+03  0.50931525255E+03  0.81602915284E+02 0.  0.
        254    2    1    2    0    0 -0.45157848166E+02  0.42133371010E+02  0.51057335662E+03  0.10320590016E+04  0.89478834262E+03 0.  0.
         23    2    4    4    0    0  0.13981400627E+03  0.18702102233E+03  0.68218813352E+03  0.72704018531E+03  0.93177048612E+02 0.  0.
         23    2    4    4    0    0 -0.18497185443E+03 -0.14488765132E+03 -0.17161477690E+03  0.30501881630E+03  0.91530476935E+02 0.  0.
          4    1    3    3  502    0  0.29523643692E+02 -0.37837683543E+02  0.48656520785E+03  0.48892641300E+03  0.00000000000E+00 0. -1.
         -3    1    3    3    0  502  0.15634204474E+02 -0.42956874673E+01  0.12362180140E+02  0.20388839549E+02  0.00000000000E+00 0.  1.
         11    1    5    5    0    0 -0.13914307345E+02  0.15726162112E+02  0.48606712667E+02  0.52948396010E+02  0.00000000000E+00 0. -1.
        -11    1    5    5    0    0  0.15372831361E+03  0.17129486022E+03  0.63358142086E+03  0.67409178930E+03  0.00000000000E+00 0.  1.
          4    1    6    6  503    0 -0.25978036202E+02 -0.73344935078E+02 -0.53551412036E+02  0.94456823986E+02  0.00000000000E+00 0. -1.
         -4    1    6    6    0  503 -0.15899381823E+03 -0.71542716240E+02 -0.11806336486E+03  0.21056199231E+03  0.00000000000E+00 0.  1.
<mgrwt>
<rscale>  0 0.11647930E+04</rscale>
<asrwt>0</asrwt>
<pdfrwt beam="1">  1        2 0.19622115E+00 0.11647930E+04</pdfrwt>
<pdfrwt beam="2">  1       -1 0.40913348E-01 0.11647930E+04</pdfrwt>
<totfact> 0.11248270E+02</totfact>
</mgrwt>
</event>
<event>
12    6  0.1586493E-007  0.3191408E+04  0.7818608E-02  0.8191090E-01
         -1   -1    0    0    0  501 -0.00000000000E+00  0.00000000000E+00  0.12935445821E+04  0.12935445821E+04  0.00000000000E+00 0.  1.
          2   -1    0    0  501    0  0.00000000000E+00 -0.00000000000E+00 -0.19684445528E+04  0.19684445528E+04  0.00000000000E+00 0. -1.
         24    2    1    2    0    0  0.45229755744E+03 -0.12379753487E+04 -0.98715670683E+03  0.16486486668E+04  0.80050098771E+02 0.  0.
        254    2    1    2    0    0 -0.45229755744E+03  0.12379753487E+04  0.31225673618E+03  0.16133404681E+04  0.87647427353E+03 0.  0.
         23    2    4    4    0    0  0.15976297010E+03  0.49639972946E+03  0.37008777610E+03  0.64606555893E+03  0.92189188055E+02 0.  0.
         23    2    4    4    0    0 -0.61206052755E+03  0.74157561924E+03 -0.57831039920E+02  0.96727490914E+03  0.87885335726E+02 0.  0.
          4    1    3    3  502    0  0.20023159741E+03 -0.52900064592E+03 -0.47266193634E+03  0.73711849933E+03  0.00000000000E+00 0. -1.
         -3    1    3    3    0  502  0.25206596004E+03 -0.70897470278E+03 -0.51449477048E+03  0.91153016749E+03  0.00000000000E+00 0.  1.
         11    1    5    5    0    0  0.64172842648E+01  0.57006817359E+01  0.26153193550E+02  0.27525785047E+02  0.00000000000E+00 0.  1.
        -11    1    5    5    0    0  0.15334568584E+03  0.49069904773E+03  0.34393458255E+03  0.61853977389E+03  0.00000000000E+00 0. -1.
          1    1    6    6  503    0 -0.58958064793E+03  0.69156863005E+03 -0.40129838353E+02  0.90966087880E+03  0.00000000000E+00 0. -1.
         -1    1    6    6    0  503 -0.22479879618E+02  0.50006989190E+02 -0.17701201567E+02  0.57614030343E+02  0.00000000000E+00 0.  1.
<mgrwt>
<rscale>  0 0.31914077E+04</rscale>
<asrwt>0</asrwt>
<pdfrwt beam="1">  1        2 0.30283762E+00 0.31914077E+04</pdfrwt>
<pdfrwt beam="2">  1       -1 0.19900686E+00 0.31914077E+04</pdfrwt>
<totfact> 0.10196398E+00</totfact>
</mgrwt>
</event>
<event>
12    6  0.1586493E-007  0.2184424E+04  0.7818608E-02  0.8524939E-01
         -1   -1    0    0    0  501 -0.00000000000E+00  0.00000000000E+00  0.64619528326E+03  0.64619528326E+03  0.00000000000E+00 0.  1.
          2   -1    0    0  501    0  0.00000000000E+00 -0.00000000000E+00 -0.18460777198E+04  0.18460777198E+04  0.00000000000E+00 0. -1.
         24    2    1    2    0    0 -0.45493747101E+03 -0.70044430162E+03 -0.88418303509E+03  0.12188094163E+04  0.78271524060E+02 0.  0.
        254    2    1    2    0    0  0.45493747101E+03  0.70044430162E+03 -0.31569940140E+03  0.12734635867E+04  0.90799398262E+03 0.  0.
         23    2    4    4    0    0  0.68022127381E+03  0.27821539048E+03 -0.25210296701E+03  0.78220144467E+03  0.90434557664E+02 0.  0.
         23    2    4    4    0    0 -0.22528380280E+03  0.42222891114E+03 -0.63596434391E+02  0.49126214206E+03  0.90906218432E+02 0.  0.
          4    1    3    3  502    0 -0.34481820344E+03 -0.53101794266E+03 -0.71706064495E+03  0.95658539472E+03  0.00000000000E+00 0. -1.
         -1    1    3    3    0  502 -0.11011926757E+03 -0.16942635896E+03 -0.16712239015E+03  0.26222402157E+03  0.00000000000E+00 0.  1.
         11    1    5    5    0    0  0.48565315671E+03  0.20729628521E+03 -0.22249729394E+03  0.57300591995E+03  0.00000000000E+00 0.  1.
        -11    1    5    5    0    0  0.19456811710E+03  0.70919105266E+02 -0.29605673067E+02  0.20919552472E+03  0.00000000000E+00 0. -1.
          1    1    6    6  503    0  0.41749035103E+01  0.11414868810E+01  0.52430848139E+01  0.67987314983E+01  0.00000000000E+00 0. -1.
         -1    1    6    6    0  503 -0.22945870631E+03  0.42108742426E+03 -0.68839519205E+02  0.48446341056E+03  0.00000000000E+00 0.  1.
<mgrwt>
<rscale>  0 0.21844237E+04</rscale>
<asrwt>0</asrwt>
<pdfrwt beam="1">  1        2 0.28401196E+00 0.21844237E+04</pdfrwt>
<pdfrwt beam="2">  1       -1 0.99414658E-01 0.21844237E+04</pdfrwt>
<totfact> 0.81881244E+00</totfact>
</mgrwt>
</event>
<event>
12    6  0.1586493E-007  0.2053158E+04  0.7818608E-02  0.8582163E-01
         -1   -1    0    0    0  501 -0.00000000000E+00  0.00000000000E+00  0.32110266685E+03  0.32110266685E+03  0.00000000000E+00 0.  1.
          2   -1    0    0  501    0  0.00000000000E+00 -0.00000000000E+00 -0.32820172410E+04  0.32820172410E+04  0.00000000000E+00 0. -1.
         24    2    1    2    0    0 -0.26164971469E+02 -0.66424183480E+02  0.24671079099E+03  0.26883223279E+03  0.79421515419E+02 0.  0.
        254    2    1    2    0    0  0.26164971469E+02  0.66424183480E+02 -0.32076253652E+04  0.33342876751E+04  0.90747839593E+03 0.  0.
         23    2    4    4    0    0 -0.40001935468E+03  0.12437807638E+03 -0.10795809667E+04  0.11615068715E+04  0.90098605769E+02 0.  0.
         23    2    4    4    0    0  0.42618432615E+03 -0.57953892898E+02 -0.21280443985E+04  0.21727808036E+04  0.86091377286E+02 0.  0.
          2    1    3    3  502    0 -0.12029511574E+02 -0.11300284628E+02  0.90990826773E+00  0.16529776600E+02  0.00000000000E+00 0. -1.
         -1    1    3    3    0  502 -0.14135459895E+02 -0.55123898851E+02  0.24580088272E+03  0.25230245619E+03  0.00000000000E+00 0.  1.
         11    1    5    5    0    0 -0.30566359163E+03  0.13362644075E+03 -0.85017735793E+03  0.91328407238E+03  0.00000000000E+00 0.  1.
        -11    1    5    5    0    0 -0.94355763052E+02 -0.92483643694E+01 -0.22940360877E+03  0.24822279908E+03  0.00000000000E+00 0. -1.
          2    1    6    6  503    0  0.25110334916E+02 -0.84760737066E+01 -0.27001588698E+03  0.27131338332E+03  0.00000000000E+00 0. -1.
         -2    1    6    6    0  503  0.40107399123E+03 -0.49477819191E+02 -0.18580285115E+04  0.19014674203E+04  0.00000000000E+00 0.  1.
<mgrwt>
<rscale>  0 0.20531580E+04</rscale>
<asrwt>0</asrwt>
<pdfrwt beam="1">  1        2 0.50492572E+00 0.20531580E+04</pdfrwt>
<pdfrwt beam="2">  1       -1 0.49400412E-01 0.20531580E+04</pdfrwt>
<totfact> 0.49689246E+00</totfact>
</mgrwt>
</event>
<event>
12    6  0.1586493E-007  0.1156335E+04  0.7818608E-02  0.9151959E-01
          2   -1    0    0  501    0  0.00000000000E+00  0.00000000000E+00  0.14895245621E+04  0.14895245621E+04  0.00000000000E+00 0. -1.
         -1   -1    0    0    0  501 -0.00000000000E+00 -0.00000000000E+00 -0.22441911908E+03  0.22441911908E+03  0.00000000000E+00 0.  1.
         24    2    1    2    0    0  0.74242693058E+02  0.20162412860E+03  0.28865425613E+03  0.36926771878E+03  0.82904172671E+02 0.  0.
        254    2    1    2    0    0 -0.74242693058E+02 -0.20162412860E+03  0.97645118693E+03  0.13446759624E+04  0.89918421737E+03 0.  0.
         23    2    4    4    0    0 -0.23562690929E+03 -0.37869110727E+03  0.14971762534E+03  0.47875386889E+03  0.88673020354E+02 0.  0.
         23    2    4    4    0    0  0.16138421623E+03  0.17706697867E+03  0.82673356159E+03  0.86592209353E+03  0.94525710930E+02 0.  0.
          2    1    3    3  502    0  0.20133242464E+02  0.91205103674E+02  0.64197238518E+02  0.11333580115E+03  0.00000000000E+00 0. -1.
         -1    1    3    3    0  502  0.54109450594E+02  0.11041902493E+03  0.22445701761E+03  0.25593191764E+03  0.00000000000E+00 0.  1.
         11    1    5    5    0    0 -0.48783326715E+02 -0.15037077104E+03  0.33092974872E+02  0.16151262097E+03  0.00000000000E+00 0. -1.
        -11    1    5    5    0    0 -0.18684358258E+03 -0.22832033623E+03  0.11662465047E+03  0.31724124792E+03  0.00000000000E+00 0.  1.
          3    1    6    6  503    0  0.67706181995E+02  0.11637033129E+03  0.57498385046E+03  0.59053586629E+03  0.00000000000E+00 0. -1.
         -3    1    6    6    0  503  0.93678034238E+02  0.60696647379E+02  0.25174971113E+03  0.27538622724E+03  0.00000000000E+00 0.  1.
<mgrwt>
<rscale>  0 0.11563352E+04</rscale>
<asrwt>0</asrwt>
<pdfrwt beam="1">  1        2 0.22915762E+00 0.11563352E+04</pdfrwt>
<pdfrwt beam="2">  1       -1 0.34526019E-01 0.11563352E+04</pdfrwt>
<totfact> 0.11529686E+02</totfact>
</mgrwt>
</event>
<event>
12    6  0.1586493E-007  0.1407453E+04  0.7818608E-02  0.8948442E-01
          2   -1    0    0  501    0  0.00000000000E+00  0.00000000000E+00  0.58695950552E+03  0.58695950552E+03  0.00000000000E+00 0. -1.
         -1   -1    0    0    0  501 -0.00000000000E+00 -0.00000000000E+00 -0.84372209943E+03  0.84372209943E+03  0.00000000000E+00 0.  1.
         24    2    1    2    0    0  0.17465500278E+03 -0.68375737361E+02 -0.43596888432E+03  0.48044757903E+03  0.74708745456E+02 0.  0.
        254    2    1    2    0    0 -0.17465500278E+03  0.68375737361E+02  0.17920629041E+03  0.95023402592E+03  0.91413904743E+03 0.  0.
         23    2    4    4    0    0  0.53364126170E+02  0.41877306618E+03 -0.94661418887E+02  0.44226810072E+03  0.91769699592E+02 0.  0.
         23    2    4    4    0    0 -0.22801912895E+03 -0.35039732882E+03  0.27386770929E+03  0.50796592520E+03  0.90856192731E+02 0.  0.
          2    1    3    3  502    0  0.20964817271E+02 -0.43289133465E+01 -0.11089939709E+02  0.24109123102E+02  0.00000000000E+00 0. -1.
         -1    1    3    3    0  502  0.15369018551E+03 -0.64046824014E+02 -0.42487894461E+03  0.45633845593E+03  0.00000000000E+00 0.  1.
         11    1    5    5    0    0  0.15387501053E+02  0.21693392068E+03 -0.33527531447E+01  0.21750480934E+03  0.00000000000E+00 0.  1.
        -11    1    5    5    0    0  0.37976625117E+02  0.20183914550E+03 -0.91308665742E+02  0.22476329138E+03  0.00000000000E+00 0. -1.
          1    1    6    6  503    0 -0.12028564207E+03 -0.20532737642E+03  0.20665182326E+03  0.31517129192E+03  0.00000000000E+00 0. -1.
         -1    1    6    6    0  503 -0.10773348688E+03 -0.14506995240E+03  0.67215886033E+02  0.19279463328E+03  0.00000000000E+00 0.  1.
<mgrwt>
<rscale>  0 0.14074526E+04</rscale>
<asrwt>0</asrwt>
<pdfrwt beam="1">  1        2 0.90301463E-01 0.14074526E+04</pdfrwt>
<pdfrwt beam="2">  1       -1 0.12980340E+00 0.14074526E+04</pdfrwt>
<totfact> 0.28833738E+01</totfact>
</mgrwt>
</event>
<event>
12    6  0.1586493E-007  0.1928913E+04  0.7818608E-02  0.8640597E-01
         -1   -1    0    0    0  501 -0.00000000000E+00  0.00000000000E+00  0.89268713145E+03  0.89268713145E+03  0.00000000000E+00 0.  1.
          2   -1    0    0  501    0  0.00000000000E+00 -0.00000000000E+00 -0.10419956564E+04  0.10419956564E+04  0.00000000000E+00 0. -1.
         24    2    1    2    0    0  0.28249986222E+03  0.31097658655E+03 -0.68343901365E+03  0.80810259824E+03  0.97099507500E+02 0.  0.
        254    2    1    2    0    0 -0.28249986222E+03 -0.31097658655E+03  0.53413048871E+03  0.11265801896E+04  0.89854044712E+03 0.  0.
         23    2    4    4    0    0 -0.12154474258E+03 -0.20754798481E+03  0.76765047067E+03  0.80973278530E+03  0.92361507230E+02 0.  0.
         23    2    4    4    0    0 -0.16095511964E+03 -0.10342860174E+03 -0.23351998196E+03  0.31684740430E+03  0.96211586842E+02 0.  0.
          4    1    3    3  502    0  0.74971379555E+02  0.62188551143E+02 -0.23920853204E+03  0.25828055568E+03  0.00000000000E+00 0. -1.
         -3    1    3    3    0  502  0.20752848267E+03  0.24878803541E+03 -0.44423048162E+03  0.54982204255E+03  0.00000000000E+00 0.  1.
         11    1    5    5    0    0  0.63154389412E+01 -0.84521704011E+01  0.59200072975E+01  0.12098365175E+02  0.00000000000E+00 0. -1.
        -11    1    5    5    0    0 -0.12786018152E+03 -0.19909581441E+03  0.76173046337E+03  0.79763442012E+03  0.00000000000E+00 0.  1.
          2    1    6    6  503    0 -0.98960123312E+02 -0.27845609176E+02 -0.63811097080E+02  0.12099727297E+03  0.00000000000E+00 0. -1.
         -2    1    6    6    0  503 -0.61994996328E+02 -0.75582992559E+02 -0.16970888488E+03  0.19585013133E+03  0.00000000000E+00 0.  1.
<mgrwt>
<rscale>  0 0.19289128E+04</rscale>
<asrwt>0</asrwt>
<pdfrwt beam="1">  1        2 0.16030702E+00 0.19289128E+04</pdfrwt>
<pdfrwt beam="2">  1       -1 0.13733648E+00 0.19289128E+04</pdfrwt>
<totfact> 0.11124543E+01</totfact>
</mgrwt>
</event>
<event>
12    6  0.1586493E-007  0.1211222E+04  0.7818608E-02  0.9103090E-01
         -1   -1    0    0    0  501 -0.00000000000E+00  0.00000000000E+00  0.17844190265E+03  0.17844190265E+03  0.00000000000E+00 0.  1.
          2   -1    0    0  501    0  0.00000000000E+00 -0.00000000000E+00 -0.20553739989E+04  0.20553739989E+04  0.00000000000E+00 0. -1.
         24    2    1    2    0    0  0.10948592751E+03 -0.68165310416E+02 -0.86727233184E+03  0.88040631578E+03  0.79500348606E+02 0.  0.
        254    2    1    2    0    0 -0.10948592751E+03  0.68165310416E+02 -0.10096597644E+04  0.13534095858E+04  0.89200391765E+03 0.  0.
         23    2    4    4    0    0 -0.44434855631E+03 -0.11564671449E+03 -0.74558795997E+03  0.88019385865E+03  0.89554568204E+02 0.  0.
         23    2    4    4    0    0  0.33486262880E+03  0.18381202490E+03 -0.26407180444E+03  0.47321572711E+03  0.90991020542E+02 0.  0.
          2    1    3    3  502    0  0.93789104224E+02 -0.83274607470E+02 -0.64593757728E+03  0.65800183135E+03  0.00000000000E+00 0. -1.
         -1    1    3    3    0  502  0.15696823282E+02  0.15109297054E+02 -0.22133475455E+03  0.22240448442E+03  0.00000000000E+00 0.  1.
         11    1    5    5    0    0 -0.17310260927E+03 -0.60196719775E+02 -0.22164257075E+03  0.28759970024E+03  0.00000000000E+00 0. -1.
        -11    1    5    5    0    0 -0.27124594703E+03 -0.55449994710E+02 -0.52394538922E+03  0.59259415841E+03  0.00000000000E+00 0.  1.
          3    1    6    6  503    0  0.54715892349E+02  0.25897950445E+01 -0.63731756744E+02  0.84037329393E+02  0.00000000000E+00 0. -1.
         -3    1    6    6    0  503  0.28014673646E+03  0.18122222986E+03 -0.20034004769E+03  0.38917839772E+03  0.00000000000E+00 0.  1.
<mgrwt>
<rscale>  0 0.12112223E+04</rscale>
<asrwt>0</asrwt>
<pdfrwt beam="1">  1        2 0.31621137E+00 0.12112223E+04</pdfrwt>
<pdfrwt beam="2">  1       -1 0.27452602E-01 0.12112223E+04</pdfrwt>
<totfact> 0.83428877E+01</totfact>
</mgrwt>
</event>
<event>
12    6  0.1586493E-007  0.1547548E+04  0.7818608E-02  0.8853435E-01
          2   -1    0    0  501    0  0.00000000000E+00  0.00000000000E+00  0.10821819584E+04  0.10821819584E+04  0.00000000000E+00 0. -1.
         -1   -1    0    0    0  501 -0.00000000000E+00 -0.00000000000E+00 -0.55325838788E+03  0.55325838788E+03  0.00000000000E+00 0.  1.
         24    2    1    2    0    0  0.38123110168E+03 -0.25125422121E+01  0.54225082443E+03  0.66774684451E+03  0.80662419995E+02 0.  0.
        254    2    1    2    0    0 -0.38123110168E+03  0.25125422121E+01 -0.13327253878E+02  0.96769350180E+03  0.88933100248E+03 0.  0.
         23    2    4    4    0    0 -0.28701054793E+02  0.15417947959E+03  0.37355486993E+03  0.41528157307E+03  0.91216673950E+02 0.  0.
         23    2    4    4    0    0 -0.35253004689E+03 -0.15166693738E+03 -0.38688212381E+03  0.55241192873E+03  0.90558640796E+02 0.  0.
          4    1    3    3  502    0  0.23323172583E+03  0.47687360864E+01  0.39565681856E+03  0.45930828084E+03  0.00000000000E+00 0. -1.
         -3    1    3    3    0  502  0.14799937586E+03 -0.72812782985E+01  0.14659400587E+03  0.20843856367E+03  0.00000000000E+00 0.  1.
         11    1    5    5    0    0 -0.56665098694E+02  0.12585388208E+03  0.25127761610E+03  0.28668898374E+03  0.00000000000E+00 0. -1.
        -11    1    5    5    0    0  0.27964043901E+02  0.28325597514E+02  0.12227725383E+03  0.12859258933E+03  0.00000000000E+00 0.  1.
          3    1    6    6  503    0 -0.28810046679E+03 -0.84011826415E+02 -0.30946847033E+03  0.43108073498E+03  0.00000000000E+00 0. -1.
         -3    1    6    6    0  503 -0.64429580103E+02 -0.67655110962E+02 -0.77413653480E+02  0.12133119375E+03  0.00000000000E+00 0.  1.
<mgrwt>
<rscale>  0 0.15475481E+04</rscale>
<asrwt>0</asrwt>
<pdfrwt beam="1">  1        2 0.16648953E+00 0.15475481E+04</pdfrwt>
<pdfrwt beam="2">  1       -1 0.85116675E-01 0.15475481E+04</pdfrwt>
<totfact> 0.33505047E+01</totfact>
</mgrwt>
</event>
<event>
12    6  0.1586493E-007  0.3022162E+04  0.7818608E-02  0.8237431E-01
         -1   -1    0    0    0  501 -0.00000000000E+00  0.00000000000E+00  0.21340826647E+04  0.21340826647E+04  0.00000000000E+00 0.  1.
          2   -1    0    0  501    0  0.00000000000E+00 -0.00000000000E+00 -0.10699519545E+04  0.10699519545E+04  0.00000000000E+00 0. -1.
         24    2    1    2    0    0  0.15666049860E+03 -0.13508843814E+04  0.68924988126E+03  0.15285820447E+04  0.10984782568E+03 0.  0.
        254    2    1    2    0    0 -0.15666049860E+03  0.13508843814E+04  0.37488082898E+03  0.16754525745E+04  0.90397708483E+03 0.  0.
         23    2    4    4    0    0 -0.26366882042E+03  0.37407314148E+02 -0.54623691787E+02  0.28647751660E+03  0.90360753633E+02 0.  0.
         23    2    4    4    0    0  0.10700832182E+03  0.13134770672E+04  0.42950452077E+03  0.13889750579E+04  0.90026613449E+02 0.  0.
          2    1    3    3  502    0  0.10799677627E+03 -0.92411278553E+03  0.52795833211E+03  0.10697606015E+04  0.00000000000E+00 0. -1.
         -1    1    3    3    0  502  0.48663722332E+02 -0.42677159583E+03  0.16129154915E+03  0.45882144317E+03  0.00000000000E+00 0.  1.
         11    1    5    5    0    0 -0.23944780177E+03  0.67099010783E+01 -0.60171665821E+02  0.24698360656E+03  0.00000000000E+00 0.  1.
        -11    1    5    5    0    0 -0.24221018654E+02  0.30697413070E+02  0.55479740339E+01  0.39493910033E+02  0.00000000000E+00 0. -1.
          1    1    6    6  503    0  0.34921339196E+02  0.21438265093E+03  0.41227014269E+02  0.22108615437E+03  0.00000000000E+00 0. -1.
         -1    1    6    6    0  503  0.72086982626E+02  0.10990944163E+04  0.38827750650E+03  0.11678889035E+04  0.00000000000E+00 0.  1.
<mgrwt>
<rscale>  0 0.30221621E+04</rscale>
<asrwt>0</asrwt>
<pdfrwt beam="1">  1        2 0.16460799E+00 0.30221621E+04</pdfrwt>
<pdfrwt beam="2">  1       -1 0.32832041E+00 0.30221621E+04</pdfrwt>
<totfact> 0.47804415E-01</totfact>
</mgrwt>
</event>
<event>
12    6  0.1586493E-007  0.1235202E+04  0.7818608E-02  0.9082590E-01
         -1   -1    0    0    0  501 -0.00000000000E+00  0.00000000000E+00  0.21246332946E+03  0.21246332946E+03  0.00000000000E+00 0.  1.
          2   -1    0    0  501    0  0.00000000000E+00 -0.00000000000E+00 -0.17952787632E+04  0.17952787632E+04  0.00000000000E+00 0. -1.
         24    2    1    2    0    0 -0.21581282907E+03 -0.15039662533E+03 -0.22927714534E+03  0.35795360855E+03  0.79802596443E+02 0.  0.
        254    2    1    2    0    0  0.21581282907E+03  0.15039662533E+03 -0.13535382884E+04  0.16497884841E+04  0.90583763558E+03 0.  0.
         23    2    4    4    0    0 -0.29807433956E+03 -0.14317554621E+03 -0.44379153542E+03  0.56094303184E+03  0.91425429341E+02 0.  0.
         23    2    4    4    0    0  0.51388716863E+03  0.29357217153E+03 -0.90974675299E+03  0.10888454523E+04  0.87639160124E+02 0.  0.
          2    1    3    3  502    0  0.76239062683E-01 -0.20395162159E+02 -0.59932368769E+01  0.21257641924E+02  0.00000000000E+00 0. -1.
         -1    1    3    3    0  502 -0.21588906813E+03 -0.13000146317E+03 -0.22328390846E+03  0.33669596663E+03  0.00000000000E+00 0.  1.
         11    1    5    5    0    0 -0.18382721031E+03 -0.45747065024E+02 -0.28674415869E+03  0.34366764431E+03  0.00000000000E+00 0. -1.
        -11    1    5    5    0    0 -0.11424712925E+03 -0.97428481183E+02 -0.15704737673E+03  0.21727538753E+03  0.00000000000E+00 0.  1.
          3    1    6    6  503    0  0.10472274710E+02  0.25542933958E+02 -0.34573688844E+02  0.44243078250E+02  0.00000000000E+00 0. -1.
         -3    1    6    6    0  503  0.50341489392E+03  0.26802923758E+03 -0.87517306415E+03  0.10446023740E+04  0.00000000000E+00 0.  1.
<mgrwt>
<rscale>  0 0.12352019E+04</rscale>
<asrwt>0</asrwt>
<pdfrwt beam="1">  1        2 0.27619671E+00 0.12352019E+04</pdfrwt>
<pdfrwt beam="2">  1       -1 0.32686668E-01 0.12352019E+04</pdfrwt>
<totfact> 0.85382437E+01</totfact>
</mgrwt>
</event>
<event>
12    6  0.1586493E-007  0.1363317E+04  0.7818608E-02  0.8980808E-01
          2   -1    0    0  501    0  0.00000000000E+00  0.00000000000E+00  0.13671251374E+04  0.13671251374E+04  0.00000000000E+00 0. -1.
         -1   -1    0    0    0  501 -0.00000000000E+00 -0.00000000000E+00 -0.33987981918E+03  0.33987981918E+03  0.00000000000E+00 0.  1.
         24    2    1    2    0    0  0.21459694616E+03 -0.18802445225E+03 -0.16736457153E+02  0.29669297062E+03  0.79633949265E+02 0.  0.
        254    2    1    2    0    0 -0.21459694616E+03  0.18802445225E+03  0.10439817753E+04  0.14103119859E+04  0.90425489021E+03 0.  0.
         23    2    4    4    0    0  0.18953275506E+03 -0.77945830174E+02  0.85362094470E+03  0.88246090025E+03  0.89834879394E+02 0.  0.
         23    2    4    4    0    0 -0.40412970122E+03  0.26597028242E+03  0.19036083063E+03  0.52785108567E+03  0.91260704963E+02 0.  0.
          4    1    3    3  502    0 -0.52255203844E+01 -0.16752548436E+02 -0.64173634853E+00  0.17560346464E+02  0.00000000000E+00 0. -1.
         -3    1    3    3    0  502  0.21982246654E+03 -0.17127190381E+03 -0.16094720804E+02  0.27913262416E+03  0.00000000000E+00 0.  1.
         11    1    5    5    0    0  0.13031014870E+03 -0.60884856498E+01  0.48001424193E+03  0.49742484555E+03  0.00000000000E+00 0.  1.
        -11    1    5    5    0    0  0.59222606362E+02 -0.71857344524E+02  0.37360670277E+03  0.38503605470E+03  0.00000000000E+00 0. -1.
          2    1    6    6  503    0 -0.37849847205E+03  0.22957943323E+03  0.14898882265E+03  0.46708187589E+03  0.00000000000E+00 0. -1.
         -2    1    6    6    0  503 -0.25631229162E+02  0.36390849193E+02  0.41372007981E+02  0.60769209784E+02  0.00000000000E+00 0.  1.
<mgrwt>
<rscale>  0 0.13633169E+04</rscale>
<asrwt>0</asrwt>
<pdfrwt beam="1">  1        2 0.21032694E+00 0.13633169E+04</pdfrwt>
<pdfrwt beam="2">  1       -1 0.52289204E-01 0.13633169E+04</pdfrwt>
<totfact> 0.61920085E+01</totfact>
</mgrwt>
</event>
<event>
12    6  0.1586493E-007  0.1984119E+04  0.7818608E-02  0.8614082E-01
         -1   -1    0    0    0  501 -0.00000000000E+00  0.00000000000E+00  0.29312035264E+03  0.29312035264E+03  0.00000000000E+00 0.  1.
          2   -1    0    0  501    0  0.00000000000E+00 -0.00000000000E+00 -0.33576034885E+04  0.33576034885E+04  0.00000000000E+00 0. -1.
         24    2    1    2    0    0  0.12107810469E+03 -0.43781984171E+03 -0.74790562228E+02  0.46733205135E+03  0.80370994711E+02 0.  0.
        254    2    1    2    0    0 -0.12107810469E+03  0.43781984171E+03 -0.29896925736E+04  0.31833917898E+04  0.99467355510E+03 0.  0.
         23    2    4    4    0    0 -0.18682965393E+03 -0.13675052654E+03 -0.16281153786E+03  0.29646387597E+03  0.88188473152E+02 0.  0.
         23    2    4    4    0    0  0.65751549241E+02  0.57457036825E+03 -0.28268810358E+04  0.28869279138E+04  0.92962438028E+02 0.  0.
          2    1    3    3  502    0  0.84006313574E+02 -0.27397592738E+03 -0.83578303709E+01  0.28668750031E+03  0.00000000000E+00 0. -1.
         -1    1    3    3    0  502  0.37071791115E+02 -0.16384391433E+03 -0.66432731857E+02  0.18064455104E+03  0.00000000000E+00 0.  1.
         11    1    5    5    0    0 -0.19642010692E+03 -0.13140956202E+03 -0.15904203353E+03  0.28485733240E+03  0.00000000000E+00 0. -1.
        -11    1    5    5    0    0  0.95904529939E+01 -0.53409645189E+01 -0.37695043299E+01  0.11606543564E+02  0.00000000000E+00 0.  1.
          4    1    6    6  503    0 -0.19422787780E+02  0.19808807610E+03 -0.10301487840E+04  0.10492009568E+04  0.00000000000E+00 0. -1.
         -4    1    6    6    0  503  0.85174337021E+02  0.37648229215E+03 -0.17967322518E+04  0.18377269570E+04  0.00000000000E+00 0.  1.
<mgrwt>
<rscale>  0 0.19841189E+04</rscale>
<asrwt>0</asrwt>
<pdfrwt beam="1">  1        2 0.51655441E+00 0.19841189E+04</pdfrwt>
<pdfrwt beam="2">  1       -1 0.45095436E-01 0.19841189E+04</pdfrwt>
<totfact> 0.52872600E+00</totfact>
</mgrwt>
</event>
<event>
12    6  0.1586493E-007  0.1243100E+04  0.7818608E-02  0.9075946E-01
         -1   -1    0    0    0  501 -0.00000000000E+00  0.00000000000E+00  0.11917577749E+03  0.11917577749E+03  0.00000000000E+00 0.  1.
          2   -1    0    0  501    0  0.00000000000E+00 -0.00000000000E+00 -0.32416365011E+04  0.32416365011E+04  0.00000000000E+00 0. -1.
         24    2    1    2    0    0  0.11214852912E+03 -0.40142137547E+02 -0.14969551537E+04  0.15036819817E+04  0.77434398253E+02 0.  0.
        254    2    1    2    0    0 -0.11214852912E+03  0.40142137547E+02 -0.16255055699E+04  0.18571302969E+04  0.89021115365E+03 0.  0.
         23    2    4    4    0    0 -0.19987918851E+03 -0.38818474511E+03 -0.90355692476E+03  0.10076275113E+04  0.90879034239E+02 0.  0.
         23    2    4    4    0    0  0.87730659394E+02  0.42832688265E+03 -0.72194864510E+03  0.84950278559E+03  0.96356367499E+02 0.  0.
          2    1    3    3  502    0  0.11558219523E+03 -0.49643809000E+02 -0.14587455882E+04  0.14641592956E+04  0.00000000000E+00 0. -1.
         -1    1    3    3    0  502 -0.34336661134E+01  0.95016714535E+01 -0.38209565459E+02  0.39522686092E+02  0.00000000000E+00 0.  1.
         11    1    5    5    0    0 -0.19873541310E+03 -0.31291788094E+03 -0.74834562984E+03  0.83512546742E+03  0.00000000000E+00 0. -1.
        -11    1    5    5    0    0 -0.11437754090E+01 -0.75266864164E+02 -0.15521129493E+03  0.17250204386E+03  0.00000000000E+00 0.  1.
          1    1    6    6  503    0  0.78701255358E+02  0.27562030516E+03 -0.39002402740E+03  0.48402394792E+03  0.00000000000E+00 0. -1.
         -1    1    6    6    0  503  0.90294040355E+01  0.15270657749E+03 -0.33192461770E+03  0.36547883767E+03  0.00000000000E+00 0.  1.
<mgrwt>
<rscale>  0 0.12431002E+04</rscale>
<asrwt>0</asrwt>
<pdfrwt beam="1">  1        2 0.49871327E+00 0.12431002E+04</pdfrwt>
<pdfrwt beam="2">  1       -1 0.18334736E-01 0.12431002E+04</pdfrwt>
<totfact> 0.32848271E+01</totfact>
</mgrwt>
</event>
<event>
12    6  0.1586493E-007  0.1687147E+04  0.7818608E-02  0.8768729E-01
         -1   -1    0    0    0  501 -0.00000000000E+00  0.00000000000E+00  0.18643129690E+04  0.18643129690E+04  0.00000000000E+00 0.  1.
          2   -1    0    0  501    0  0.00000000000E+00 -0.00000000000E+00 -0.38170417616E+03  0.38170417616E+03  0.00000000000E+00 0. -1.
         24    2    1    2    0    0  0.45506222991E+03 -0.30518952697E+03  0.85489285433E+03  0.10187889819E+04  0.82866862243E+02 0.  0.
        254    2    1    2    0    0 -0.45506222991E+03  0.30518952697E+03  0.62771593852E+03  0.12272281632E+04  0.90102130092E+03 0.  0.
         23    2    4    4    0    0 -0.22858394177E+03  0.16070528489E+03  0.82816592191E+03  0.87897486832E+03  0.93065664396E+02 0.  0.
         23    2    4    4    0    0 -0.22647828814E+03  0.14448424209E+03 -0.20044998339E+03  0.34825329493E+03  0.94509525329E+02 0.  0.
          2    1    3    3  502    0  0.31405345269E+03 -0.24550773149E+03  0.57344813365E+03  0.69838841582E+03  0.00000000000E+00 0. -1.
         -1    1    3    3    0  502  0.14100877722E+03 -0.59681795483E+02  0.28144472068E+03  0.32040056611E+03  0.00000000000E+00 0.  1.
         11    1    5    5    0    0 -0.20903981757E+03  0.14234345883E+03  0.62784209550E+03  0.67686409455E+03  0.00000000000E+00 0. -1.
        -11    1    5    5    0    0 -0.19544124207E+02  0.18361826055E+02  0.20032382641E+03  0.20211077377E+03  0.00000000000E+00 0.  1.
          2    1    6    6  503    0 -0.23189621642E+03  0.15011128797E+03 -0.19861000146E+03  0.34022813911E+03  0.00000000000E+00 0. -1.
         -2    1    6    6    0  503  0.54179282851E+01 -0.56270458841E+01 -0.18399819311E+01  0.80251558110E+01  0.00000000000E+00 0.  1.
<mgrwt>
<rscale>  0 0.16871468E+04</rscale>
<asrwt>0</asrwt>
<pdfrwt beam="1">  1        2 0.58723721E-01 0.16871468E+04</pdfrwt>
<pdfrwt beam="2">  1       -1 0.28681737E+00 0.16871468E+04</pdfrwt>
<totfact> 0.36762424E+00</totfact>
</mgrwt>
</event>
<event>
12    6  0.2008155E-007  0.1807122E+04  0.7818608E-02  0.8702521E-01
          2   -1    0    0  501    0  0.00000000000E+00  0.00000000000E+00  0.84970053181E+03  0.84970053181E+03  0.00000000000E+00 0. -1.
         -1   -1    0    0    0  501 -0.00000000000E+00 -0.00000000000E+00 -0.96083537539E+03  0.96083537539E+03  0.00000000000E+00 0.  1.
         24    2    1    2    0    0 -0.14235206957E+03 -0.36394755921E+03  0.51025184953E+03  0.64757320057E+03  0.79196985901E+02 0.  0.
        254    2    1    2    0    0  0.14235206957E+03  0.36394755921E+03 -0.62138669312E+03  0.11629627066E+04  0.90201934407E+03 0.  0.
         23    2    4    4    0    0  0.33949194047E+03  0.47900929239E+03 -0.68690018701E+03  0.90813028040E+03  0.90355184808E+02 0.  0.
         23    2    4    4    0    0 -0.19713987090E+03 -0.11506173319E+03  0.65513493895E+02  0.25483242623E+03  0.92434930807E+02 0.  0.
          4    1    3    3  502    0 -0.11559647307E+03 -0.30368905367E+03  0.36893361352E+03  0.49163156641E+03  0.00000000000E+00 0. -1.
         -3    1    3    3    0  502 -0.26755596496E+02 -0.60258505539E+02  0.14131823601E+03  0.15594163416E+03  0.00000000000E+00 0.  1.
         11    1    5    5    0    0  0.31052042594E+03  0.38500837758E+03 -0.59214429277E+03  0.77154990065E+03  0.00000000000E+00 0. -1.
        -11    1    5    5    0    0  0.28971514534E+02  0.94000914809E+02 -0.94755894244E+02  0.13658037975E+03  0.00000000000E+00 0.  1.
          4    1    6    6  503    0 -0.20709138378E+03 -0.10553565233E+03  0.63119620340E+02  0.24084995665E+03  0.00000000000E+00 0. -1.
         -4    1    6    6    0  503  0.99515128738E+01 -0.95260808554E+01  0.23938735553E+01  0.13982469579E+02  0.00000000000E+00 0.  1.
<mgrwt>
<rscale>  0 0.18071218E+04</rscale>
<asrwt>0</asrwt>
<pdfrwt beam="1">  1        2 0.13072316E+00 0.18071218E+04</pdfrwt>
<pdfrwt beam="2">  1       -1 0.14782083E+00 0.18071218E+04</pdfrwt>
<totfact> 0.12410853E+01</totfact>
</mgrwt>
</event>
<event>
12    6  0.1586493E-007  0.2721468E+04  0.7818608E-02  0.8328073E-01
          2   -1    0    0  501    0  0.00000000000E+00  0.00000000000E+00  0.29523255629E+04  0.29523255629E+04  0.00000000000E+00 0. -1.
         -1   -1    0    0    0  501 -0.00000000000E+00 -0.00000000000E+00 -0.62716559523E+03  0.62716559523E+03  0.00000000000E+00 0.  1.
         24    2    1    2    0    0 -0.63453466590E+03  0.34933604149E+03 -0.24277360457E+03  0.76813275539E+03  0.80118629026E+02 0.  0.
        254    2    1    2    0    0  0.63453466590E+03 -0.34933604149E+03  0.25679335723E+04  0.28113584028E+04  0.88587997218E+03 0.  0.
         23    2    4    4    0    0  0.34098263152E+03 -0.60415457672E+03  0.12278230552E+04  0.14131401483E+04  0.90242541713E+02 0.  0.
         23    2    4    4    0    0  0.29355203437E+03  0.25481853523E+03  0.13401105171E+04  0.13982182545E+04  0.89514280025E+02 0.  0.
          4    1    3    3  502    0 -0.27274305258E+03  0.19526204836E+03 -0.10568900988E+03  0.35169049898E+03  0.00000000000E+00 0. -1.
         -3    1    3    3    0  502 -0.36179161332E+03  0.15407399313E+03 -0.13708459469E+03  0.41644225641E+03  0.00000000000E+00 0.  1.
         11    1    5    5    0    0  0.82413873141E+02 -0.21513221830E+03  0.45814108333E+03  0.51280324694E+03  0.00000000000E+00 0. -1.
        -11    1    5    5    0    0  0.25856875838E+03 -0.38902235842E+03  0.76968197188E+03  0.90033690138E+03  0.00000000000E+00 0.  1.
          1    1    6    6  503    0  0.14414558299E+03  0.10164099044E+03  0.46497651722E+03  0.49730473716E+03  0.00000000000E+00 0. -1.
         -1    1    6    6    0  503  0.14940645138E+03  0.15317754479E+03  0.87513399985E+03  0.90091351729E+03  0.00000000000E+00 0.  1.
<mgrwt>
<rscale>  0 0.27214680E+04</rscale>
<asrwt>0</asrwt>
<pdfrwt beam="1">  1        2 0.45420392E+00 0.27214680E+04</pdfrwt>
<pdfrwt beam="2">  1       -1 0.96487016E-01 0.27214680E+04</pdfrwt>
<totfact> 0.19186517E+00</totfact>
</mgrwt>
</event>
<event>
12    6  0.1586493E-007  0.1678903E+04  0.7818608E-02  0.8773489E-01
          2   -1    0    0  501    0  0.00000000000E+00  0.00000000000E+00  0.21920646909E+04  0.21920646909E+04  0.00000000000E+00 0. -1.
         -1   -1    0    0    0  501 -0.00000000000E+00 -0.00000000000E+00 -0.32146805506E+03  0.32146805506E+03  0.00000000000E+00 0.  1.
         24    2    1    2    0    0 -0.16992527700E+03  0.57876231629E+02  0.15029407211E+04  0.15157161603E+04  0.79626687431E+02 0.  0.
        254    2    1    2    0    0  0.16992527700E+03 -0.57876231629E+02  0.36765591475E+03  0.99781658572E+03  0.91007846318E+03 0.  0.
         23    2    4    4    0    0  0.96618796069E+02 -0.32734955420E+03 -0.16449100940E+03  0.38961154459E+03  0.90812670439E+02 0.  0.
         23    2    4    4    0    0  0.73306480926E+02  0.26947332258E+03  0.53214692415E+03  0.60820504114E+03  0.93505676076E+02 0.  0.
          2    1    3    3  502    0 -0.66996165407E+01  0.17963240637E+02  0.35772951176E+03  0.35824288752E+03  0.00000000000E+00 0. -1.
         -1    1    3    3    0  502 -0.16322566046E+03  0.39912990991E+02  0.11452112094E+04  0.11574732727E+04  0.00000000000E+00 0.  1.
         11    1    5    5    0    0  0.11172200480E+03 -0.30638385822E+03 -0.14338223995E+03  0.35624618127E+03  0.00000000000E+00 0. -1.
        -11    1    5    5    0    0 -0.15103208728E+02 -0.20965695979E+02 -0.21108769446E+02  0.33365363317E+02  0.00000000000E+00 0.  1.
          1    1    6    6  503    0  0.17985270482E+02  0.14795493738E+03  0.19393026553E+03  0.24458757397E+03  0.00000000000E+00 0. -1.
         -1    1    6    6    0  503  0.55321210444E+02  0.12151838519E+03  0.33821665861E+03  0.36361746717E+03  0.00000000000E+00 0.  1.
<mgrwt>
<rscale>  0 0.16789029E+04</rscale>
<asrwt>0</asrwt>
<pdfrwt beam="1">  1        2 0.33724071E+00 0.16789029E+04</pdfrwt>
<pdfrwt beam="2">  1       -1 0.49456625E-01 0.16789029E+04</pdfrwt>
<totfact> 0.23221671E+01</totfact>
</mgrwt>
</event>
<event>
12    6  0.1586493E-007  0.1163892E+04  0.7818608E-02  0.9145062E-01
         -1   -1    0    0    0  501 -0.00000000000E+00  0.00000000000E+00  0.97698279644E+03  0.97698279644E+03  0.00000000000E+00 0.  1.
          2   -1    0    0  501    0  0.00000000000E+00 -0.00000000000E+00 -0.34663979167E+03  0.34663979167E+03  0.00000000000E+00 0. -1.
         24    2    1    2    0    0 -0.27447335692E+02  0.21269509971E+03  0.19442807790E+03  0.30131100194E+03  0.83627033511E+02 0.  0.
        254    2    1    2    0    0  0.27447335692E+02 -0.21269509971E+03  0.43591492688E+03  0.10223115862E+04  0.89950352643E+03 0.  0.
         23    2    4    4    0    0 -0.34703972878E+03  0.10203319690E+03  0.17295895417E+02  0.37326811245E+03  0.90457664980E+02 0.  0.
         23    2    4    4    0    0  0.37448706447E+03 -0.31472829661E+03  0.41861903146E+03  0.64904347372E+03  0.81982163510E+02 0.  0.
          4    1    3    3  502    0  0.39169386239E+01 -0.31583857487E+01  0.23950713424E+02  0.24473546581E+02  0.00000000000E+00 0. -1.
         -3    1    3    3    0  502 -0.31364274316E+02  0.21585348546E+03  0.17047736447E+03  0.27683745535E+03  0.00000000000E+00 0.  1.
         11    1    5    5    0    0 -0.20643651508E+02  0.29709845677E+02 -0.10857466313E+02  0.37771945309E+02  0.00000000000E+00 0. -1.
        -11    1    5    5    0    0 -0.32639607727E+03  0.72323351224E+02  0.28153361729E+02  0.33549616714E+03  0.00000000000E+00 0.  1.
          4    1    6    6  503    0  0.38563028644E+02 -0.68764820162E+02  0.53491214895E+02  0.95273384221E+02  0.00000000000E+00 0. -1.
         -4    1    6    6    0  503  0.33592403583E+03 -0.24596347645E+03  0.36512781657E+03  0.55377008950E+03  0.00000000000E+00 0.  1.
<mgrwt>
<rscale>  0 0.11638919E+04</rscale>
<asrwt>0</asrwt>
<pdfrwt beam="1">  1        2 0.53329199E-01 0.11638919E+04</pdfrwt>
<pdfrwt beam="2">  1       -1 0.15030504E+00 0.11638919E+04</pdfrwt>
<totfact> 0.36716483E+01</totfact>
</mgrwt>
</event>
<event>
12    6  0.1586493E-007  0.2713016E+04  0.7818608E-02  0.8330794E-01
         -1   -1    0    0    0  501 -0.00000000000E+00  0.00000000000E+00  0.12028050394E+04  0.12028050394E+04  0.00000000000E+00 0.  1.
          2   -1    0    0  501    0  0.00000000000E+00 -0.00000000000E+00 -0.15298523689E+04  0.15298523689E+04  0.00000000000E+00 0. -1.
         24    2    1    2    0    0  0.55577453948E+03  0.89225484284E+03  0.44776950130E+03  0.11451598543E+04  0.76743222929E+02 0.  0.
        254    2    1    2    0    0 -0.55577453948E+03 -0.89225484284E+03 -0.77481683077E+03  0.15874975540E+04  0.90266456637E+03 0.  0.
         23    2    4    4    0    0 -0.40517936456E+03 -0.50426660924E+02  0.17169306406E+02  0.41827972724E+03  0.89162657765E+02 0.  0.
         23    2    4    4    0    0 -0.15059517492E+03 -0.84182818191E+03 -0.79198613718E+03  0.11692178267E+04  0.92058081297E+02 0.  0.
          2    1    3    3  502    0  0.15977688384E+02  0.48971992001E+02  0.10414826163E+02  0.52554839269E+02  0.00000000000E+00 0. -1.
         -1    1    3    3    0  502  0.53979685110E+03  0.84328285084E+03  0.43735467514E+03  0.10926050150E+04  0.00000000000E+00 0.  1.
         11    1    5    5    0    0 -0.26890519543E+03 -0.35887182137E+02 -0.30906850730E+02  0.27304418579E+03  0.00000000000E+00 0.  1.
        -11    1    5    5    0    0 -0.13627416914E+03 -0.14539478787E+02  0.48076157137E+02  0.14523554146E+03  0.00000000000E+00 0. -1.
          2    1    6    6  503    0 -0.53226515349E+02 -0.52649083520E+03 -0.46113167964E+03  0.70190318952E+03  0.00000000000E+00 0.  1.
         -2    1    6    6    0  503 -0.97368659571E+02 -0.31533734671E+03 -0.33085445754E+03  0.46731463723E+03  0.00000000000E+00 0. -1.
<mgrwt>
<rscale>  0 0.27130161E+04</rscale>
<asrwt>0</asrwt>
<pdfrwt beam="1">  1        2 0.23536190E+00 0.27130161E+04</pdfrwt>
<pdfrwt beam="2">  1       -1 0.18504693E+00 0.27130161E+04</pdfrwt>
<totfact> 0.23340327E+00</totfact>
</mgrwt>
</event>
<event>
12    6  0.1586493E-007  0.1189983E+04  0.7818608E-02  0.9121670E-01
          2   -1    0    0  501    0  0.00000000000E+00  0.00000000000E+00  0.47236061498E+03  0.47236061498E+03  0.00000000000E+00 0. -1.
         -1   -1    0    0    0  501 -0.00000000000E+00 -0.00000000000E+00 -0.74945856900E+03  0.74945856900E+03  0.00000000000E+00 0.  1.
         24    2    1    2    0    0  0.50684341136E+02  0.24017994081E+03 -0.48294378865E+02  0.26231384747E+03  0.78872689457E+02 0.  0.
        254    2    1    2    0    0 -0.50684341136E+02 -0.24017994081E+03 -0.22880357516E+03  0.95950533651E+03  0.89891273680E+03 0.  0.
         23    2    4    4    0    0  0.13739509675E+03  0.28731779429E+03 -0.21083300508E+03  0.39236040930E+03  0.89817633171E+02 0.  0.
         23    2    4    4    0    0 -0.18807943788E+03 -0.52749773510E+03 -0.17970570079E+02  0.56714492721E+03  0.87764979245E+02 0.  0.
          4    1    3    3  502    0  0.35883183182E+02  0.14453103401E+03  0.10124713276E+02  0.14926262910E+03  0.00000000000E+00 0. -1.
         -3    1    3    3    0  502  0.14801157954E+02  0.95648906802E+02 -0.58419092141E+02  0.11305121837E+03  0.00000000000E+00 0.  1.
         11    1    5    5    0    0  0.51776152679E+02  0.41710939292E+02 -0.18939730990E+02  0.69132379193E+02  0.00000000000E+00 0. -1.
        -11    1    5    5    0    0  0.85618944067E+02  0.24560685500E+03 -0.19189327409E+03  0.32322803011E+03  0.00000000000E+00 0.  1.
          2    1    6    6  503    0 -0.35977020428E+01 -0.49443518498E+02  0.19704157518E+02  0.53346591315E+02  0.00000000000E+00 0. -1.
         -2    1    6    6    0  503 -0.18448173584E+03 -0.47805421660E+03 -0.37674727597E+02  0.51379833589E+03  0.00000000000E+00 0.  1.
<mgrwt>
<rscale>  0 0.11899827E+04</rscale>
<asrwt>0</asrwt>
<pdfrwt beam="1">  1        2 0.72670864E-01 0.11899827E+04</pdfrwt>
<pdfrwt beam="2">  1       -1 0.11530132E+00 0.11899827E+04</pdfrwt>
<totfact> 0.50694864E+01</totfact>
</mgrwt>
</event>
<event>
12    6  0.1586493E-007  0.2571339E+04  0.7818608E-02  0.8378002E-01
          2   -1    0    0  501    0  0.00000000000E+00  0.00000000000E+00  0.17556041094E+04  0.17556041094E+04  0.00000000000E+00 0. -1.
         -1   -1    0    0    0  501 -0.00000000000E+00 -0.00000000000E+00 -0.94152587327E+03  0.94152587327E+03  0.00000000000E+00 0.  1.
         24    2    1    2    0    0  0.30409283941E+03  0.48710454416E+03  0.13620539890E+04  0.14799153372E+04  0.72215265396E+02 0.  0.
        254    2    1    2    0    0 -0.30409283941E+03 -0.48710454416E+03 -0.54797575289E+03  0.12172146454E+04  0.92281676149E+03 0.  0.
         23    2    4    4    0    0 -0.42259557674E+02  0.10277017448E+03  0.18611787503E+03  0.23536228796E+03  0.91694951946E+02 0.  0.
         23    2    4    4    0    0 -0.26183328174E+03 -0.58987471864E+03 -0.73409362792E+03  0.98185235743E+03  0.92907190953E+02 0.  0.
          4    1    3    3  502    0  0.21720274538E+03  0.39255815092E+03  0.11040200685E+04  0.11916959537E+04  0.00000000000E+00 0. -1.
         -3    1    3    3    0  502  0.86890094032E+02  0.94546393237E+02  0.25803392046E+03  0.28821938350E+03  0.00000000000E+00 0.  1.
         11    1    5    5    0    0  0.22151990740E+02  0.28887741553E+01  0.49345638250E+02  0.54166850787E+02  0.00000000000E+00 0.  1.
        -11    1    5    5    0    0 -0.64411548415E+02  0.99881400322E+02  0.13677223678E+03  0.18119543718E+03  0.00000000000E+00 0. -1.
          3    1    6    6  503    0 -0.66057576722E+02 -0.18077842254E+03 -0.16040598637E+03  0.25054844234E+03  0.00000000000E+00 0. -1.
         -3    1    6    6    0  503 -0.19577570502E+03 -0.40909629610E+03 -0.57368764155E+03  0.73130391509E+03  0.00000000000E+00 0.  1.
<mgrwt>
<rscale>  0 0.25713395E+04</rscale>
<asrwt>0</asrwt>
<pdfrwt beam="1">  1        2 0.27009294E+00 0.25713395E+04</pdfrwt>
<pdfrwt beam="2">  1       -1 0.14485014E+00 0.25713395E+04</pdfrwt>
<totfact> 0.35317330E+00</totfact>
</mgrwt>
</event>
<event>
12    6  0.1586493E-007  0.2567206E+04  0.7818608E-02  0.8379427E-01
          2   -1    0    0  501    0  0.00000000000E+00  0.00000000000E+00  0.97451743567E+03  0.97451743567E+03  0.00000000000E+00 0. -1.
         -1   -1    0    0    0  501 -0.00000000000E+00 -0.00000000000E+00 -0.16907203904E+04  0.16907203904E+04  0.00000000000E+00 0.  1.
         24    2    1    2    0    0  0.10755016268E+04 -0.19395889683E+03 -0.41926049364E+02  0.10967866046E+04  0.82820647065E+02 0.  0.
        254    2    1    2    0    0 -0.10755016268E+04  0.19395889683E+03 -0.67427690540E+03  0.15684512215E+04  0.90059207537E+03 0.  0.
         23    2    4    4    0    0 -0.66365024044E+03 -0.17774807090E+03 -0.72654257304E+03  0.10040848532E+04  0.91083827400E+02 0.  0.
         23    2    4    4    0    0 -0.41185138634E+03  0.37170696773E+03  0.52265667646E+02  0.56436636831E+03  0.89387154473E+02 0.  0.
          2    1    3    3  502    0  0.58087626705E+03 -0.10858380006E+03  0.18470943366E+02  0.59122656825E+03  0.00000000000E+00 0. -1.
         -1    1    3    3    0  502  0.49462535972E+03 -0.85375096772E+02 -0.60396992730E+02  0.50556003636E+03  0.00000000000E+00 0.  1.
         11    1    5    5    0    0 -0.42674236931E+03 -0.15752547221E+03 -0.49311030225E+03  0.67088083468E+03  0.00000000000E+00 0. -1.
        -11    1    5    5    0    0 -0.23690787113E+03 -0.20222598691E+02 -0.23343227079E+03  0.33320401851E+03  0.00000000000E+00 0.  1.
          3    1    6    6  503    0 -0.27670232433E+03  0.23586106677E+03 -0.74254369112E+01  0.36366159574E+03  0.00000000000E+00 0. -1.
         -3    1    6    6    0  503 -0.13514906201E+03  0.13584590096E+03  0.59691104557E+02  0.20070477257E+03  0.00000000000E+00 0.  1.
<mgrwt>
<rscale>  0 0.25672059E+04</rscale>
<asrwt>0</asrwt>
<pdfrwt beam="1">  1        2 0.14992576E+00 0.25672059E+04</pdfrwt>
<pdfrwt beam="2">  1       -1 0.26011083E+00 0.25672059E+04</pdfrwt>
<totfact> 0.15847658E+00</totfact>
</mgrwt>
</event>
<event>
12    6  0.1586493E-007  0.3206389E+04  0.7818608E-02  0.8187132E-01
          2   -1    0    0  501    0  0.00000000000E+00  0.00000000000E+00  0.17113633431E+04  0.17113633431E+04  0.00000000000E+00 0. -1.
         -1   -1    0    0    0  501 -0.00000000000E+00 -0.00000000000E+00 -0.15018626853E+04  0.15018626853E+04  0.00000000000E+00 0.  1.
         24    2    1    2    0    0  0.27368624398E+03  0.62268698573E+03 -0.12158820244E+04  0.13954734481E+04  0.79585204358E+02 0.  0.
        254    2    1    2    0    0 -0.27368624398E+03 -0.62268698573E+03  0.14253826821E+04  0.18177525804E+04  0.89992522496E+03 0.  0.
         23    2    4    4    0    0 -0.80074329700E+02 -0.67956501550E+03  0.14378091810E+04  0.15944551940E+04  0.82289830253E+02 0.  0.
         23    2    4    4    0    0 -0.19361191428E+03  0.56878029768E+02 -0.12426498829E+02  0.22329738638E+03  0.94797791473E+02 0.  0.
          4    1    3    3  502    0  0.62944728883E+02  0.17194776086E+03 -0.26241120968E+03  0.31998080306E+03  0.00000000000E+00 0. -1.
         -3    1    3    3    0  502  0.21074151510E+03  0.45073922487E+03 -0.95347081470E+03  0.10754926450E+04  0.00000000000E+00 0.  1.
         11    1    5    5    0    0 -0.49198320592E+01 -0.76129190369E+02  0.22785399913E+03  0.24028587826E+03  0.00000000000E+00 0. -1.
        -11    1    5    5    0    0 -0.75154497640E+02 -0.60343582513E+03  0.12099551818E+04  0.13541693157E+04  0.00000000000E+00 0.  1.
          2    1    6    6  503    0 -0.42937851666E+02  0.55397061629E+02 -0.18513813311E+02  0.72493136407E+02  0.00000000000E+00 0. -1.
         -2    1    6    6    0  503 -0.15067406262E+03  0.14809681393E+01  0.60873144818E+01  0.15080424997E+03  0.00000000000E+00 0.  1.
<mgrwt>
<rscale>  0 0.32063891E+04</rscale>
<asrwt>0</asrwt>
<pdfrwt beam="1">  1        2 0.26328667E+00 0.32063891E+04</pdfrwt>
<pdfrwt beam="2">  1       -1 0.23105580E+00 0.32063891E+04</pdfrwt>
<totfact> 0.85989259E-01</totfact>
</mgrwt>
</event>
<event>
12    6  0.1586493E-007  0.1323371E+04  0.7818608E-02  0.9011234E-01
          2   -1    0    0  501    0  0.00000000000E+00  0.00000000000E+00  0.19696497750E+04  0.19696497750E+04  0.00000000000E+00 0. -1.
         -1   -1    0    0    0  501 -0.00000000000E+00 -0.00000000000E+00 -0.22228716602E+03  0.22228716602E+03  0.00000000000E+00 0.  1.
         24    2    1    2    0    0 -0.13193540148E+00  0.34968276296E+03  0.45944985838E+03  0.58308790968E+03  0.81358994145E+02 0.  0.
        254    2    1    2    0    0  0.13193540148E+00 -0.34968276296E+03  0.12879127506E+04  0.16088490314E+04  0.89855322624E+03 0.  0.
         23    2    4    4    0    0  0.39492230108E+03 -0.19571897610E+03  0.97358974373E+03  0.10725773425E+04  0.90970462569E+02 0.  0.
         23    2    4    4    0    0 -0.39479036568E+03 -0.15396378686E+03  0.31432300689E+03  0.53627168886E+03  0.96042131970E+02 0.  0.
          2    1    3    3  502    0  0.36121619800E+02  0.15915979026E+03  0.23980145879E+03  0.29007128416E+03  0.00000000000E+00 0. -1.
         -1    1    3    3    0  502 -0.36253555201E+02  0.19052297270E+03  0.21964839959E+03  0.29301662552E+03  0.00000000000E+00 0.  1.
         11    1    5    5    0    0  0.19157643278E+03 -0.11747081157E+03  0.39694416637E+03  0.45614207478E+03  0.00000000000E+00 0.  1.
        -11    1    5    5    0    0  0.20334586830E+03 -0.78248164527E+02  0.57664557735E+03  0.61643526772E+03  0.00000000000E+00 0. -1.
          4    1    6    6  503    0 -0.20995419430E+03 -0.12179789251E+03  0.14019471482E+03  0.28030349335E+03  0.00000000000E+00 0. -1.
         -4    1    6    6    0  503 -0.18483617138E+03 -0.32165894351E+02  0.17412829207E+03  0.25596819550E+03  0.00000000000E+00 0.  1.
<mgrwt>
<rscale>  0 0.13233713E+04</rscale>
<asrwt>0</asrwt>
<pdfrwt beam="1">  1        2 0.30302303E+00 0.13233713E+04</pdfrwt>
<pdfrwt beam="2">  1       -1 0.34198027E-01 0.13233713E+04</pdfrwt>
<totfact> 0.62677788E+01</totfact>
</mgrwt>
</event>
<event>
12    6  0.1586493E-007  0.1883330E+04  0.7818608E-02  0.8663199E-01
          2   -1    0    0  501    0  0.00000000000E+00  0.00000000000E+00  0.84569484674E+03  0.84569484674E+03  0.00000000000E+00 0. -1.
         -1   -1    0    0    0  501 -0.00000000000E+00 -0.00000000000E+00 -0.10485259772E+04  0.10485259772E+04  0.00000000000E+00 0.  1.
         24    2    1    2    0    0  0.29599834542E+03 -0.11927295040E+03 -0.72090378276E+03  0.79235852334E+03  0.79301376513E+02 0.  0.
        254    2    1    2    0    0 -0.29599834542E+03  0.11927295040E+03  0.51807265236E+03  0.11018623006E+04  0.91861863636E+03 0.  0.
         23    2    4    4    0    0 -0.27450001811E+03  0.49390977002E+03  0.21617670282E+03  0.61183509954E+03  0.91174016755E+02 0.  0.
         23    2    4    4    0    0 -0.21498327307E+02 -0.37463681961E+03  0.30189594953E+03  0.49002720101E+03  0.90391198128E+02 0.  0.
          2    1    3    3  502    0  0.33034824322E+02 -0.33984647445E+02 -0.16249972988E+03  0.16927025165E+03  0.00000000000E+00 0. -1.
         -1    1    3    3    0  502  0.26296352110E+03 -0.85288302959E+02 -0.55840405288E+03  0.62308827169E+03  0.00000000000E+00 0.  1.
         11    1    5    5    0    0 -0.10614160992E+03  0.13418180086E+03  0.99314512901E+02  0.19782358179E+03  0.00000000000E+00 0.  1.
        -11    1    5    5    0    0 -0.16835840819E+03  0.35972796916E+03  0.11686218992E+03  0.41401151776E+03  0.00000000000E+00 0. -1.
          4    1    6    6  503    0 -0.27133864978E+02 -0.14879561274E+03  0.17352801081E+03  0.23019198842E+03  0.00000000000E+00 0. -1.
         -4    1    6    6    0  503  0.56355376709E+01 -0.22584120688E+03  0.12836793872E+03  0.25983521259E+03  0.00000000000E+00 0.  1.
<mgrwt>
<rscale>  0 0.18833300E+04</rscale>
<asrwt>0</asrwt>
<pdfrwt beam="1">  1        2 0.13010690E+00 0.18833300E+04</pdfrwt>
<pdfrwt beam="2">  1       -1 0.16131169E+00 0.18833300E+04</pdfrwt>
<totfact> 0.97706043E+00</totfact>
</mgrwt>
</event>
<event>
12    6  0.1586493E-007  0.1875799E+04  0.7818608E-02  0.8666998E-01
         -1   -1    0    0    0  501 -0.00000000000E+00  0.00000000000E+00  0.32189263532E+03  0.32189263532E+03  0.00000000000E+00 0.  1.
          2   -1    0    0  501    0  0.00000000000E+00 -0.00000000000E+00 -0.27327598100E+04  0.27327598100E+04  0.00000000000E+00 0. -1.
         24    2    1    2    0    0 -0.53938178103E+03  0.30007028422E+03 -0.32394489242E+03  0.70152820025E+03  0.78909069393E+02 0.  0.
        254    2    1    2    0    0  0.53938178103E+03 -0.30007028422E+03 -0.20869222822E+04  0.23531242450E+04  0.89497163048E+03 0.  0.
         23    2    4    4    0    0  0.76651109860E+03 -0.21725825501E+03 -0.13262921311E+04  0.15499558746E+04  0.92585001782E+02 0.  0.
         23    2    4    4    0    0 -0.22712931757E+03 -0.82812029204E+02 -0.76063015111E+03  0.80316837042E+03  0.89864594757E+02 0.  0.
          2    1    3    3  502    0 -0.64612553533E+02  0.30968586240E+02 -0.11155237383E+02  0.72513962303E+02  0.00000000000E+00 0. -1.
         -1    1    3    3    0  502 -0.47476922750E+03  0.26910169798E+03 -0.31278965504E+03  0.62901423794E+03  0.00000000000E+00 0.  1.
         11    1    5    5    0    0  0.47710651665E+03 -0.12576004398E+03 -0.73401904986E+03  0.88443777761E+03  0.00000000000E+00 0. -1.
        -11    1    5    5    0    0  0.28940458195E+03 -0.91498211031E+02 -0.59227308126E+03  0.66551809702E+03  0.00000000000E+00 0.  1.
          4    1    6    6  503    0 -0.70370911362E+02 -0.37330654664E+02 -0.39209590309E+03  0.40010603615E+03  0.00000000000E+00 0. -1.
         -4    1    6    6    0  503 -0.15675840620E+03 -0.45481374540E+02 -0.36853424802E+03  0.40306233427E+03  0.00000000000E+00 0.  1.
<mgrwt>
<rscale>  0 0.18757988E+04</rscale>
<asrwt>0</asrwt>
<pdfrwt beam="1">  1        2 0.42042458E+00 0.18757988E+04</pdfrwt>
<pdfrwt beam="2">  1       -1 0.49521945E-01 0.18757988E+04</pdfrwt>
<totfact> 0.11105925E+01</totfact>
</mgrwt>
</event>
<event>
12    6  0.1586493E-007  0.3044566E+04  0.7818608E-02  0.8231118E-01
         -1   -1    0    0    0  501 -0.00000000000E+00  0.00000000000E+00  0.59109064373E+03  0.59109064373E+03  0.00000000000E+00 0.  1.
          2   -1    0    0  501    0  0.00000000000E+00 -0.00000000000E+00 -0.39204582906E+04  0.39204582906E+04  0.00000000000E+00 0. -1.
         24    2    1    2    0    0 -0.94711543623E+03 -0.75715907984E+03 -0.24877701010E+04  0.27687504171E+04  0.81616634794E+02 0.  0.
        254    2    1    2    0    0  0.94711543623E+03  0.75715907984E+03 -0.84159754585E+03  0.17427985172E+04  0.92668372203E+03 0.  0.
         23    2    4    4    0    0  0.10072779314E+04  0.31302575671E+03 -0.49319147519E+03  0.11679478167E+04  0.90941276950E+02 0.  0.
         23    2    4    4    0    0 -0.60162495150E+02  0.44413332313E+03 -0.34840607066E+03  0.57485070054E+03  0.90513000725E+02 0.  0.
          4    1    3    3  502    0 -0.85728706035E+03 -0.71375308596E+03 -0.22883258338E+04  0.25457454102E+04  0.00000000000E+00 0. -1.
         -3    1    3    3    0  502 -0.89828375886E+02 -0.43405993879E+02 -0.19944426719E+03  0.22300500697E+03  0.00000000000E+00 0.  1.
         11    1    5    5    0    0  0.12596487619E+02  0.82387071149E+01  0.29965597463E+01  0.15346894330E+02  0.00000000000E+00 0.  1.
        -11    1    5    5    0    0  0.99468144376E+03  0.30478704959E+03 -0.49618803494E+03  0.11526009223E+04  0.00000000000E+00 0. -1.
          1    1    6    6  503    0 -0.32122573922E+02  0.39313475102E+03 -0.32856387079E+03  0.51336245422E+03  0.00000000000E+00 0. -1.
         -1    1    6    6    0  503 -0.28039921228E+02  0.50998572112E+02 -0.19842199873E+02  0.61488246322E+02  0.00000000000E+00 0.  1.
<mgrwt>
<rscale>  0 0.30445664E+04</rscale>
<asrwt>0</asrwt>
<pdfrwt beam="1">  1        2 0.60314744E+00 0.30445664E+04</pdfrwt>
<pdfrwt beam="2">  1       -1 0.90937020E-01 0.30445664E+04</pdfrwt>
<totfact> 0.45265067E-01</totfact>
</mgrwt>
</event>
<event>
12    6  0.1586493E-007  0.1739849E+04  0.7818608E-02  0.8738958E-01
         -1   -1    0    0    0  501 -0.00000000000E+00  0.00000000000E+00  0.26819637566E+03  0.26819637566E+03  0.00000000000E+00 0.  1.
          2   -1    0    0  501    0  0.00000000000E+00 -0.00000000000E+00 -0.28216960829E+04  0.28216960829E+04  0.00000000000E+00 0. -1.
         24    2    1    2    0    0 -0.39496919692E+02 -0.36914784058E+03 -0.18499682902E+04  0.18885540831E+04  0.80148083036E+02 0.  0.
        254    2    1    2    0    0  0.39496919692E+02  0.36914784058E+03 -0.70353141703E+03  0.12013383754E+04  0.90023735908E+03 0.  0.
         23    2    4    4    0    0 -0.60234936937E+02  0.55325156521E+03 -0.77824991207E+03  0.96105976141E+03  0.90815182299E+02 0.  0.
         23    2    4    4    0    0  0.99731856629E+02 -0.18410372462E+03  0.74718495044E+02  0.24027861403E+03  0.91161034499E+02 0.  0.
          2    1    3    3  502    0 -0.18214339223E+02 -0.23783469072E+03 -0.98831024403E+03  0.10166878777E+04  0.00000000000E+00 0. -1.
         -1    1    3    3    0  502 -0.21282580469E+02 -0.13131314986E+03 -0.86165804617E+03  0.87186620538E+03  0.00000000000E+00 0.  1.
         11    1    5    5    0    0  0.23889679468E+02  0.93937538302E+02 -0.13388043270E+03  0.16528444617E+03  0.00000000000E+00 0. -1.
        -11    1    5    5    0    0 -0.84124616405E+02  0.45931402690E+03 -0.64436947937E+03  0.79577531524E+03  0.00000000000E+00 0.  1.
          1    1    6    6  503    0  0.18977088711E+02  0.64278330341E+01 -0.63839832439E+00  0.20046308535E+02  0.00000000000E+00 0. -1.
         -1    1    6    6    0  503  0.80754767919E+02 -0.19053155766E+03  0.75356893369E+02  0.22023230549E+03  0.00000000000E+00 0.  1.
<mgrwt>
<rscale>  0 0.17398490E+04</rscale>
<asrwt>0</asrwt>
<pdfrwt beam="1">  1        2 0.43410709E+00 0.17398490E+04</pdfrwt>
<pdfrwt beam="2">  1       -1 0.41260981E-01 0.17398490E+04</pdfrwt>
<totfact> 0.13983872E+01</totfact>
</mgrwt>
</event>
<event>
12    6  0.1586493E-007  0.1786235E+04  0.7818608E-02  0.8713654E-01
          2   -1    0    0  501    0  0.00000000000E+00  0.00000000000E+00  0.12541335307E+04  0.12541335307E+04  0.00000000000E+00 0. -1.
         -1   -1    0    0    0  501 -0.00000000000E+00 -0.00000000000E+00 -0.63602361200E+03  0.63602361200E+03  0.00000000000E+00 0.  1.
         24    2    1    2    0    0  0.21815813732E+03  0.60070250996E+03  0.24672819952E+03  0.68986922106E+03  0.81291201084E+02 0.  0.
        254    2    1    2    0    0 -0.21815813732E+03 -0.60070250996E+03  0.37138171923E+03  0.12002879217E+04  0.94569034849E+03 0.  0.
         23    2    4    4    0    0  0.33030949401E+03 -0.37837373914E+03  0.30069128103E+02  0.51123917983E+03  0.90500266424E+02 0.  0.
         23    2    4    4    0    0 -0.54846763133E+03 -0.22232877082E+03  0.34131259113E+03  0.68904874186E+03  0.89705400305E+02 0.  0.
          4    1    3    3  502    0  0.12526224100E+03  0.36301126812E+03  0.18996720471E+03  0.42843359891E+03  0.00000000000E+00 0. -1.
         -3    1    3    3    0  502  0.92895896316E+02  0.23769124183E+03  0.56760994809E+02  0.26143562215E+03  0.00000000000E+00 0.  1.
         11    1    5    5    0    0  0.33553323662E+03 -0.36426166979E+03  0.27854419391E+02  0.49602921853E+03  0.00000000000E+00 0. -1.
        -11    1    5    5    0    0 -0.52237426066E+01 -0.14112069343E+02  0.22147087119E+01  0.15209961296E+02  0.00000000000E+00 0.  1.
          4    1    6    6  503    0 -0.48193804781E+03 -0.16811935499E+03  0.31268128486E+03  0.59857997406E+03  0.00000000000E+00 0. -1.
         -4    1    6    6    0  503 -0.66529583527E+02 -0.54209415828E+02  0.28631306270E+02  0.90468767801E+02  0.00000000000E+00 0.  1.
<mgrwt>
<rscale>  0 0.17862346E+04</rscale>
<asrwt>0</asrwt>
<pdfrwt beam="1">  1        2 0.19294362E+00 0.17862346E+04</pdfrwt>
<pdfrwt beam="2">  1       -1 0.97849787E-01 0.17862346E+04</pdfrwt>
<totfact> 0.18983239E+01</totfact>
</mgrwt>
</event>
<event>
12    6  0.1586493E-007  0.1085131E+04  0.7818608E-02  0.9219806E-01
          2   -1    0    0  501    0  0.00000000000E+00  0.00000000000E+00  0.10679276725E+04  0.10679276725E+04  0.00000000000E+00 0. -1.
         -1   -1    0    0    0  501 -0.00000000000E+00 -0.00000000000E+00 -0.27565301174E+03  0.27565301174E+03  0.00000000000E+00 0.  1.
         24    2    1    2    0    0  0.16528721637E+03  0.17359134741E+02  0.69188352790E+02  0.19691472940E+03  0.79794605318E+02 0.  0.
        254    2    1    2    0    0 -0.16528721637E+03 -0.17359134741E+02  0.72308630798E+03  0.11466659549E+04  0.87428130473E+03 0.  0.
         23    2    4    4    0    0 -0.19403640056E+03 -0.24236485209E+03 -0.57682214592E+02  0.32865692587E+03  0.91089465771E+02 0.  0.
         23    2    4    4    0    0  0.28749184191E+02  0.22500571735E+03  0.78076852257E+03  0.81800902898E+03  0.89917724787E+02 0.  0.
          2    1    3    3  502    0 -0.75081912626E+01 -0.64739716610E+01  0.42774508728E+01  0.10797306658E+02  0.00000000000E+00 0. -1.
         -1    1    3    3    0  502  0.17279540763E+03  0.23833106402E+02  0.64910901917E+02  0.18611742274E+03  0.00000000000E+00 0.  1.
         11    1    5    5    0    0 -0.81256369711E+02 -0.80403450461E+02  0.20937973455E+02  0.11621407487E+03  0.00000000000E+00 0. -1.
        -11    1    5    5    0    0 -0.11278003085E+03 -0.16196140163E+03 -0.78620188048E+02  0.21244285101E+03  0.00000000000E+00 0.  1.
          3    1    6    6  503    0  0.15737227666E+02 -0.10241548979E+01  0.30669535466E+02  0.34486658776E+02  0.00000000000E+00 0. -1.
         -3    1    6    6    0  503  0.13011956525E+02  0.22602987225E+03  0.75009898710E+03  0.78352237021E+03  0.00000000000E+00 0.  1.
<mgrwt>
<rscale>  0 0.10851313E+04</rscale>
<asrwt>0</asrwt>
<pdfrwt beam="1">  1        2 0.16429656E+00 0.10851313E+04</pdfrwt>
<pdfrwt beam="2">  1       -1 0.42408156E-01 0.10851313E+04</pdfrwt>
<totfact> 0.14124156E+02</totfact>
</mgrwt>
</event>
<event>
12    6  0.1586493E-007  0.1379293E+04  0.7818608E-02  0.8968945E-01
         -1   -1    0    0    0  501 -0.00000000000E+00  0.00000000000E+00  0.22559639005E+03  0.22559639005E+03  0.00000000000E+00 0.  1.
          2   -1    0    0  501    0  0.00000000000E+00 -0.00000000000E+00 -0.21082439625E+04  0.21082439625E+04  0.00000000000E+00 0. -1.
         24    2    1    2    0    0  0.14997649284E+02 -0.31499866426E+03 -0.95617561017E+03  0.10100474962E+04  0.80467752583E+02 0.  0.
        254    2    1    2    0    0 -0.14997649284E+02  0.31499866426E+03 -0.92647196232E+03  0.13237928564E+04  0.89141917278E+03 0.  0.
         23    2    4    4    0    0 -0.18811892898E+03  0.42012546287E+03 -0.98756296864E+03  0.10933961655E+04  0.91325909735E+02 0.  0.
         23    2    4    4    0    0  0.17312127969E+03 -0.10512679861E+03  0.61091006325E+02  0.23039669081E+03  0.91257343899E+02 0.  0.
          4    1    3    3  502    0  0.31751136188E+02 -0.26032628071E+03 -0.84885224939E+03  0.88844135899E+03  0.00000000000E+00 0. -1.
         -3    1    3    3    0  502 -0.16753486903E+02 -0.54672383552E+02 -0.10732336078E+03  0.12160613725E+03  0.00000000000E+00 0.  1.
         11    1    5    5    0    0 -0.11661225350E+03  0.21057083709E+03 -0.60887220654E+03  0.65472426180E+03  0.00000000000E+00 0. -1.
        -11    1    5    5    0    0 -0.71506675473E+02  0.20955462578E+03 -0.37869076211E+03  0.43867190374E+03  0.00000000000E+00 0.  1.
          2    1    6    6  503    0  0.16409176172E+03 -0.57810809855E+02  0.47407149726E+02  0.18032091905E+03  0.00000000000E+00 0. -1.
         -2    1    6    6    0  503  0.90295179729E+01 -0.47315988755E+02  0.13683856599E+02  0.50075771768E+02  0.00000000000E+00 0.  1.
<mgrwt>
<rscale>  0 0.13792929E+04</rscale>
<asrwt>0</asrwt>
<pdfrwt beam="1">  1        2 0.32434524E+00 0.13792929E+04</pdfrwt>
<pdfrwt beam="2">  1       -1 0.34707135E-01 0.13792929E+04</pdfrwt>
<totfact> 0.50909628E+01</totfact>
</mgrwt>
</event>
<event>
12    6  0.1586493E-007  0.1448186E+04  0.7818608E-02  0.8919659E-01
         -1   -1    0    0    0  501 -0.00000000000E+00  0.00000000000E+00  0.48833046469E+03  0.48833046469E+03  0.00000000000E+00 0.  1.
          2   -1    0    0  501    0  0.00000000000E+00 -0.00000000000E+00 -0.10736805038E+04  0.10736805038E+04  0.00000000000E+00 0. -1.
         24    2    1    2    0    0 -0.18320777376E+03  0.37274097756E+03 -0.16531784933E+03  0.45417626210E+03  0.80281760200E+02 0.  0.
        254    2    1    2    0    0  0.18320777376E+03 -0.37274097756E+03 -0.42003218976E+03  0.11078347064E+04  0.93721383446E+03 0.  0.
         23    2    4    4    0    0  0.29246296499E+03 -0.64737375775E+03 -0.28358137672E+03  0.77044556281E+03  0.92415366318E+02 0.  0.
         23    2    4    4    0    0 -0.10925519123E+03  0.27463278018E+03 -0.13645081304E+03  0.33738914357E+03  0.88615738200E+02 0.  0.
          2    1    3    3  502    0 -0.16685908976E+03  0.26425064470E+03 -0.13432967283E+03  0.34016881112E+03  0.00000000000E+00 0. -1.
         -3    1    3    3    0  502 -0.16348684001E+02  0.10849033287E+03 -0.30988176501E+02  0.11400745097E+03  0.00000000000E+00 0.  1.
         11    1    5    5    0    0  0.23338706952E+03 -0.41123304820E+03 -0.18126699573E+03  0.50639892169E+03  0.00000000000E+00 0. -1.
        -11    1    5    5    0    0  0.59075895465E+02 -0.23614070955E+03 -0.10231438099E+03  0.26404664112E+03  0.00000000000E+00 0.  1.
          4    1    6    6  503    0  0.15050665242E+02  0.44776259240E+02 -0.21942043572E+02  0.52085402868E+02  0.00000000000E+00 0.  1.
         -4    1    6    6    0  503 -0.12430585647E+03  0.22985652094E+03 -0.11450876947E+03  0.28530374070E+03  0.00000000000E+00 0. -1.
<mgrwt>
<rscale>  0 0.14481863E+04</rscale>
<asrwt>0</asrwt>
<pdfrwt beam="1">  1        2 0.16518162E+00 0.14481863E+04</pdfrwt>
<pdfrwt beam="2">  1       -1 0.75127764E-01 0.14481863E+04</pdfrwt>
<totfact> 0.44593670E+01</totfact>
</mgrwt>
</event>
<event>
12    6  0.1586493E-007  0.2144769E+04  0.7818608E-02  0.8541775E-01
          2   -1    0    0  501    0  0.00000000000E+00  0.00000000000E+00  0.29932091068E+04  0.29932091068E+04  0.00000000000E+00 0. -1.
         -1   -1    0    0    0  501 -0.00000000000E+00 -0.00000000000E+00 -0.38420575205E+03  0.38420575205E+03  0.00000000000E+00 0.  1.
         24    2    1    2    0    0  0.82738349127E+03 -0.21807860382E+03  0.13986937411E+04  0.16415837588E+04  0.79569697131E+02 0.  0.
        254    2    1    2    0    0 -0.82738349127E+03  0.21807860382E+03  0.12103096136E+04  0.17358311001E+04  0.90340385651E+03 0.  0.
         23    2    4    4    0    0 -0.66349693335E+03  0.52458719306E+03  0.10226329052E+04  0.13302663408E+04  0.91709186383E+02 0.  0.
         23    2    4    4    0    0 -0.16388655792E+03 -0.30650858923E+03  0.18767670845E+03  0.40556475930E+03  0.91945135531E+02 0.  0.
          4    1    3    3  502    0  0.58743543804E+03 -0.16860194184E+03  0.93235944503E+03  0.11148099136E+04  0.00000000000E+00 0. -1.
         -3    1    3    3    0  502  0.23994805323E+03 -0.49476661982E+02  0.46633429607E+03  0.52677384523E+03  0.00000000000E+00 0.  1.
         11    1    5    5    0    0 -0.52187598544E+03  0.40384529403E+03  0.73588372602E+03  0.98841814224E+03  0.00000000000E+00 0. -1.
        -11    1    5    5    0    0 -0.14162094791E+03  0.12074189902E+03  0.28674917918E+03  0.34184819851E+03  0.00000000000E+00 0.  1.
          3    1    6    6  503    0 -0.13220764951E+02  0.11955570635E+00 -0.40137041567E+01  0.13817117663E+02  0.00000000000E+00 0. -1.
         -3    1    6    6    0  503 -0.15066579297E+03 -0.30662814494E+03  0.19169041260E+03  0.39174764163E+03  0.00000000000E+00 0.  1.
<mgrwt>
<rscale>  0 0.21447687E+04</rscale>
<asrwt>0</asrwt>
<pdfrwt beam="1">  1        2 0.46049369E+00 0.21447687E+04</pdfrwt>
<pdfrwt beam="2">  1       -1 0.59108579E-01 0.21447687E+04</pdfrwt>
<totfact> 0.53381658E+00</totfact>
</mgrwt>
</event>
<event>
12    6  0.1586493E-007  0.1517489E+04  0.7818608E-02  0.8872906E-01
          2   -1    0    0  501    0  0.00000000000E+00  0.00000000000E+00  0.81060836819E+03  0.81060836819E+03  0.00000000000E+00 0. -1.
         -1   -1    0    0    0  501 -0.00000000000E+00 -0.00000000000E+00 -0.71019854218E+03  0.71019854218E+03  0.00000000000E+00 0.  1.
         24    2    1    2    0    0 -0.17303666057E+03  0.33432254605E+02 -0.41223967967E+03  0.45522189847E+03  0.78905144317E+02 0.  0.
        254    2    1    2    0    0  0.17303666057E+03 -0.33432254605E+02  0.51264950568E+03  0.10655850119E+04  0.91738895806E+03 0.  0.
         23    2    4    4    0    0  0.16031638555E+03 -0.24327560029E+03  0.70343447194E+03  0.76653171548E+03  0.88693028770E+02 0.  0.
         23    2    4    4    0    0  0.12720275017E+02  0.20984334569E+03 -0.19078496626E+03  0.29905329642E+03  0.94010295305E+02 0.  0.
          4    1    3    3  502    0 -0.48921440056E+02  0.34830900749E+02 -0.76390943884E+02  0.97170341420E+02  0.00000000000E+00 0. -1.
         -3    1    3    3    0  502 -0.12411522051E+03 -0.13986461440E+01 -0.33584873579E+03  0.35805155705E+03  0.00000000000E+00 0.  1.
         11    1    5    5    0    0  0.95106630628E+02 -0.18981527077E+03  0.57447179637E+03  0.61244832683E+03  0.00000000000E+00 0.  1.
        -11    1    5    5    0    0  0.65209754921E+02 -0.53460329523E+02  0.12896267557E+03  0.15408338866E+03  0.00000000000E+00 0. -1.
          1    1    6    6  503    0 -0.23189236647E+02  0.29356693765E+02 -0.53270932655E+01  0.37788015134E+02  0.00000000000E+00 0. -1.
         -1    1    6    6    0  503  0.35909511664E+02  0.18048665192E+03 -0.18545787300E+03  0.26126528129E+03  0.00000000000E+00 0.  1.
<mgrwt>
<rscale>  0 0.15174886E+04</rscale>
<asrwt>0</asrwt>
<pdfrwt beam="1">  1        2 0.12470898E+00 0.15174886E+04</pdfrwt>
<pdfrwt beam="2">  1       -1 0.10926131E+00 0.15174886E+04</pdfrwt>
<totfact> 0.28921109E+01</totfact>
</mgrwt>
</event>
<event>
12    6  0.1586493E-007  0.2311771E+04  0.7818608E-02  0.8473294E-01
         -1   -1    0    0    0  501 -0.00000000000E+00  0.00000000000E+00  0.39999181167E+03  0.39999181167E+03  0.00000000000E+00 0.  1.
          2   -1    0    0  501    0  0.00000000000E+00 -0.00000000000E+00 -0.33402460746E+04  0.33402460746E+04  0.00000000000E+00 0. -1.
         24    2    1    2    0    0 -0.92351160988E+03  0.20197996807E+03 -0.83110990157E+03  0.12612795300E+04  0.80079855360E+02 0.  0.
        254    2    1    2    0    0  0.92351160988E+03 -0.20197996807E+03 -0.21091443614E+04  0.24789583563E+04  0.89614451622E+03 0.  0.
         23    2    4    4    0    0  0.10564472966E+04 -0.17159520435E+03 -0.14800638934E+04  0.18287864583E+04  0.91350843179E+02 0.  0.
         23    2    4    4    0    0 -0.13293568675E+03 -0.30384763727E+02 -0.62908046798E+03  0.65017189805E+03  0.91575821858E+02 0.  0.
          2    1    3    3  502    0 -0.64560821187E+03  0.16304937483E+03 -0.62340359692E+03  0.91215519871E+03  0.00000000000E+00 0. -1.
         -1    1    3    3    0  502 -0.27790339801E+03  0.38930593240E+02 -0.20770630465E+03  0.34912433130E+03  0.00000000000E+00 0.  1.
         11    1    5    5    0    0  0.90903326426E+02  0.10646617468E+02 -0.13189517075E+03  0.16054003017E+03  0.00000000000E+00 0.  1.
        -11    1    5    5    0    0  0.96554397021E+03 -0.18224182181E+03 -0.13481687227E+04  0.16682464281E+04  0.00000000000E+00 0. -1.
          3    1    6    6  503    0 -0.56201999598E+02  0.99024347303E+01 -0.41972388232E+03  0.42358571784E+03  0.00000000000E+00 0. -1.
         -3    1    6    6    0  503 -0.76733687150E+02 -0.40287198457E+02 -0.20935658566E+03  0.22658618021E+03  0.00000000000E+00 0.  1.
<mgrwt>
<rscale>  0 0.23117708E+04</rscale>
<asrwt>0</asrwt>
<pdfrwt beam="1">  1        2 0.51388401E+00 0.23117708E+04</pdfrwt>
<pdfrwt beam="2">  1       -1 0.61537202E-01 0.23117708E+04</pdfrwt>
<totfact> 0.28942008E+00</totfact>
</mgrwt>
</event>
<event>
12    6  0.1586493E-007  0.1437443E+04  0.7818608E-02  0.8927153E-01
          2   -1    0    0  501    0  0.00000000000E+00  0.00000000000E+00  0.93398287248E+03  0.93398287248E+03  0.00000000000E+00 0. -1.
         -1   -1    0    0    0  501 -0.00000000000E+00 -0.00000000000E+00 -0.55307276415E+03  0.55307276415E+03  0.00000000000E+00 0.  1.
         24    2    1    2    0    0 -0.14269343809E+03  0.24038396856E+03 -0.22528130378E+03  0.36775809650E+03  0.79677362484E+02 0.  0.
        254    2    1    2    0    0  0.14269343809E+03 -0.24038396856E+03  0.60619141211E+03  0.11192975401E+04  0.89845038015E+03 0.  0.
         23    2    4    4    0    0  0.24293348022E+03 -0.38038456726E+03 -0.22556621544E+02  0.46099122439E+03  0.91076961799E+02 0.  0.
         23    2    4    4    0    0 -0.10024004213E+03  0.14000059870E+03  0.62874803365E+03  0.65830631573E+03  0.91623587697E+02 0.  0.
          4    1    3    3  502    0 -0.86339017551E+02  0.95917341432E+02 -0.64105383930E+02  0.14409740660E+03  0.00000000000E+00 0. -1.
         -3    1    3    3    0  502 -0.56354420544E+02  0.14446662713E+03 -0.16117591985E+03  0.22366068990E+03  0.00000000000E+00 0.  1.
         11    1    5    5    0    0  0.18308253922E+03 -0.32101499316E+03  0.12321077136E+02  0.36975890922E+03  0.00000000000E+00 0.  1.
        -11    1    5    5    0    0  0.59850941007E+02 -0.59369574092E+02 -0.34877698680E+02  0.91232315177E+02  0.00000000000E+00 0. -1.
          3    1    6    6  503    0 -0.54760777623E+02  0.24738206021E+02  0.32052280252E+03  0.32610671342E+03  0.00000000000E+00 0. -1.
         -3    1    6    6    0  503 -0.45479264506E+02  0.11526239268E+03  0.30822523113E+03  0.33219960231E+03  0.00000000000E+00 0.  1.
<mgrwt>
<rscale>  0 0.14374429E+04</rscale>
<asrwt>0</asrwt>
<pdfrwt beam="1">  1        2 0.14368967E+00 0.14374429E+04</pdfrwt>
<pdfrwt beam="2">  1       -1 0.85088118E-01 0.14374429E+04</pdfrwt>
<totfact> 0.42109307E+01</totfact>
</mgrwt>
</event>
<event>
12    6  0.1586493E-007  0.1559941E+04  0.7818608E-02  0.8845543E-01
          2   -1    0    0  501    0  0.00000000000E+00  0.00000000000E+00  0.23862183162E+04  0.23862183162E+04  0.00000000000E+00 0. -1.
         -1   -1    0    0    0  501 -0.00000000000E+00 -0.00000000000E+00 -0.25494492330E+03  0.25494492330E+03  0.00000000000E+00 0.  1.
         24    2    1    2    0    0  0.27515232743E+03 -0.71409795030E+02 -0.16599439387E+02  0.29588217372E+03  0.80390031836E+02 0.  0.
        254    2    1    2    0    0 -0.27515232743E+03  0.71409795030E+02  0.21478728323E+04  0.23452810658E+04  0.89787382840E+03 0.  0.
         23    2    4    4    0    0 -0.21975399863E+03  0.42865364286E+03  0.73336023036E+03  0.88231497029E+03  0.92880104865E+02 0.  0.
         23    2    4    4    0    0 -0.55398328800E+02 -0.35724384783E+03  0.14145126020E+04  0.14629660955E+04  0.93443854249E+02 0.  0.
          4    1    3    3  502    0  0.60129137588E+02  0.11333635284E+02  0.15867032533E+02  0.63211764706E+02  0.00000000000E+00 0. -1.
         -3    1    3    3    0  502  0.21502318984E+03 -0.82743430314E+02 -0.32466471920E+02  0.23267040901E+03  0.00000000000E+00 0.  1.
         11    1    5    5    0    0 -0.19577062178E+03  0.41931751102E+03  0.71035281529E+03  0.84779386267E+03  0.00000000000E+00 0.  1.
        -11    1    5    5    0    0 -0.23983376854E+02  0.93361318416E+01  0.23007415070E+02  0.34521107620E+02  0.00000000000E+00 0. -1.
          4    1    6    6  503    0  0.84433778085E+01 -0.77303902330E+02  0.19119841494E+03  0.20640740738E+03  0.00000000000E+00 0. -1.
         -4    1    6    6    0  503 -0.63841706609E+02 -0.27993994550E+03  0.12233141870E+04  0.12565586882E+04  0.00000000000E+00 0.  1.
<mgrwt>
<rscale>  0 0.15599413E+04</rscale>
<asrwt>0</asrwt>
<pdfrwt beam="1">  1        2 0.36711049E+00 0.15599413E+04</pdfrwt>
<pdfrwt beam="2">  1       -1 0.39222298E-01 0.15599413E+04</pdfrwt>
<totfact> 0.28048489E+01</totfact>
</mgrwt>
</event>
<event>
12    6  0.1586493E-007  0.1825892E+04  0.7818608E-02  0.8692651E-01
         -1   -1    0    0    0  501 -0.00000000000E+00  0.00000000000E+00  0.68620251310E+03  0.68620251310E+03  0.00000000000E+00 0.  1.
          2   -1    0    0  501    0  0.00000000000E+00 -0.00000000000E+00 -0.12146123110E+04  0.12146123110E+04  0.00000000000E+00 0. -1.
         24    2    1    2    0    0 -0.16602093892E+03 -0.73068621634E+01 -0.89359231536E+03  0.91260036641E+03  0.81950352779E+02 0.  0.
        254    2    1    2    0    0  0.16602093892E+03  0.73068621634E+01  0.36518251743E+03  0.98821445771E+03  0.90310198815E+03 0.  0.
         23    2    4    4    0    0 -0.14891135747E+03  0.38219367928E+03  0.17672451680E+03  0.45574602320E+03  0.90698853122E+02 0.  0.
         23    2    4    4    0    0  0.31493229640E+03 -0.37488681711E+03  0.18845800063E+03  0.53246843452E+03  0.91015047097E+02 0.  0.
          4    1    3    3  502    0 -0.14768050967E+03 -0.30529449271E+02 -0.81016005950E+03  0.82407578670E+03  0.00000000000E+00 0. -1.
         -3    1    3    3    0  502 -0.18340429250E+02  0.23222587107E+02 -0.83432255855E+02  0.88524579717E+02  0.00000000000E+00 0.  1.
         11    1    5    5    0    0 -0.15710035500E+03  0.32653751913E+03  0.16555987445E+03  0.39839345498E+03  0.00000000000E+00 0. -1.
        -11    1    5    5    0    0  0.81889975255E+01  0.55656160144E+02  0.11164642354E+02  0.57352568220E+02  0.00000000000E+00 0.  1.
          1    1    6    6  503    0  0.13046640818E+03 -0.22474131474E+03  0.10745746970E+03  0.28120677447E+03  0.00000000000E+00 0. -1.
         -1    1    6    6    0  503  0.18446588821E+03 -0.15014550237E+03  0.81000530922E+02  0.25126166004E+03  0.00000000000E+00 0.  1.
<mgrwt>
<rscale>  0 0.18258916E+04</rscale>
<asrwt>0</asrwt>
<pdfrwt beam="1">  1        2 0.18686343E+00 0.18258916E+04</pdfrwt>
<pdfrwt beam="2">  1       -1 0.10556962E+00 0.18258916E+04</pdfrwt>
<totfact> 0.16766010E+01</totfact>
</mgrwt>
</event>
<event>
12    6  0.1586493E-007  0.1382437E+04  0.7818608E-02  0.8966630E-01
         -1   -1    0    0    0  501 -0.00000000000E+00  0.00000000000E+00  0.16754758441E+03  0.16754758441E+03  0.00000000000E+00 0.  1.
          2   -1    0    0  501    0  0.00000000000E+00 -0.00000000000E+00 -0.28516267186E+04  0.28516267186E+04  0.00000000000E+00 0. -1.
         24    2    1    2    0    0 -0.15404551980E+02  0.30880268764E+03 -0.12910022454E+04  0.13299315743E+04  0.80217170254E+02 0.  0.
        254    2    1    2    0    0  0.15404551980E+02 -0.30880268764E+03 -0.13930768888E+04  0.16892427288E+04  0.90403615996E+03 0.  0.
         23    2    4    4    0    0 -0.34487434807E+03  0.12451543788E+03 -0.45598986607E+03  0.59216168780E+03  0.91029095971E+02 0.  0.
         23    2    4    4    0    0  0.36027890005E+03 -0.43331812551E+03 -0.93708702270E+03  0.10970810410E+04  0.88821385860E+02 0.  0.
          2    1    3    3  502    0  0.18303114989E+02  0.15231890723E+03 -0.75986295913E+03  0.77519531099E+03  0.00000000000E+00 0. -1.
         -1    1    3    3    0  502 -0.33707666969E+02  0.15648378041E+03 -0.53113928630E+03  0.55473626328E+03  0.00000000000E+00 0.  1.
         11    1    5    5    0    0 -0.15499392266E+02  0.31140985155E+02 -0.32581633142E+02  0.47660832297E+02  0.00000000000E+00 0.  1.
        -11    1    5    5    0    0 -0.32937495581E+03  0.93374452721E+02 -0.42340823293E+03  0.54450085551E+03  0.00000000000E+00 0. -1.
          1    1    6    6  503    0  0.26661991874E+03 -0.33168711985E+03 -0.77428510851E+03  0.88352699778E+03  0.00000000000E+00 0. -1.
         -1    1    6    6    0  503  0.93658981311E+02 -0.10163100566E+03 -0.16280191419E+03  0.21355404317E+03  0.00000000000E+00 0.  1.
<mgrwt>
<rscale>  0 0.13824372E+04</rscale>
<asrwt>0</asrwt>
<pdfrwt beam="1">  1        2 0.43871182E+00 0.13824372E+04</pdfrwt>
<pdfrwt beam="2">  1       -1 0.25776550E-01 0.13824372E+04</pdfrwt>
<totfact> 0.31967372E+01</totfact>
</mgrwt>
</event>
<event>
12    6  0.1586493E-007  0.2996149E+04  0.7818608E-02  0.8244831E-01
          2   -1    0    0  501    0  0.00000000000E+00  0.00000000000E+00  0.21922606965E+04  0.21922606965E+04  0.00000000000E+00 0. -1.
         -1   -1    0    0    0  501 -0.00000000000E+00 -0.00000000000E+00 -0.10237046062E+04  0.10237046062E+04  0.00000000000E+00 0.  1.
         24    2    1    2    0    0  0.71439807910E+03 -0.80536168109E+03  0.14093430424E+04  0.17752887459E+04  0.80188949082E+02 0.  0.
        254    2    1    2    0    0 -0.71439807910E+03  0.80536168109E+03 -0.24078695201E+03  0.14406765568E+04  0.92660592067E+03 0.  0.
         23    2    4    4    0    0 -0.32608085350E+03 -0.15001105896E+03  0.25302753567E+02  0.37092707256E+03  0.90081202213E+02 0.  0.
         23    2    4    4    0    0 -0.38831722559E+03  0.95537274005E+03 -0.26608970558E+03  0.10697494842E+04  0.10016430235E+03 0.  0.
          2    1    3    3  502    0  0.53019485162E+03 -0.59676092575E+03  0.11009240561E+04  0.13598764505E+04  0.00000000000E+00 0. -1.
         -1    1    3    3    0  502  0.18420322747E+03 -0.20860075534E+03  0.30841898624E+03  0.41541229545E+03  0.00000000000E+00 0.  1.
         11    1    5    5    0    0 -0.15422188852E+02 -0.12988763114E+02  0.24057771258E+02  0.31389938422E+02  0.00000000000E+00 0. -1.
        -11    1    5    5    0    0 -0.31065866465E+03 -0.13702229584E+03  0.12449823090E+01  0.33953713414E+03  0.00000000000E+00 0.  1.
          3    1    6    6  503    0 -0.17132408133E+03  0.33949675487E+03 -0.13648109315E+03  0.40402608356E+03  0.00000000000E+00 0. -1.
         -3    1    6    6    0  503 -0.21699314427E+03  0.61587598518E+03 -0.12960861243E+03  0.66572340067E+03  0.00000000000E+00 0.  1.
<mgrwt>
<rscale>  0 0.29961491E+04</rscale>
<asrwt>0</asrwt>
<pdfrwt beam="1">  1        2 0.33727088E+00 0.29961491E+04</pdfrwt>
<pdfrwt beam="2">  1       -1 0.15749302E+00 0.29961491E+04</pdfrwt>
<totfact> 0.15508051E+00</totfact>
</mgrwt>
</event>
<event>
12    6  0.1586493E-007  0.3359014E+04  0.7818608E-02  0.8148039E-01
         -1   -1    0    0    0  501 -0.00000000000E+00  0.00000000000E+00  0.10426491028E+04  0.10426491028E+04  0.00000000000E+00 0.  1.
          2   -1    0    0  501    0  0.00000000000E+00 -0.00000000000E+00 -0.27053626107E+04  0.27053626107E+04  0.00000000000E+00 0. -1.
         24    2    1    2    0    0  0.77900912366E+03 -0.12109986848E+04 -0.10596466395E+03  0.14459107546E+04  0.77822688117E+02 0.  0.
        254    2    1    2    0    0 -0.77900912366E+03  0.12109986848E+04 -0.15567488440E+04  0.23021009589E+04  0.89600716098E+03 0.  0.
         23    2    4    4    0    0 -0.96014556805E+03  0.11085952024E+04 -0.13603108101E+04  0.20022757239E+04  0.88316136530E+02 0.  0.
         23    2    4    4    0    0  0.18113644439E+03  0.10240348246E+03 -0.19643803395E+03  0.29982523507E+03  0.89500758085E+02 0.  0.
          2    1    3    3  502    0  0.17144049230E+03 -0.26227929603E+03  0.89921336233E+01  0.31346950409E+03  0.00000000000E+00 0. -1.
         -1    1    3    3    0  502  0.60756863136E+03 -0.94871938878E+03 -0.11495679757E+03  0.11324412505E+04  0.00000000000E+00 0.  1.
         11    1    5    5    0    0 -0.79950831026E+03  0.89236328547E+03 -0.11472760201E+04  0.16588453930E+04  0.00000000000E+00 0. -1.
        -11    1    5    5    0    0 -0.16063725779E+03  0.21623191689E+03 -0.21303478994E+03  0.34343033092E+03  0.00000000000E+00 0.  1.
          3    1    6    6  503    0  0.17722763472E+03  0.11582802292E+03 -0.17748499832E+03  0.27627285431E+03  0.00000000000E+00 0. -1.
         -3    1    6    6    0  503  0.39088096622E+01 -0.13424540461E+02 -0.18953035630E+02  0.23552380754E+02  0.00000000000E+00 0.  1.
<mgrwt>
<rscale>  0 0.33590141E+04</rscale>
<asrwt>0</asrwt>
<pdfrwt beam="1">  1        2 0.41620963E+00 0.33590141E+04</pdfrwt>
<pdfrwt beam="2">  1       -1 0.16040756E+00 0.33590141E+04</pdfrwt>
<totfact> 0.72204707E-01</totfact>
</mgrwt>
</event>
<event>
12    6  0.1586493E-007  0.1602323E+04  0.7818608E-02  0.8819122E-01
          2   -1    0    0  501    0  0.00000000000E+00  0.00000000000E+00  0.18215034240E+04  0.18215034240E+04  0.00000000000E+00 0. -1.
         -1   -1    0    0    0  501 -0.00000000000E+00 -0.00000000000E+00 -0.35237912900E+03  0.35237912900E+03  0.00000000000E+00 0.  1.
         24    2    1    2    0    0  0.32922304200E+03  0.29261775593E+03  0.96192574984E+03  0.10609993058E+04  0.80033844484E+02 0.  0.
        254    2    1    2    0    0 -0.32922304200E+03 -0.29261775593E+03  0.50719854512E+03  0.11128832472E+04  0.88726872770E+03 0.  0.
         23    2    4    4    0    0 -0.29719197339E+03 -0.12496322979E+03 -0.19302434103E+03  0.38630625106E+03  0.89639531083E+02 0.  0.
         23    2    4    4    0    0 -0.32031068614E+02 -0.16765452614E+03  0.70022288616E+03  0.72657699610E+03  0.92021798889E+02 0.  0.
          2    1    3    3  502    0  0.52701199170E+02  0.70093083568E+02  0.26081681268E+03  0.27516516228E+03  0.00000000000E+00 0. -1.
         -1    1    3    3    0  502  0.27652184283E+03  0.22252467236E+03  0.70110893716E+03  0.78583414353E+03  0.00000000000E+00 0.  1.
         11    1    5    5    0    0  0.17198726283E+01 -0.13785144385E+02 -0.75286852641E+00  0.13912403768E+02  0.00000000000E+00 0.  1.
        -11    1    5    5    0    0 -0.29891184601E+03 -0.11117808540E+03 -0.19227147251E+03  0.37239384729E+03  0.00000000000E+00 0. -1.
          1    1    6    6  503    0 -0.14999643682E+02 -0.16976971091E+03  0.67417233326E+03  0.69538124722E+03  0.00000000000E+00 0. -1.
         -1    1    6    6    0  503 -0.17031424932E+02  0.21151847688E+01  0.26050552893E+02  0.31195748875E+02  0.00000000000E+00 0.  1.
<mgrwt>
<rscale>  0 0.16023231E+04</rscale>
<asrwt>0</asrwt>
<pdfrwt beam="1">  1        2 0.28023129E+00 0.16023231E+04</pdfrwt>
<pdfrwt beam="2">  1       -1 0.54212175E-01 0.16023231E+04</pdfrwt>
<totfact> 0.31502402E+01</totfact>
</mgrwt>
</event>
<event>
12    6  0.1586493E-007  0.2041611E+04  0.7818608E-02  0.8587409E-01
         -3   -1    0    0    0  501 -0.00000000000E+00  0.00000000000E+00  0.68352619541E+03  0.68352619541E+03  0.00000000000E+00 0.  1.
          2   -1    0    0  501    0  0.00000000000E+00 -0.00000000000E+00 -0.15245122153E+04  0.15245122153E+04  0.00000000000E+00 0. -1.
         24    2    1    2    0    0 -0.39824293554E+03 -0.62526416946E+03 -0.74746889411E+03  0.10556983670E+04  0.78972001565E+02 0.  0.
        254    2    1    2    0    0  0.39824293554E+03  0.62526416946E+03 -0.93517125829E+02  0.11523400438E+04  0.87726245012E+03 0.  0.
         23    2    4    4    0    0 -0.16915912560E+03  0.18556368985E+03 -0.29820730856E+03  0.40026968592E+03  0.90771855920E+02 0.  0.
         23    2    4    4    0    0  0.56740206113E+03  0.43970047961E+03  0.20469018273E+03  0.75207035787E+03  0.91815802168E+02 0.  0.
          4    1    3    3  502    0 -0.30602385416E+03 -0.53119103493E+03 -0.59681329615E+03  0.85557035092E+03  0.00000000000E+00 0. -1.
         -3    1    3    3    0  502 -0.92219081379E+02 -0.94073134529E+02 -0.15065559796E+03  0.20012801604E+03  0.00000000000E+00 0.  1.
         11    1    5    5    0    0 -0.50577599915E+01  0.59247567382E+02 -0.57140757646E+02  0.82467698896E+02  0.00000000000E+00 0.  1.
        -11    1    5    5    0    0 -0.16410136561E+03  0.12631612247E+03 -0.24106655092E+03  0.31780198703E+03  0.00000000000E+00 0. -1.
          3    1    6    6  503    0  0.33378619258E+03  0.30170138902E+03  0.15728940789E+03  0.47663078827E+03  0.00000000000E+00 0. -1.
         -3    1    6    6    0  503  0.23361586855E+03  0.13799909059E+03  0.47400774844E+02  0.27543956960E+03  0.00000000000E+00 0.  1.
<mgrwt>
<rscale>  0 0.20416112E+04</rscale>
<asrwt>0</asrwt>
<pdfrwt beam="1">  1        2 0.23454034E+00 0.20416112E+04</pdfrwt>
<pdfrwt beam="2">  1       -3 0.10515788E+00 0.20416112E+04</pdfrwt>
<totfact> 0.56202663E+00</totfact>
</mgrwt>
</event>
<event>
12    6  0.1586493E-007  0.1848992E+04  0.7818608E-02  0.8680671E-01
         -1   -1    0    0    0  501 -0.00000000000E+00  0.00000000000E+00  0.21581635544E+04  0.21581635544E+04  0.00000000000E+00 0.  1.
          2   -1    0    0  501    0  0.00000000000E+00 -0.00000000000E+00 -0.39602785499E+03  0.39602785499E+03  0.00000000000E+00 0. -1.
         24    2    1    2    0    0  0.77110218938E+02 -0.46694613101E+03 -0.41336415432E+02  0.48225507762E+03  0.82925180251E+02 0.  0.
        254    2    1    2    0    0 -0.77110218938E+02  0.46694613101E+03  0.18034721148E+04  0.20719363317E+04  0.90356174041E+03 0.  0.
         23    2    4    4    0    0 -0.46447502019E+03  0.29997475476E+03  0.12529955105E+04  0.13725606847E+04  0.90571441154E+02 0.  0.
         23    2    4    4    0    0  0.38736480125E+03  0.16697137625E+03  0.55047660428E+03  0.69937564702E+03  0.90392887110E+02 0.  0.
          4    1    3    3  502    0  0.87766696812E+02 -0.38552269662E+03 -0.13744338128E+02  0.39562564314E+03  0.00000000000E+00 0. -1.
         -3    1    3    3    0  502 -0.10656477875E+02 -0.81423434387E+02 -0.27592077304E+02  0.86629434479E+02  0.00000000000E+00 0.  1.
         11    1    5    5    0    0 -0.73278903454E+02  0.11833945879E+02  0.17890206688E+03  0.19368993133E+03  0.00000000000E+00 0.  1.
        -11    1    5    5    0    0 -0.39119611674E+03  0.28814080888E+03  0.10740934437E+04  0.11788707534E+04  0.00000000000E+00 0. -1.
          3    1    6    6  503    0  0.36339233333E+03  0.17500353080E+03  0.49581239409E+03  0.63914799057E+03  0.00000000000E+00 0. -1.
         -3    1    6    6    0  503  0.23972467925E+02 -0.80321545498E+01  0.54664210200E+02  0.60227656453E+02  0.00000000000E+00 0.  1.
<mgrwt>
<rscale>  0 0.18489920E+04</rscale>
<asrwt>0</asrwt>
<pdfrwt beam="1">  1        2 0.60927364E-01 0.18489920E+04</pdfrwt>
<pdfrwt beam="2">  1       -1 0.33202516E+00 0.18489920E+04</pdfrwt>
<totfact> 0.17684850E+00</totfact>
</mgrwt>
</event>
<event>
12    6  0.1586493E-007  0.1581410E+04  0.7818608E-02  0.8832051E-01
         -1   -1    0    0    0  501 -0.00000000000E+00  0.00000000000E+00  0.72648347021E+03  0.72648347021E+03  0.00000000000E+00 0.  1.
          2   -1    0    0  501    0  0.00000000000E+00 -0.00000000000E+00 -0.86060320931E+03  0.86060320931E+03  0.00000000000E+00 0. -1.
         24    2    1    2    0    0  0.16100857799E+03 -0.22736715288E+03 -0.46084665315E+03  0.54520728730E+03  0.85157289787E+02 0.  0.
        254    2    1    2    0    0 -0.16100857799E+03  0.22736715288E+03  0.32672691405E+03  0.10418793922E+04  0.94928531390E+03 0.  0.
         23    2    4    4    0    0  0.28230081444E+03  0.29109976515E+03  0.40214458986E+03  0.57838776151E+03  0.91538562377E+02 0.  0.
         23    2    4    4    0    0 -0.44330939242E+03 -0.63732612269E+02 -0.75417675811E+02  0.46349163072E+03  0.92474875762E+02 0.  0.
          2    1    3    3  502    0  0.67698648637E+02 -0.12958273149E+03 -0.30949284693E+03  0.34228732613E+03  0.00000000000E+00 0. -1.
         -1    1    3    3    0  502  0.93309929350E+02 -0.97784421395E+02 -0.15135380623E+03  0.20291996117E+03  0.00000000000E+00 0.  1.
         11    1    5    5    0    0  0.22153053385E+03  0.21747703666E+03  0.35604152126E+03  0.47237443175E+03  0.00000000000E+00 0.  1.
        -11    1    5    5    0    0  0.60770280586E+02  0.73622728488E+02  0.46103068598E+02  0.10601332976E+03  0.00000000000E+00 0. -1.
          4    1    6    6  503    0 -0.43906679411E+03 -0.53396985498E+02 -0.82955791054E+02  0.45001394536E+03  0.00000000000E+00 0.  1.
         -4    1    6    6    0  503 -0.42425983097E+01 -0.10335626771E+02  0.75381152434E+01  0.13477685357E+02  0.00000000000E+00 0. -1.
<mgrwt>
<rscale>  0 0.15814095E+04</rscale>
<asrwt>0</asrwt>
<pdfrwt beam="1">  1        2 0.13240049E+00 0.15814095E+04</pdfrwt>
<pdfrwt beam="2">  1       -1 0.11176669E+00 0.15814095E+04</pdfrwt>
<totfact> 0.25140647E+01</totfact>
</mgrwt>
</event>
<event>
12    6  0.1586493E-007  0.2077439E+04  0.7818608E-02  0.8571247E-01
          2   -1    0    0  501    0  0.00000000000E+00  0.00000000000E+00  0.90522489134E+03  0.90522489134E+03  0.00000000000E+00 0. -1.
         -1   -1    0    0    0  501 -0.00000000000E+00 -0.00000000000E+00 -0.11919012152E+04  0.11919012152E+04  0.00000000000E+00 0.  1.
         24    2    1    2    0    0 -0.52528892539E+03  0.69493255225E+02 -0.77925043688E+03  0.94733397554E+03  0.97224740525E+02 0.  0.
        254    2    1    2    0    0  0.52528892539E+03 -0.69493255225E+02  0.49257411299E+03  0.11497921310E+04  0.89366376234E+03 0.  0.
         23    2    4    4    0    0  0.41054908872E+03 -0.45872732978E+03  0.31129292610E+03  0.69616568700E+03  0.93605878981E+02 0.  0.
         23    2    4    4    0    0  0.11473983667E+03  0.38923407456E+03  0.18128118690E+03  0.45362644403E+03  0.90805765719E+02 0.  0.
          4    1    3    3  502    0 -0.80613647747E+02  0.14353412847E+02 -0.66714835020E+02  0.10561936316E+03  0.00000000000E+00 0. -1.
         -1    1    3    3    0  502 -0.44467527765E+03  0.55139842378E+02 -0.71253560186E+03  0.84171461238E+03  0.00000000000E+00 0.  1.
         11    1    5    5    0    0  0.39230543290E+03 -0.39695065076E+03  0.27393592717E+03  0.62170271353E+03  0.00000000000E+00 0. -1.
        -11    1    5    5    0    0  0.18243655824E+02 -0.61776679022E+02  0.37356998924E+02  0.74462973466E+02  0.00000000000E+00 0.  1.
          1    1    6    6  503    0  0.12220554126E+03  0.33967071765E+03  0.18026870463E+03  0.40349373801E+03  0.00000000000E+00 0. -1.
         -1    1    6    6    0  503 -0.74657045896E+01  0.49563356909E+02  0.10124822673E+01  0.50132706025E+02  0.00000000000E+00 0.  1.
<mgrwt>
<rscale>  0 0.20774394E+04</rscale>
<asrwt>0</asrwt>
<pdfrwt beam="1">  1        2 0.13926537E+00 0.20774394E+04</pdfrwt>
<pdfrwt beam="2">  1       -1 0.18336942E+00 0.20774394E+04</pdfrwt>
<totfact> 0.60304626E+00</totfact>
</mgrwt>
</event>
<event>
12    6  0.1586493E-007  0.2670004E+04  0.7818608E-02  0.8344804E-01
          2   -1    0    0  501    0  0.00000000000E+00  0.00000000000E+00  0.14595872620E+04  0.14595872620E+04  0.00000000000E+00 0. -1.
         -1   -1    0    0    0  501 -0.00000000000E+00 -0.00000000000E+00 -0.12210507038E+04  0.12210507038E+04  0.00000000000E+00 0.  1.
         24    2    1    2    0    0 -0.28466002837E+03 -0.36191835046E+03 -0.98739341009E+03  0.10926729747E+04  0.83500054547E+02 0.  0.
        254    2    1    2    0    0  0.28466002837E+03  0.36191835046E+03  0.12259299683E+04  0.15879649911E+04  0.89817164379E+03 0.  0.
         23    2    4    4    0    0  0.30082768922E+03  0.14727901935E+03  0.12969679945E+04  0.13434402004E+04  0.10255332857E+03 0.  0.
         23    2    4    4    0    0 -0.16167660855E+02  0.21463933112E+03 -0.71038026253E+02  0.24452479066E+03  0.91730781937E+02 0.  0.
          2    1    3    3  502    0 -0.76305531257E+02 -0.16263570534E+03 -0.38019428904E+03  0.42050042113E+03  0.00000000000E+00 0. -1.
         -1    1    3    3    0  502 -0.20835449711E+03 -0.19928264512E+03 -0.60719912105E+03  0.67217255353E+03  0.00000000000E+00 0.  1.
         11    1    5    5    0    0  0.18310048519E+03  0.52767125205E+02  0.57151120867E+03  0.60244105007E+03  0.00000000000E+00 0.  1.
        -11    1    5    5    0    0  0.11772720403E+03  0.94511894140E+02  0.72545678584E+03  0.74099915036E+03  0.00000000000E+00 0. -1.
          2    1    6    6  503    0 -0.46658003776E+02  0.14665708632E+03 -0.72233135587E+02  0.17000851791E+03  0.00000000000E+00 0. -1.
         -2    1    6    6    0  503  0.30490342921E+02  0.67982244795E+02  0.11951093338E+01  0.74516272754E+02  0.00000000000E+00 0.  1.
<mgrwt>
<rscale>  0 0.26700038E+04</rscale>
<asrwt>0</asrwt>
<pdfrwt beam="1">  1        2 0.22455189E+00 0.26700038E+04</pdfrwt>
<pdfrwt beam="2">  1       -1 0.18785395E+00 0.26700038E+04</pdfrwt>
<totfact> 0.24523361E+00</totfact>
</mgrwt>
</event>
<event>
12    6  0.1586493E-007  0.2907410E+04  0.7818608E-02  0.8270676E-01
          2   -1    0    0  501    0  0.00000000000E+00  0.00000000000E+00  0.86551263639E+03  0.86551263639E+03  0.00000000000E+00 0. -1.
         -1   -1    0    0    0  501 -0.00000000000E+00 -0.00000000000E+00 -0.24416256641E+04  0.24416256641E+04  0.00000000000E+00 0.  1.
         24    2    1    2    0    0  0.69846692752E+03 -0.10692895197E+04 -0.35620125581E+03  0.13282941353E+04  0.79055988103E+02 0.  0.
        254    2    1    2    0    0 -0.69846692752E+03  0.10692895197E+04 -0.12199117719E+04  0.19788441653E+04  0.89241435066E+03 0.  0.
         23    2    4    4    0    0 -0.67267073063E+03  0.26610788703E+03 -0.42269325297E+03  0.84294225656E+03  0.92643091495E+02 0.  0.
         23    2    4    4    0    0 -0.25796196890E+02  0.80318163270E+03 -0.79721851896E+03  0.11359019087E+04  0.94602327361E+02 0.  0.
          2    1    3    3  502    0  0.40147844165E+03 -0.63740931024E+03 -0.17170233000E+03  0.77263009133E+03  0.00000000000E+00 0. -1.
         -1    1    3    3    0  502  0.29698848587E+03 -0.43188020949E+03 -0.18449892581E+03  0.55566404392E+03  0.00000000000E+00 0.  1.
         11    1    5    5    0    0 -0.23048480721E+03  0.64534304239E+02 -0.18170533050E+03  0.30050748728E+03  0.00000000000E+00 0. -1.
        -11    1    5    5    0    0 -0.44218592342E+03  0.20157358279E+03 -0.24098792247E+03  0.54243476928E+03  0.00000000000E+00 0.  1.
          1    1    6    6  503    0 -0.42902257288E+02  0.67230707292E+03 -0.62520888679E+03  0.91908843759E+03  0.00000000000E+00 0. -1.
         -1    1    6    6    0  503  0.17106060398E+02  0.13087455978E+03 -0.17200963217E+03  0.21681347112E+03  0.00000000000E+00 0.  1.
<mgrwt>
<rscale>  0 0.29074098E+04</rscale>
<asrwt>0</asrwt>
<pdfrwt beam="1">  1        2 0.13315579E+00 0.29074098E+04</pdfrwt>
<pdfrwt beam="2">  1       -1 0.37563471E+00 0.29074098E+04</pdfrwt>
<totfact> 0.31864361E-01</totfact>
</mgrwt>
</event>
<event>
12    6  0.1586493E-007  0.1542559E+04  0.7818608E-02  0.8856635E-01
         -1   -1    0    0    0  501 -0.00000000000E+00  0.00000000000E+00  0.48807266813E+03  0.48807266813E+03  0.00000000000E+00 0.  1.
          2   -1    0    0  501    0  0.00000000000E+00 -0.00000000000E+00 -0.12188190752E+04  0.12188190752E+04  0.00000000000E+00 0. -1.
         24    2    1    2    0    0 -0.68650348626E+02  0.26684866351E+03 -0.70190339425E+03  0.75810309936E+03  0.78299775395E+02 0.  0.
        254    2    1    2    0    0  0.68650348626E+02 -0.26684866351E+03 -0.28843012861E+02  0.94878864400E+03  0.90743974566E+03 0.  0.
         23    2    4    4    0    0 -0.25932488419E+03 -0.19144045700E+03  0.31335295806E+03  0.46002810274E+03  0.97657231436E+02 0.  0.
         23    2    4    4    0    0  0.32797523281E+03 -0.75408206512E+02 -0.34219597092E+03  0.48876054126E+03  0.92383078679E+02 0.  0.
          4    1    3    3  502    0 -0.35120845417E+02  0.22783361823E+03 -0.51481603918E+03  0.56407196844E+03  0.00000000000E+00 0. -1.
         -3    1    3    3    0  502 -0.33529503209E+02  0.39015045284E+02 -0.18708735506E+03  0.19403113093E+03  0.00000000000E+00 0.  1.
         11    1    5    5    0    0  0.38312340206E-01  0.76916467465E+01  0.87888786462E+00  0.77417918718E+01  0.00000000000E+00 0. -1.
        -11    1    5    5    0    0 -0.25936319653E+03 -0.19913210375E+03  0.31247407020E+03  0.45228631087E+03  0.00000000000E+00 0.  1.
          3    1    6    6  503    0  0.24422308577E+01  0.11625612255E+02 -0.14261431159E+02  0.18560920520E+02  0.00000000000E+00 0. -1.
         -3    1    6    6    0  503  0.32553300196E+03 -0.87033818766E+02 -0.32793453977E+03  0.47019962074E+03  0.00000000000E+00 0.  1.
<mgrwt>
<rscale>  0 0.15425593E+04</rscale>
<asrwt>0</asrwt>
<pdfrwt beam="1">  1        2 0.18751063E+00 0.15425593E+04</pdfrwt>
<pdfrwt beam="2">  1       -1 0.75088103E-01 0.15425593E+04</pdfrwt>
<totfact> 0.36152555E+01</totfact>
</mgrwt>
</event>
<event>
12    6  0.1586493E-007  0.2032907E+04  0.7818608E-02  0.8591388E-01
         -1   -1    0    0    0  501 -0.00000000000E+00  0.00000000000E+00  0.53591632789E+03  0.53591632789E+03  0.00000000000E+00 0.  1.
          2   -1    0    0  501    0  0.00000000000E+00 -0.00000000000E+00 -0.19278716150E+04  0.19278716150E+04  0.00000000000E+00 0. -1.
         24    2    1    2    0    0  0.73471993496E+03  0.10702538768E+03 -0.98972646767E+03  0.12397536512E+04  0.78503621119E+02 0.  0.
        254    2    1    2    0    0 -0.73471993496E+03 -0.10702538768E+03 -0.40222881940E+03  0.12240342916E+04  0.88611743432E+03 0.  0.
         23    2    4    4    0    0 -0.25778728426E+03  0.25217876176E+02 -0.61891301590E+03  0.67614446292E+03  0.83831904862E+02 0.  0.
         23    2    4    4    0    0 -0.47693265070E+03 -0.13224326386E+03  0.21668419651E+03  0.54788982868E+03  0.90984554808E+02 0.  0.
          4    1    3    3  502    0  0.70768346867E+03  0.11249781855E+03 -0.93066167526E+03  0.11745649428E+04  0.00000000000E+00 0. -1.
         -3    1    3    3    0  502  0.27036466298E+02 -0.54724308689E+01 -0.59064792406E+02  0.65188708466E+02  0.00000000000E+00 0.  1.
         11    1    5    5    0    0 -0.10657551074E+03 -0.44961552562E+01 -0.35343260800E+03  0.36917903962E+03  0.00000000000E+00 0.  1.
        -11    1    5    5    0    0 -0.15121177352E+03  0.29714031432E+02 -0.26548040791E+03  0.30696542329E+03  0.00000000000E+00 0. -1.
          3    1    6    6  503    0 -0.18757812102E+03 -0.87796346211E+02  0.12119092613E+03  0.23996039354E+03  0.00000000000E+00 0. -1.
         -3    1    6    6    0  503 -0.28935452969E+03 -0.44446917647E+02  0.95493270377E+02  0.30792943514E+03  0.00000000000E+00 0.  1.
<mgrwt>
<rscale>  0 0.20329072E+04</rscale>
<asrwt>0</asrwt>
<pdfrwt beam="1">  1        2 0.29659563E+00 0.20329072E+04</pdfrwt>
<pdfrwt beam="2">  1       -1 0.82448665E-01 0.20329072E+04</pdfrwt>
<totfact> 0.11303981E+01</totfact>
</mgrwt>
</event>
<event>
12    6  0.1586493E-007  0.2573420E+04  0.7818608E-02  0.8377286E-01
          2   -1    0    0  501    0  0.00000000000E+00  0.00000000000E+00  0.48467102077E+04  0.48467102077E+04  0.00000000000E+00 0. -1.
         -1   -1    0    0    0  501 -0.00000000000E+00 -0.00000000000E+00 -0.34159731115E+03  0.34159731115E+03  0.00000000000E+00 0.  1.
         24    2    1    2    0    0  0.20532517785E+03 -0.33483651127E+03 -0.15102541978E+03  0.42833376168E+03  0.79920060263E+02 0.  0.
        254    2    1    2    0    0 -0.20532517785E+03  0.33483651127E+03  0.46561383164E+04  0.47599737572E+04  0.90744268699E+03 0.  0.
         23    2    4    4    0    0  0.80364854527E+01  0.34894670139E+02  0.40072939836E+04  0.40085077553E+04  0.91908269412E+02 0.  0.
         23    2    4    4    0    0 -0.21336166331E+03  0.29994184114E+03  0.64884433278E+03  0.75146600194E+03  0.90630438923E+02 0.  0.
          4    1    3    3  502    0  0.12368788134E+03 -0.20111864262E+03 -0.13203225066E+03  0.27051786561E+03  0.00000000000E+00 0. -1.
         -3    1    3    3    0  502  0.81637296511E+02 -0.13371786865E+03 -0.18993169119E+02  0.15781589607E+03  0.00000000000E+00 0.  1.
         11    1    5    5    0    0 -0.35476565233E+02  0.15946011950E+02  0.28162381981E+04  0.28165067815E+04  0.00000000000E+00 0.  1.
        -11    1    5    5    0    0  0.43513050686E+02  0.18948658189E+02  0.11910557855E+04  0.11920009737E+04  0.00000000000E+00 0. -1.
          3    1    6    6  503    0  0.39002786323E+01  0.77048892985E+01  0.15533626606E+01  0.87744189589E+01  0.00000000000E+00 0. -1.
         -3    1    6    6    0  503 -0.21726194194E+03  0.29223695184E+03  0.64729097012E+03  0.74269158298E+03  0.00000000000E+00 0.  1.
<mgrwt>
<rscale>  0 0.25734204E+04</rscale>
<asrwt>0</asrwt>
<pdfrwt beam="1">  1        2 0.74564767E+00 0.25734204E+04</pdfrwt>
<pdfrwt beam="2">  1       -1 0.52553436E-01 0.25734204E+04</pdfrwt>
<totfact> 0.19489056E-01</totfact>
</mgrwt>
</event>
<event>
12    6  0.1586493E-007  0.1860946E+04  0.7818608E-02  0.8674544E-01
         -1   -1    0    0    0  501 -0.00000000000E+00  0.00000000000E+00  0.51997850464E+03  0.51997850464E+03  0.00000000000E+00 0.  1.
          2   -1    0    0  501    0  0.00000000000E+00 -0.00000000000E+00 -0.16650309398E+04  0.16650309398E+04  0.00000000000E+00 0. -1.
         24    2    1    2    0    0  0.16295317412E+03  0.35509514368E+03 -0.11433284118E+04  0.12109152428E+04  0.80433637284E+02 0.  0.
        254    2    1    2    0    0 -0.16295317412E+03 -0.35509514368E+03 -0.17240233675E+01  0.97409420165E+03  0.89230613772E+03 0.  0.
         23    2    4    4    0    0 -0.42837347207E+03 -0.65169941287E+02 -0.24200179853E+03  0.50469538875E+03  0.91660308270E+02 0.  0.
         23    2    4    4    0    0  0.26542029795E+03 -0.28992520239E+03  0.24027777516E+03  0.46939881290E+03  0.89984880757E+02 0.  0.
          4    1    3    3  502    0  0.63955652543E+02  0.15585676587E+03 -0.61494859750E+03  0.63760758663E+03  0.00000000000E+00 0. -1.
         -3    1    3    3    0  502  0.98997521579E+02  0.19923837781E+03 -0.52837981434E+03  0.57330765621E+03  0.00000000000E+00 0.  1.
         11    1    5    5    0    0 -0.34807441698E+03 -0.19677773092E+02 -0.21011469060E+03  0.40705183665E+03  0.00000000000E+00 0.  1.
        -11    1    5    5    0    0 -0.80299055091E+02 -0.45492168195E+02 -0.31887107930E+02  0.97643552105E+02  0.00000000000E+00 0. -1.
          1    1    6    6  503    0  0.41428357212E+02 -0.61080151533E+02  0.89161794649E+01  0.74341051572E+02  0.00000000000E+00 0. -1.
         -1    1    6    6    0  503  0.22399194074E+03 -0.22884505086E+03  0.23136159570E+03  0.39505776132E+03  0.00000000000E+00 0.  1.
<mgrwt>
<rscale>  0 0.18609463E+04</rscale>
<asrwt>0</asrwt>
<pdfrwt beam="1">  1        2 0.25615861E+00 0.18609463E+04</pdfrwt>
<pdfrwt beam="2">  1       -1 0.79996692E-01 0.18609463E+04</pdfrwt>
<totfact> 0.17123408E+01</totfact>
</mgrwt>
</event>
<event>
12    6  0.1586493E-007  0.1168422E+04  0.7818608E-02  0.9140955E-01
         -1   -1    0    0    0  501 -0.00000000000E+00  0.00000000000E+00  0.21635726285E+04  0.21635726285E+04  0.00000000000E+00 0.  1.
          2   -1    0    0  501    0  0.00000000000E+00 -0.00000000000E+00 -0.15774942634E+03  0.15774942634E+03  0.00000000000E+00 0. -1.
         24    2    1    2    0    0  0.63710413478E+02  0.71973857283E+02  0.15234942420E+01  0.12518675431E+03  0.80188212986E+02 0.  0.
        254    2    1    2    0    0 -0.63710413478E+02 -0.71973857283E+02  0.20042997080E+04  0.21961353006E+04  0.89249856366E+03 0.  0.
         23    2    4    4    0    0 -0.19017744164E+03 -0.38830611921E+03  0.58278290529E+03  0.73150505811E+03  0.92274773518E+02 0.  0.
         23    2    4    4    0    0  0.12646702816E+03  0.31633226193E+03  0.14215168027E+04  0.14646302424E+04  0.91497091032E+02 0.  0.
          4    1    3    3  502    0  0.82277803954E+02  0.61713607024E+02  0.75687316811E+01  0.10312852183E+03  0.00000000000E+00 0. -1.
         -3    1    3    3    0  502 -0.18567390475E+02  0.10260250259E+02 -0.60452374390E+01  0.22058232480E+02  0.00000000000E+00 0.  1.
         11    1    5    5    0    0 -0.14060953675E+03 -0.20110200876E+03  0.28248739355E+03  0.37418202424E+03  0.00000000000E+00 0.  1.
        -11    1    5    5    0    0 -0.49567904885E+02 -0.18720411045E+03  0.30029551174E+03  0.35732303387E+03  0.00000000000E+00 0. -1.
          3    1    6    6  503    0  0.24138500162E+02  0.11989479947E+03  0.67332369039E+03  0.68434072082E+03  0.00000000000E+00 0. -1.
         -3    1    6    6    0  503  0.10232852800E+03  0.19643746245E+03  0.74819311227E+03  0.78028952162E+03  0.00000000000E+00 0.  1.
<mgrwt>
<rscale>  0 0.11684217E+04</rscale>
<asrwt>0</asrwt>
<pdfrwt beam="1">  1        2 0.24269144E-01 0.11684217E+04</pdfrwt>
<pdfrwt beam="2">  1       -1 0.33285731E+00 0.11684217E+04</pdfrwt>
<totfact> 0.52528303E+00</totfact>
</mgrwt>
</event>
<event>
12    6  0.1586493E-007  0.2623097E+04  0.7818608E-02  0.8360398E-01
          2   -1    0    0  501    0  0.00000000000E+00  0.00000000000E+00  0.24718876183E+04  0.24718876183E+04  0.00000000000E+00 0. -1.
         -1   -1    0    0    0  501 -0.00000000000E+00 -0.00000000000E+00 -0.69588905536E+03  0.69588905536E+03  0.00000000000E+00 0.  1.
         24    2    1    2    0    0  0.89502295159E+03 -0.33215634908E+03 -0.87918200026E+00  0.95798335324E+03  0.79607838947E+02 0.  0.
        254    2    1    2    0    0 -0.89502295159E+03  0.33215634908E+03  0.17768777449E+04  0.22097933204E+04  0.90249547056E+03 0.  0.
         23    2    4    4    0    0 -0.39725025904E+03  0.26014407662E+03  0.15960745909E+04  0.16676861414E+04  0.90775864259E+02 0.  0.
         23    2    4    4    0    0 -0.49777269255E+03  0.72012272459E+02  0.18080315401E+03  0.54210717901E+03  0.90702768390E+02 0.  0.
          4    1    3    3  502    0  0.19429984053E+03 -0.64129634726E+02  0.31657551916E+02  0.20704405008E+03  0.00000000000E+00 0. -1.
         -3    1    3    3    0  502  0.70072311106E+03 -0.26802671435E+03 -0.32536733916E+02  0.75093930316E+03  0.00000000000E+00 0.  1.
         11    1    5    5    0    0 -0.18352437351E+03  0.15563468084E+03  0.92100041992E+03  0.95191655257E+03  0.00000000000E+00 0.  1.
        -11    1    5    5    0    0 -0.21372588553E+03  0.10450939577E+03  0.67507417099E+03  0.71576958882E+03  0.00000000000E+00 0. -1.
          2    1    6    6  503    0 -0.15732412012E+03  0.55716859221E+01  0.16482782839E+02  0.15828330483E+03  0.00000000000E+00 0. -1.
         -2    1    6    6    0  503 -0.34044857243E+03  0.66440586536E+02  0.16432037117E+03  0.38382387418E+03  0.00000000000E+00 0.  1.
<mgrwt>
<rscale>  0 0.26230971E+04</rscale>
<asrwt>0</asrwt>
<pdfrwt beam="1">  1        2 0.38029040E+00 0.26230971E+04</pdfrwt>
<pdfrwt beam="2">  1       -1 0.10705986E+00 0.26230971E+04</pdfrwt>
<totfact> 0.29511304E+00</totfact>
</mgrwt>
</event>
<event>
12    6  0.1586493E-007  0.1858775E+04  0.7818608E-02  0.8675653E-01
         -1   -1    0    0    0  501 -0.00000000000E+00  0.00000000000E+00  0.46451212675E+03  0.46451212675E+03  0.00000000000E+00 0.  1.
          2   -1    0    0  501    0  0.00000000000E+00 -0.00000000000E+00 -0.18595014881E+04  0.18595014881E+04  0.00000000000E+00 0. -1.
         24    2    1    2    0    0 -0.64933909358E+03 -0.44952811893E+02 -0.89009622940E+03  0.11058285227E+04  0.83207032515E+02 0.  0.
        254    2    1    2    0    0  0.64933909358E+03  0.44952811893E+02 -0.50489313197E+03  0.12181850922E+04  0.89743848278E+03 0.  0.
         23    2    4    4    0    0 -0.18940267529E+03  0.10013127636E+03  0.44599351077E+00  0.23330468347E+03  0.92364660496E+02 0.  0.
         23    2    4    4    0    0  0.83874176886E+03 -0.55178464469E+02 -0.50533912548E+03  0.98488040872E+03  0.89940924827E+02 0.  0.
          4    1    3    3  502    0 -0.47940986720E+03 -0.69702657873E+02 -0.65360068505E+03  0.81356384924E+03  0.00000000000E+00 0. -1.
         -1    1    3    3    0  502 -0.16992922637E+03  0.24749845980E+02 -0.23649554435E+03  0.29226467346E+03  0.00000000000E+00 0.  1.
         11    1    5    5    0    0 -0.14305182371E+03  0.52266492570E+02 -0.37196596605E+02  0.15677754084E+03  0.00000000000E+00 0. -1.
        -11    1    5    5    0    0 -0.46350851579E+02  0.47864783792E+02  0.37642590116E+02  0.76527142637E+02  0.00000000000E+00 0.  1.
          2    1    6    6  503    0  0.81135135548E+03 -0.37289246874E+02 -0.47945502769E+03  0.94316416044E+03  0.00000000000E+00 0. -1.
         -2    1    6    6    0  503  0.27390413383E+02 -0.17889217595E+02 -0.25884097795E+02  0.41716248275E+02  0.00000000000E+00 0.  1.
<mgrwt>
<rscale>  0 0.18587749E+04</rscale>
<asrwt>0</asrwt>
<pdfrwt beam="1">  1        2 0.28607716E+00 0.18587749E+04</pdfrwt>
<pdfrwt beam="2">  1       -1 0.71463403E-01 0.18587749E+04</pdfrwt>
<totfact> 0.16917816E+01</totfact>
</mgrwt>
</event>
<event>
12    6  0.1586493E-007  0.1529939E+04  0.7818608E-02  0.8864785E-01
          2   -1    0    0  501    0  0.00000000000E+00  0.00000000000E+00  0.13214382008E+04  0.13214382008E+04  0.00000000000E+00 0. -1.
         -1   -1    0    0    0  501 -0.00000000000E+00 -0.00000000000E+00 -0.44283429519E+03  0.44283429519E+03  0.00000000000E+00 0.  1.
         24    2    1    2    0    0 -0.26426308921E+03  0.39503380515E+03  0.13968252678E+03  0.50181530681E+03  0.80129310084E+02 0.  0.
        254    2    1    2    0    0  0.26426308921E+03 -0.39503380515E+03  0.73892137879E+03  0.12624571891E+04  0.90659068098E+03 0.  0.
         23    2    4    4    0    0  0.56897785112E+03 -0.30997354851E+03  0.31652558379E+03  0.72697394331E+03  0.92104686154E+02 0.  0.
         23    2    4    4    0    0 -0.30471476192E+03 -0.85060256636E+02  0.42239579501E+03  0.53548324583E+03  0.90762137123E+02 0.  0.
          2    1    3    3  502    0 -0.37219226354E+02  0.17817587559E+02  0.60314104307E+01  0.41702699536E+02  0.00000000000E+00 0. -1.
         -1    1    3    3    0  502 -0.22704386285E+03  0.37721621759E+03  0.13365111635E+03  0.46011260727E+03  0.00000000000E+00 0.  1.
         11    1    5    5    0    0  0.14774945199E+03 -0.87446356876E+02  0.13005243768E+03  0.21538431336E+03  0.00000000000E+00 0.  1.
        -11    1    5    5    0    0  0.42122839913E+03 -0.22252719164E+03  0.18647314611E+03  0.51158962995E+03  0.00000000000E+00 0. -1.
          2    1    6    6  503    0 -0.28757316199E+03 -0.61514417650E+02  0.34815986491E+03  0.45573856388E+03  0.00000000000E+00 0. -1.
         -2    1    6    6    0  503 -0.17141599929E+02 -0.23545838987E+02  0.74235930094E+02  0.79744681945E+02  0.00000000000E+00 0.  1.
<mgrwt>
<rscale>  0 0.15299388E+04</rscale>
<asrwt>0</asrwt>
<pdfrwt beam="1">  1        2 0.20329818E+00 0.15299388E+04</pdfrwt>
<pdfrwt beam="2">  1       -1 0.68128354E-01 0.15299388E+04</pdfrwt>
<totfact> 0.38500673E+01</totfact>
</mgrwt>
</event>
<event>
12    6  0.1586493E-007  0.1298041E+04  0.7818608E-02  0.9031120E-01
         -1   -1    0    0    0  501 -0.00000000000E+00  0.00000000000E+00  0.48947530883E+03  0.48947530883E+03  0.00000000000E+00 0.  1.
          2   -1    0    0  501    0  0.00000000000E+00 -0.00000000000E+00 -0.86056934950E+03  0.86056934950E+03  0.00000000000E+00 0. -1.
         24    2    1    2    0    0  0.15106110115E+03  0.29228130282E+03 -0.15782772873E+03  0.37380124511E+03  0.81055306016E+02 0.  0.
        254    2    1    2    0    0 -0.15106110115E+03 -0.29228130282E+03 -0.21326631193E+03  0.97624341322E+03  0.89404746282E+03 0.  0.
         23    2    4    4    0    0  0.39178394199E+02 -0.58381885880E+03 -0.11851720738E+03  0.60411119686E+03  0.92328778044E+02 0.  0.
         23    2    4    4    0    0 -0.19023949535E+03  0.29153755599E+03 -0.94749104552E+02  0.37213221636E+03  0.91212836261E+02 0.  0.
          4    1    3    3  502    0  0.15826225770E+03  0.29135813846E+03 -0.15383522363E+03  0.36551577680E+03  0.00000000000E+00 0. -1.
         -3    1    3    3    0  502 -0.72011565519E+01  0.92316435272E+00 -0.39925051064E+01  0.82854683110E+01  0.00000000000E+00 0.  1.
         11    1    5    5    0    0  0.23587118539E+02 -0.37750190608E+03 -0.31156999074E+02  0.37951916928E+03  0.00000000000E+00 0. -1.
        -11    1    5    5    0    0  0.15591275660E+02 -0.20631695272E+03 -0.87360208309E+02  0.22459202758E+03  0.00000000000E+00 0.  1.
          2    1    6    6  503    0 -0.14289751339E+03  0.14437265330E+03 -0.33639209432E+02  0.20589987559E+03  0.00000000000E+00 0. -1.
         -2    1    6    6    0  503 -0.47341981954E+02  0.14716490268E+03 -0.61109895120E+02  0.16623234077E+03  0.00000000000E+00 0.  1.
<mgrwt>
<rscale>  0 0.12980408E+04</rscale>
<asrwt>0</asrwt>
<pdfrwt beam="1">  1        2 0.13239528E+00 0.12980408E+04</pdfrwt>
<pdfrwt beam="2">  1       -1 0.75303894E-01 0.12980408E+04</pdfrwt>
<totfact> 0.61920647E+01</totfact>
</mgrwt>
</event>
<event>
12    6  0.1586493E-007  0.1748542E+04  0.7818608E-02  0.8734153E-01
         -1   -1    0    0    0  501 -0.00000000000E+00  0.00000000000E+00  0.86289855567E+03  0.86289855567E+03  0.00000000000E+00 0.  1.
          2   -1    0    0  501    0  0.00000000000E+00 -0.00000000000E+00 -0.88579290584E+03  0.88579290584E+03  0.00000000000E+00 0. -1.
         24    2    1    2    0    0 -0.61674876088E+03 -0.11907477285E+03 -0.13330710909E+03  0.64748877780E+03  0.83145032713E+02 0.  0.
        254    2    1    2    0    0  0.61674876088E+03  0.11907477285E+03  0.11041275891E+03  0.11012026837E+04  0.89771851809E+03 0.  0.
         23    2    4    4    0    0  0.40634165948E+03 -0.48943901039E+02 -0.35911700063E+03  0.55229245399E+03  0.92481808578E+02 0.  0.
         23    2    4    4    0    0  0.21040710140E+03  0.16801867389E+03  0.46952975955E+03  0.54891022972E+03  0.91339050242E+02 0.  0.
          2    1    3    3  502    0 -0.35419051659E+03 -0.63009516590E+02 -0.34481246630E+02  0.36140016269E+03  0.00000000000E+00 0. -1.
         -1    1    3    3    0  502 -0.26255824429E+03 -0.56065256261E+02 -0.98825862456E+02  0.28608861511E+03  0.00000000000E+00 0.  1.
         11    1    5    5    0    0  0.15822038092E+03  0.89483879789E+01 -0.92425360877E+02  0.18345628885E+03  0.00000000000E+00 0. -1.
        -11    1    5    5    0    0  0.24812127856E+03 -0.57892289018E+02 -0.26669163975E+03  0.36883616514E+03  0.00000000000E+00 0.  1.
          3    1    6    6  503    0  0.37330980064E+02  0.12458264797E+02  0.23538800219E+02  0.45857230074E+02  0.00000000000E+00 0. -1.
         -3    1    6    6    0  503  0.17307612134E+03  0.15556040909E+03  0.44599095933E+03  0.50305299965E+03  0.00000000000E+00 0.  1.
<mgrwt>
<rscale>  0 0.17485416E+04</rscale>
<asrwt>0</asrwt>
<pdfrwt beam="1">  1        2 0.13627583E+00 0.17485416E+04</pdfrwt>
<pdfrwt beam="2">  1       -1 0.13275362E+00 0.17485416E+04</pdfrwt>
<totfact> 0.15598608E+01</totfact>
</mgrwt>
</event>
<event>
12    6  0.1586493E-007  0.1249255E+04  0.7818608E-02  0.9070803E-01
         -1   -1    0    0    0  501 -0.00000000000E+00  0.00000000000E+00  0.15875584317E+03  0.15875584317E+03  0.00000000000E+00 0.  1.
          2   -1    0    0  501    0  0.00000000000E+00 -0.00000000000E+00 -0.24576079042E+04  0.24576079042E+04  0.00000000000E+00 0. -1.
         24    2    1    2    0    0  0.18730381562E+03 -0.18060137537E+02 -0.87524546781E+02  0.22223390593E+03  0.79488834063E+02 0.  0.
        254    2    1    2    0    0 -0.18730381562E+03  0.18060137537E+02 -0.22113275143E+04  0.23941298414E+04  0.89804200039E+03 0.  0.
         23    2    4    4    0    0 -0.39226478472E+03 -0.89623884067E+02 -0.43221916952E+03  0.59765571670E+03  0.92058912029E+02 0.  0.
         23    2    4    4    0    0  0.20496096910E+03  0.10768402160E+03 -0.17791083447E+04  0.17964741247E+04  0.92129968917E+02 0.  0.
          4    1    3    3  502    0  0.10443843482E+03 -0.77837766296E+01 -0.90886284580E+02  0.13866611183E+03  0.00000000000E+00 0. -1.
         -3    1    3    3    0  502  0.82865380801E+02 -0.10276360907E+02  0.33617377987E+01  0.83567794095E+02  0.00000000000E+00 0.  1.
         11    1    5    5    0    0 -0.11422685309E+03 -0.78476035283E+01 -0.18069041781E+03  0.21391209862E+03  0.00000000000E+00 0.  1.
        -11    1    5    5    0    0 -0.27803793163E+03 -0.81776280538E+02 -0.25152875171E+03  0.38374361808E+03  0.00000000000E+00 0. -1.
          2    1    6    6  503    0  0.60718706906E+02  0.66529781609E+02 -0.91709235280E+03  0.92150494126E+03  0.00000000000E+00 0. -1.
         -2    1    6    6    0  503  0.14424226219E+03  0.41154239994E+02 -0.86201599194E+03  0.87496918348E+03  0.00000000000E+00 0.  1.
<mgrwt>
<rscale>  0 0.12492552E+04</rscale>
<asrwt>0</asrwt>
<pdfrwt beam="1">  1        2 0.37809351E+00 0.12492552E+04</pdfrwt>
<pdfrwt beam="2">  1       -1 0.24423977E-01 0.12492552E+04</pdfrwt>
<totfact> 0.60460078E+01</totfact>
</mgrwt>
</event>
<event>
12    6  0.1586493E-007  0.1767943E+04  0.7818608E-02  0.8723535E-01
          2   -1    0    0  501    0  0.00000000000E+00  0.00000000000E+00  0.20683167276E+04  0.20683167276E+04  0.00000000000E+00 0. -1.
         -1   -1    0    0    0  501 -0.00000000000E+00 -0.00000000000E+00 -0.37779789943E+03  0.37779789943E+03  0.00000000000E+00 0.  1.
         24    2    1    2    0    0 -0.44713900157E+03 -0.29830523505E+02 -0.27551269243E+02  0.45570420111E+03  0.78000638562E+02 0.  0.
        254    2    1    2    0    0  0.44713900157E+03  0.29830523505E+02  0.17180700975E+04  0.19904104260E+04  0.89952523985E+03 0.  0.
         23    2    4    4    0    0  0.48453695801E+03  0.23873683328E+03  0.47280006254E+03  0.72355262158E+03  0.90648540105E+02 0.  0.
         23    2    4    4    0    0 -0.37397956435E+02 -0.20890630978E+03  0.12452700349E+04  0.12668578044E+04  0.95868572663E+02 0.  0.
          4    1    3    3  502    0 -0.83812118635E+02  0.72005411170E+00  0.24679333406E+02  0.87373103443E+02  0.00000000000E+00 0. -1.
         -1    1    3    3    0  502 -0.36332688294E+03 -0.30550577616E+02 -0.52230602649E+02  0.36833109767E+03  0.00000000000E+00 0.  1.
         11    1    5    5    0    0  0.75064621068E+02  0.51484995578E+02  0.41443353521E+02  0.10001476719E+03  0.00000000000E+00 0.  1.
        -11    1    5    5    0    0  0.40947233694E+03  0.18725183770E+03  0.43135670902E+03  0.62353785439E+03  0.00000000000E+00 0. -1.
          2    1    6    6  503    0 -0.12011761072E+02 -0.17930720635E+03  0.11493486915E+04  0.11633132731E+04  0.00000000000E+00 0. -1.
         -2    1    6    6    0  503 -0.25386195364E+02 -0.29599103427E+02  0.95921343392E+02  0.10354453127E+03  0.00000000000E+00 0.  1.
<mgrwt>
<rscale>  0 0.17679431E+04</rscale>
<asrwt>0</asrwt>
<pdfrwt beam="1">  1        2 0.31820257E+00 0.17679431E+04</pdfrwt>
<pdfrwt beam="2">  1       -1 0.58122754E-01 0.17679431E+04</pdfrwt>
<totfact> 0.19787310E+01</totfact>
</mgrwt>
</event>
<event>
12    6  0.1586493E-007  0.1421555E+04  0.7818608E-02  0.8938362E-01
          2   -1    0    0  501    0  0.00000000000E+00  0.00000000000E+00  0.71638639371E+03  0.71638639371E+03  0.00000000000E+00 0. -1.
         -1   -1    0    0    0  501 -0.00000000000E+00 -0.00000000000E+00 -0.70521264076E+03  0.70521264076E+03  0.00000000000E+00 0.  1.
         24    2    1    2    0    0  0.95043711053E+02 -0.97783524914E+02 -0.39306765077E+03  0.42375635694E+03  0.80450899377E+02 0.  0.
        254    2    1    2    0    0 -0.95043711053E+02  0.97783524914E+02  0.40424140372E+03  0.99784267753E+03  0.90204432921E+03 0.  0.
         23    2    4    4    0    0 -0.35501860523E+03  0.17901645566E+03  0.54279451891E+03  0.67912435718E+03  0.92189485854E+02 0.  0.
         23    2    4    4    0    0  0.25997489418E+03 -0.81232930745E+02 -0.13855311519E+03  0.31871832035E+03  0.90546492817E+02 0.  0.
          2    1    3    3  502    0  0.41597113577E+02  0.43031041385E+01 -0.82353081837E+02  0.92362690797E+02  0.00000000000E+00 0. -1.
         -1    1    3    3    0  502  0.53446597476E+02 -0.10208662905E+03 -0.31071456893E+03  0.33139366614E+03  0.00000000000E+00 0.  1.
         11    1    5    5    0    0 -0.25944169933E+03  0.92871877359E+02  0.32436735314E+03  0.42561644792E+03  0.00000000000E+00 0. -1.
        -11    1    5    5    0    0 -0.95576905894E+02  0.86144578301E+02  0.21842716577E+03  0.25350790926E+03  0.00000000000E+00 0.  1.
          2    1    6    6  503    0  0.56679681064E+02  0.19465496125E+02 -0.23831208780E+02  0.64493552366E+02  0.00000000000E+00 0. -1.
         -2    1    6    6    0  503  0.20329521311E+03 -0.10069842687E+03 -0.11472190641E+03  0.25422476799E+03  0.00000000000E+00 0.  1.
<mgrwt>
<rscale>  0 0.14215551E+04</rscale>
<asrwt>0</asrwt>
<pdfrwt beam="1">  1        2 0.11021329E+00 0.14215551E+04</pdfrwt>
<pdfrwt beam="2">  1       -1 0.10849425E+00 0.14215551E+04</pdfrwt>
<totfact> 0.34828453E+01</totfact>
</mgrwt>
</event>
<event>
12    6  0.1586493E-007  0.2424517E+04  0.7818608E-02  0.8430381E-01
          2   -1    0    0  501    0  0.00000000000E+00  0.00000000000E+00  0.14283047719E+04  0.14283047719E+04  0.00000000000E+00 0. -1.
         -1   -1    0    0    0  501 -0.00000000000E+00 -0.00000000000E+00 -0.10288918291E+04  0.10288918291E+04  0.00000000000E+00 0.  1.
         24    2    1    2    0    0  0.57450570623E+03 -0.88508745546E+03 -0.73393159531E+01  0.10580911286E+04  0.77886844309E+02 0.  0.
        254    2    1    2    0    0 -0.57450570623E+03  0.88508745546E+03  0.40675225870E+03  0.13991054725E+04  0.82377916507E+03 0.  0.
         23    2    4    4    0    0 -0.63650470304E+03  0.47090001779E+03  0.52535359381E+03  0.95443662381E+03  0.89820969724E+02 0.  0.
         23    2    4    4    0    0  0.61998996816E+02  0.41418743767E+03 -0.11860133511E+03  0.44466884864E+03  0.90934037252E+02 0.  0.
          2    1    3    3  502    0  0.10640342599E+03 -0.13524529124E+03 -0.25395557445E+02  0.17394801581E+03  0.00000000000E+00 0. -1.
         -1    1    3    3    0  502  0.46810228024E+03 -0.74984216421E+03  0.18056241492E+02  0.88414311276E+03  0.00000000000E+00 0.  1.
         11    1    5    5    0    0 -0.24444651528E+03  0.14207667787E+03  0.22291681578E+03  0.36004414727E+03  0.00000000000E+00 0.  1.
        -11    1    5    5    0    0 -0.39205818777E+03  0.32882333991E+03  0.30243677803E+03  0.59439247654E+03  0.00000000000E+00 0. -1.
          2    1    6    6  503    0  0.31327327315E+02  0.76582260575E+02  0.72661236416E+01  0.83060463665E+02  0.00000000000E+00 0. -1.
         -2    1    6    6    0  503  0.30671669501E+02  0.33760517710E+03 -0.12586745875E+03  0.36160838498E+03  0.00000000000E+00 0.  1.
<mgrwt>
<rscale>  0 0.24245174E+04</rscale>
<asrwt>0</asrwt>
<pdfrwt beam="1">  1        2 0.21973920E+00 0.24245174E+04</pdfrwt>
<pdfrwt beam="2">  1       -1 0.15829105E+00 0.24245174E+04</pdfrwt>
<totfact> 0.42920896E+00</totfact>
</mgrwt>
</event>
<event>
12    6  0.1586493E-007  0.1315788E+04  0.7818608E-02  0.9017138E-01
         -1   -1    0    0    0  501 -0.00000000000E+00  0.00000000000E+00  0.50482468674E+03  0.50482468674E+03  0.00000000000E+00 0.  1.
          2   -1    0    0  501    0  0.00000000000E+00 -0.00000000000E+00 -0.85737639481E+03  0.85737639481E+03  0.00000000000E+00 0. -1.
         24    2    1    2    0    0  0.28608105207E+03  0.59911340357E+02 -0.27333284520E+03  0.40818446140E+03  0.80448574888E+02 0.  0.
        254    2    1    2    0    0 -0.28608105207E+03 -0.59911340357E+02 -0.79218862874E+02  0.95401662015E+03  0.90467692920E+03 0.  0.
         23    2    4    4    0    0 -0.40612593747E+03 -0.29793842729E+03 -0.30138473951E+03  0.59411543654E+03  0.91841206338E+02 0.  0.
         23    2    4    4    0    0  0.12004488539E+03  0.23802708693E+03  0.22216587664E+03  0.35990118361E+03  0.95412350345E+02 0.  0.
          4    1    3    3  502    0  0.18855460432E+03  0.74935750287E+02 -0.16386611204E+03  0.26080703241E+03  0.00000000000E+00 0. -1.
         -3    1    3    3    0  502  0.97526447757E+02 -0.15024409929E+02 -0.10946673315E+03  0.14737742898E+03  0.00000000000E+00 0.  1.
         11    1    5    5    0    0 -0.34641880975E+03 -0.20844830554E+03 -0.24321911086E+03  0.47181799851E+03  0.00000000000E+00 0.  1.
        -11    1    5    5    0    0 -0.59707127717E+02 -0.89490121755E+02 -0.58165628652E+02  0.12229743803E+03  0.00000000000E+00 0. -1.
          2    1    6    6  503    0  0.37987667212E+02  0.21979853321E+02  0.75891791561E+01  0.44539560533E+02  0.00000000000E+00 0. -1.
         -2    1    6    6    0  503  0.82057218181E+02  0.21604723361E+03  0.21457669748E+03  0.31536162308E+03  0.00000000000E+00 0.  1.
<mgrwt>
<rscale>  0 0.13157884E+04</rscale>
<asrwt>0</asrwt>
<pdfrwt beam="1">  1        2 0.13190406E+00 0.13157884E+04</pdfrwt>
<pdfrwt beam="2">  1       -1 0.77665338E-01 0.13157884E+04</pdfrwt>
<totfact> 0.58250197E+01</totfact>
</mgrwt>
</event>
<event>
12    6  0.1586493E-007  0.1907622E+04  0.7818608E-02  0.8651072E-01
         -1   -1    0    0    0  501 -0.00000000000E+00  0.00000000000E+00  0.50137148891E+03  0.50137148891E+03  0.00000000000E+00 0.  1.
          2   -1    0    0  501    0  0.00000000000E+00 -0.00000000000E+00 -0.18145337256E+04  0.18145337256E+04  0.00000000000E+00 0. -1.
         24    2    1    2    0    0 -0.35834745346E+03 -0.14791515461E+03 -0.13114944826E+04  0.13694865503E+04  0.71998911806E+02 0.  0.
        254    2    1    2    0    0  0.35834745346E+03  0.14791515461E+03 -0.16677541342E+01  0.94641866422E+03  0.86337345119E+03 0.  0.
         23    2    4    4    0    0  0.46780643661E+03 -0.81734926921E+02 -0.27997549024E+03  0.55851213190E+03  0.89588313557E+02 0.  0.
         23    2    4    4    0    0 -0.10945898316E+03  0.22965008153E+03  0.27830773610E+03  0.38790653232E+03  0.91081572775E+02 0.  0.
          4    1    3    3  502    0 -0.23107588541E+03 -0.11144432116E+03 -0.96624462511E+03  0.99972224998E+03  0.00000000000E+00 0. -1.
         -3    1    3    3    0  502 -0.12727156805E+03 -0.36470833456E+02 -0.34524985744E+03  0.36976430032E+03  0.00000000000E+00 0.  1.
         11    1    5    5    0    0  0.69861552242E+02  0.20617796470E+01 -0.10538725861E+02  0.70682049771E+02  0.00000000000E+00 0. -1.
        -11    1    5    5    0    0  0.39794488437E+03 -0.83796706568E+02 -0.26943676438E+03  0.48783008213E+03  0.00000000000E+00 0.  1.
          4    1    6    6  503    0 -0.60053401492E+02  0.48245341702E+02  0.48667433736E+02  0.91118291979E+02  0.00000000000E+00 0. -1.
         -4    1    6    6    0  503 -0.49405581665E+02  0.18140473983E+03  0.22964030237E+03  0.29678824034E+03  0.00000000000E+00 0.  1.
<mgrwt>
<rscale>  0 0.19076221E+04</rscale>
<asrwt>0</asrwt>
<pdfrwt beam="1">  1        2 0.27915904E+00 0.19076221E+04</pdfrwt>
<pdfrwt beam="2">  1       -1 0.77134074E-01 0.19076221E+04</pdfrwt>
<totfact> 0.15216607E+01</totfact>
</mgrwt>
</event>
<event>
12    6  0.1586493E-007  0.1503580E+04  0.7818608E-02  0.8882076E-01
         -1   -1    0    0    0  501 -0.00000000000E+00  0.00000000000E+00  0.75332302649E+03  0.75332302649E+03  0.00000000000E+00 0.  1.
          2   -1    0    0  501    0  0.00000000000E+00 -0.00000000000E+00 -0.75026044572E+03  0.75026044572E+03  0.00000000000E+00 0. -1.
         24    2    1    2    0    0  0.98977178917E+02  0.28593626318E+03  0.37327537485E+03  0.48696488366E+03  0.79020654925E+02 0.  0.
        254    2    1    2    0    0 -0.98977178917E+02 -0.28593626318E+03 -0.37021279408E+03  0.10166185885E+04  0.89716208855E+03 0.  0.
         23    2    4    4    0    0 -0.10666836731E+03  0.29084624673E+03 -0.27055759272E+03  0.42374555039E+03  0.10192742851E+03 0.  0.
         23    2    4    4    0    0  0.76911883947E+01 -0.57678250991E+03 -0.99655201364E+02  0.59287303815E+03  0.93968410095E+02 0.  0.
          2    1    3    3  502    0 -0.10661856495E+02  0.64371907159E+02  0.86429503950E+02  0.10829347519E+03  0.00000000000E+00 0. -1.
         -1    1    3    3    0  502  0.10963903541E+03  0.22156435602E+03  0.28684587090E+03  0.37867140848E+03  0.00000000000E+00 0.  1.
         11    1    5    5    0    0  0.45009275802E+01  0.11381859101E+03 -0.67969487138E+02  0.13264532103E+03  0.00000000000E+00 0. -1.
        -11    1    5    5    0    0 -0.11116929489E+03  0.17702765571E+03 -0.20258810558E+03  0.29110022936E+03  0.00000000000E+00 0.  1.
          1    1    6    6  503    0 -0.43246001250E+02 -0.25587957995E+03 -0.42633591216E+02  0.26298707033E+03  0.00000000000E+00 0. -1.
         -1    1    6    6    0  503  0.50937189645E+02 -0.32090292995E+03 -0.57021610148E+02  0.32988596782E+03  0.00000000000E+00 0.  1.
<mgrwt>
<rscale>  0 0.15035804E+04</rscale>
<asrwt>0</asrwt>
<pdfrwt beam="1">  1        2 0.11542468E+00 0.15035804E+04</pdfrwt>
<pdfrwt beam="2">  1       -1 0.11589585E+00 0.15035804E+04</pdfrwt>
<totfact> 0.27863190E+01</totfact>
</mgrwt>
</event>
<event>
12    6  0.1586493E-007  0.1861587E+04  0.7818608E-02  0.8674217E-01
          2   -1    0    0  501    0  0.00000000000E+00  0.00000000000E+00  0.15010097164E+04  0.15010097164E+04  0.00000000000E+00 0. -1.
         -1   -1    0    0    0  501 -0.00000000000E+00 -0.00000000000E+00 -0.57719553213E+03  0.57719553213E+03  0.00000000000E+00 0.  1.
         24    2    1    2    0    0  0.14637146816E+03  0.36670805022E+03  0.10086470548E+04  0.10860037791E+04  0.78332153403E+02 0.  0.
        254    2    1    2    0    0 -0.14637146816E+03 -0.36670805022E+03 -0.84832870571E+02  0.99220146939E+03  0.90629340676E+03 0.  0.
         23    2    4    4    0    0  0.26476097435E+03  0.14576232247E+03  0.40647227836E+02  0.31830331163E+03  0.91212789005E+02 0.  0.
         23    2    4    4    0    0 -0.41113244251E+03 -0.51247037269E+03 -0.12548009841E+03  0.67389815776E+03  0.82083516995E+02 0.  0.
          4    1    3    3  502    0  0.86949196903E+02  0.16072119672E+03  0.55370143713E+03  0.58307525021E+03  0.00000000000E+00 0. -1.
         -3    1    3    3    0  502  0.59422271260E+02  0.20598685350E+03  0.45494561771E+03  0.50292852893E+03  0.00000000000E+00 0.  1.
         11    1    5    5    0    0  0.60927635432E+01  0.14616070153E+02 -0.16327439873E+02  0.22745033900E+02  0.00000000000E+00 0.  1.
        -11    1    5    5    0    0  0.25866821081E+03  0.13114625231E+03  0.56974667709E+02  0.29555827774E+03  0.00000000000E+00 0. -1.
          1    1    6    6  503    0 -0.36309308420E+03 -0.42010865003E+03 -0.12769550908E+03  0.56976662649E+03  0.00000000000E+00 0. -1.
         -1    1    6    6    0  503 -0.48039358315E+02 -0.92361722662E+02  0.22154106691E+01  0.10413153127E+03  0.00000000000E+00 0.  1.
<mgrwt>
<rscale>  0 0.18615865E+04</rscale>
<asrwt>0</asrwt>
<pdfrwt beam="1">  1        2 0.23092457E+00 0.18615865E+04</pdfrwt>
<pdfrwt beam="2">  1       -1 0.88799313E-01 0.18615865E+04</pdfrwt>
<totfact> 0.16884773E+01</totfact>
</mgrwt>
</event>
<event>
12    6  0.1586493E-007  0.2173150E+04  0.7818608E-02  0.8529687E-01
          2   -1    0    0  501    0  0.00000000000E+00  0.00000000000E+00  0.25235338700E+04  0.25235338700E+04  0.00000000000E+00 0. -1.
         -1   -1    0    0    0  501 -0.00000000000E+00 -0.00000000000E+00 -0.46785393769E+03  0.46785393769E+03  0.00000000000E+00 0.  1.
         24    2    1    2    0    0  0.79562736098E+02  0.11715954408E+03 -0.36781057007E+03  0.40185037387E+03  0.78374229084E+02 0.  0.
        254    2    1    2    0    0 -0.79562736098E+02 -0.11715954408E+03  0.24234905024E+04  0.25895374338E+04  0.90129979377E+03 0.  0.
         23    2    4    4    0    0 -0.83130830873E+02 -0.39717840912E+03  0.21425726889E+04  0.21821338473E+04  0.80180900028E+02 0.  0.
         23    2    4    4    0    0  0.35680947753E+01  0.28001886504E+03  0.28091781355E+03  0.40740358655E+03  0.92949278031E+02 0.  0.
          2    1    3    3  502    0  0.46962693400E+02  0.10360072890E+02 -0.82908673661E+02  0.95847137932E+02  0.00000000000E+00 0. -1.
         -1    1    3    3    0  502  0.32600042698E+02  0.10679947119E+03 -0.28490189641E+03  0.30600323594E+03  0.00000000000E+00 0.  1.
         11    1    5    5    0    0 -0.35888376138E+02 -0.85955452678E+02  0.35279821062E+03  0.36488750705E+03  0.00000000000E+00 0. -1.
        -11    1    5    5    0    0 -0.47242454735E+02 -0.31122295644E+03  0.17897744783E+04  0.18172463402E+04  0.00000000000E+00 0.  1.
          1    1    6    6  503    0  0.25083200435E+02  0.16506308487E+02  0.20945119388E+02  0.36610424610E+02  0.00000000000E+00 0. -1.
         -1    1    6    6    0  503 -0.21515105660E+02  0.26351255655E+03  0.25997269416E+03  0.37079316194E+03  0.00000000000E+00 0.  1.
<mgrwt>
<rscale>  0 0.21731500E+04</rscale>
<asrwt>0</asrwt>
<pdfrwt beam="1">  1        2 0.38823597E+00 0.21731500E+04</pdfrwt>
<pdfrwt beam="2">  1       -1 0.71977530E-01 0.21731500E+04</pdfrwt>
<totfact> 0.68511463E+00</totfact>
</mgrwt>
</event>
<event>
12    6  0.1586493E-007  0.2097878E+04  0.7818608E-02  0.8562179E-01
          2   -1    0    0  501    0  0.00000000000E+00  0.00000000000E+00  0.24708420306E+04  0.24708420306E+04  0.00000000000E+00 0. -1.
         -1   -1    0    0    0  501 -0.00000000000E+00 -0.00000000000E+00 -0.44530275327E+03  0.44530275327E+03  0.00000000000E+00 0.  1.
         24    2    1    2    0    0 -0.73635144246E+02 -0.44678048499E+03 -0.17674814089E+03  0.49253767656E+03  0.79489126904E+02 0.  0.
        254    2    1    2    0    0  0.73635144246E+02  0.44678048499E+03  0.22022874182E+04  0.24236071073E+04  0.90485722735E+03 0.  0.
         23    2    4    4    0    0  0.85962511083E+02  0.57939892296E+03  0.72030510536E+03  0.93282827870E+03  0.90755096283E+02 0.  0.
         23    2    4    4    0    0 -0.12327366837E+02 -0.13261843797E+03  0.14819823128E+04  0.14907788286E+04  0.91707830228E+02 0.  0.
          2    1    3    3  502    0  0.11200455987E+02 -0.16685943751E+03 -0.63470948905E+02  0.17887449079E+03  0.00000000000E+00 0. -1.
         -1    1    3    3    0  502 -0.84835600233E+02 -0.27992104748E+03 -0.11327719198E+03  0.31366318577E+03  0.00000000000E+00 0.  1.
         11    1    5    5    0    0  0.42472101603E+02  0.13977906377E+03  0.23371224619E+03  0.27561473129E+03  0.00000000000E+00 0.  1.
        -11    1    5    5    0    0  0.43490409480E+02  0.43961985919E+03  0.48659285917E+03  0.65721354741E+03  0.00000000000E+00 0. -1.
          3    1    6    6  503    0 -0.21192662394E+02 -0.14475638431E+03  0.13708787935E+04  0.13786631953E+04  0.00000000000E+00 0. -1.
         -3    1    6    6    0  503  0.88652955575E+01  0.12137946339E+02  0.11110351936E+03  0.11211563325E+03  0.00000000000E+00 0.  1.
<mgrwt>
<rscale>  0 0.20978777E+04</rscale>
<asrwt>0</asrwt>
<pdfrwt beam="1">  1        2 0.38012954E+00 0.20978777E+04</pdfrwt>
<pdfrwt beam="2">  1       -1 0.68508117E-01 0.20978777E+04</pdfrwt>
<totfact> 0.81896053E+00</totfact>
</mgrwt>
</event>
<event>
12    6  0.1586493E-007  0.1551429E+04  0.7818608E-02  0.8850955E-01
          4   -1    0    0  501    0  0.00000000000E+00  0.00000000000E+00  0.23487295534E+04  0.23487295534E+04  0.00000000000E+00 0. -1.
         -3   -1    0    0    0  501 -0.00000000000E+00 -0.00000000000E+00 -0.25619513764E+03  0.25619513764E+03  0.00000000000E+00 0.  1.
         24    2    1    2    0    0  0.39358474213E+03  0.44197428269E+02  0.17103923072E+03  0.43869706690E+03  0.79613668160E+02 0.  0.
        254    2    1    2    0    0 -0.39358474213E+03 -0.44197428269E+02  0.19214951850E+04  0.21662276241E+04  0.91844216559E+03 0.  0.
         23    2    4    4    0    0 -0.30920696765E+03 -0.20468030166E+03  0.19215647332E+04  0.19591237907E+04  0.90840677927E+02 0.  0.
         23    2    4    4    0    0 -0.84377774475E+02  0.16048287340E+03 -0.69548197972E-01  0.20710383338E+03  0.10008811859E+03 0.  0.
          4    1    3    3  502    0  0.13117406006E+03  0.50825088776E+02  0.46543154511E+02  0.14817587157E+03  0.00000000000E+00 0. -1.
         -3    1    3    3    0  502  0.26241068207E+03 -0.66276605072E+01  0.12449607621E+03  0.29052119533E+03  0.00000000000E+00 0.  1.
         11    1    5    5    0    0 -0.38796834489E+01 -0.21148244386E+02  0.58974857722E+02  0.62772080001E+02  0.00000000000E+00 0. -1.
        -11    1    5    5    0    0 -0.30532728421E+03 -0.18353205728E+03  0.18625898755E+04  0.18963517107E+04  0.00000000000E+00 0.  1.
          3    1    6    6  503    0 -0.28839669278E+02  0.76972623264E+02 -0.48807799012E+02  0.95596613437E+02  0.00000000000E+00 0. -1.
         -3    1    6    6    0  503 -0.55538105198E+02  0.83510250131E+02  0.48738250814E+02  0.11150721994E+03  0.00000000000E+00 0.  1.
<mgrwt>
<rscale>  0 0.15514291E+04</rscale>
<asrwt>0</asrwt>
<pdfrwt beam="1">  1        4 0.36134299E+00 0.15514291E+04</pdfrwt>
<pdfrwt beam="2">  1       -3 0.39414638E-01 0.15514291E+04</pdfrwt>
<totfact> 0.17758828E-01</totfact>
</mgrwt>
</event>
<event>
12    6  0.1586493E-007  0.2189384E+04  0.7818608E-02  0.8522860E-01
          2   -1    0    0  501    0  0.00000000000E+00  0.00000000000E+00  0.17346500239E+04  0.17346500239E+04  0.00000000000E+00 0. -1.
         -1   -1    0    0    0  501 -0.00000000000E+00 -0.00000000000E+00 -0.69083123490E+03  0.69083123490E+03  0.00000000000E+00 0.  1.
         24    2    1    2    0    0  0.39979190046E+02  0.44552864262E+03 -0.43818819974E+03  0.63171524623E+03  0.83433487889E+02 0.  0.
        254    2    1    2    0    0 -0.39979190046E+02 -0.44552864262E+03  0.14820069888E+04  0.17937660126E+04  0.90617751360E+03 0.  0.
         23    2    4    4    0    0 -0.11254187720E+03 -0.55073666258E+03  0.15268794681E+04  0.16298177738E+04  0.94702269840E+02 0.  0.
         23    2    4    4    0    0  0.72562687158E+02  0.10520801997E+03 -0.44872479339E+02  0.16394823883E+03  0.92365656939E+02 0.  0.
          2    1    3    3  502    0  0.29673386847E+02  0.55023986477E+02 -0.81615142292E+02  0.10280651938E+03  0.00000000000E+00 0. -1.
         -1    1    3    3    0  502  0.10305803199E+02  0.39050465614E+03 -0.35657305745E+03  0.52890872686E+03  0.00000000000E+00 0.  1.
         11    1    5    5    0    0 -0.97073975539E+02 -0.49562856932E+03  0.14379150225E+04  0.15240310520E+04  0.00000000000E+00 0.  1.
        -11    1    5    5    0    0 -0.15467901665E+02 -0.55108093260E+02  0.88964445615E+02  0.10578672180E+03  0.00000000000E+00 0. -1.
          4    1    6    6  503    0  0.25069198427E+01 -0.12132786733E+02  0.10747119539E+02  0.16400906664E+02  0.00000000000E+00 0. -1.
         -4    1    6    6    0  503  0.70055767315E+02  0.11734080670E+03 -0.55619598878E+02  0.14754733217E+03  0.00000000000E+00 0.  1.
<mgrwt>
<rscale>  0 0.21893839E+04</rscale>
<asrwt>0</asrwt>
<pdfrwt beam="1">  1        2 0.26686923E+00 0.21893839E+04</pdfrwt>
<pdfrwt beam="2">  1       -1 0.10628173E+00 0.21893839E+04</pdfrwt>
<totfact> 0.80870919E+00</totfact>
</mgrwt>
</event>
<event>
12    6  0.1586493E-007  0.1310822E+04  0.7818608E-02  0.9021027E-01
          2   -1    0    0  501    0  0.00000000000E+00  0.00000000000E+00  0.58378584482E+03  0.58378584482E+03  0.00000000000E+00 0. -1.
         -1   -1    0    0    0  501 -0.00000000000E+00 -0.00000000000E+00 -0.73582378073E+03  0.73582378073E+03  0.00000000000E+00 0.  1.
         24    2    1    2    0    0  0.33119902638E+03  0.70089413915E+00  0.22123460634E+02  0.34180915406E+03  0.81552216136E+02 0.  0.
        254    2    1    2    0    0 -0.33119902638E+03 -0.70089413915E+00 -0.17416139654E+03  0.97780047149E+03  0.90336497811E+03 0.  0.
         23    2    4    4    0    0  0.28231546056E+03  0.12074969379E+03  0.53043067823E+01  0.32061179615E+03  0.92093867010E+02 0.  0.
         23    2    4    4    0    0 -0.61351448694E+03 -0.12145058793E+03 -0.17946570332E+03  0.65718867534E+03  0.92405331756E+02 0.  0.
          2    1    3    3  502    0  0.29410824507E+03  0.21940098537E+02  0.28900721780E+01  0.29493962138E+03  0.00000000000E+00 0. -1.
         -1    1    3    3    0  502  0.37090781311E+02 -0.21239204398E+02  0.19233388456E+02  0.46869532675E+02  0.00000000000E+00 0.  1.
         11    1    5    5    0    0  0.16060798163E+02 -0.13748091841E+02 -0.63884445572E+01  0.22085549366E+02  0.00000000000E+00 0.  1.
        -11    1    5    5    0    0  0.26625466239E+03  0.13449778563E+03  0.11692751339E+02  0.29852624678E+03  0.00000000000E+00 0. -1.
          4    1    6    6  503    0 -0.31165060281E+03 -0.34804276872E+02 -0.12909883390E+03  0.33912231544E+03  0.00000000000E+00 0. -1.
         -4    1    6    6    0  503 -0.30186388413E+03 -0.86646311053E+02 -0.50366869421E+02  0.31806635990E+03  0.00000000000E+00 0.  1.
<mgrwt>
<rscale>  0 0.13108219E+04</rscale>
<asrwt>0</asrwt>
<pdfrwt beam="1">  1        2 0.89813207E-01 0.13108219E+04</pdfrwt>
<pdfrwt beam="2">  1       -1 0.11320366E+00 0.13108219E+04</pdfrwt>
<totfact> 0.40924110E+01</totfact>
</mgrwt>
</event>
<event>
12    6  0.1586493E-007  0.1551119E+04  0.7818608E-02  0.8851154E-01
          2   -1    0    0  501    0  0.00000000000E+00  0.00000000000E+00  0.21008926051E+04  0.21008926051E+04  0.00000000000E+00 0. -1.
         -1   -1    0    0    0  501 -0.00000000000E+00 -0.00000000000E+00 -0.28630317887E+03  0.28630317887E+03  0.00000000000E+00 0.  1.
         24    2    1    2    0    0  0.74462185491E+02  0.33079025233E+03  0.18099586763E+02  0.34891820830E+03  0.80308859649E+02 0.  0.
        254    2    1    2    0    0 -0.74462185491E+02 -0.33079025233E+03  0.17964898394E+04  0.20382775756E+04  0.90123965962E+03 0.  0.
         23    2    4    4    0    0  0.12020521416E+03  0.27178101003E+03  0.74799522071E+03  0.81001739162E+03  0.91198210471E+02 0.  0.
         23    2    4    4    0    0 -0.19466739965E+03 -0.60257126237E+03  0.10484946187E+04  0.12282601840E+04  0.91074647668E+02 0.  0.
          2    1    3    3  502    0 -0.12031487824E+02  0.14457042078E+02 -0.68702885230E+01  0.20024076241E+02  0.00000000000E+00 0. -1.
         -3    1    3    3    0  502  0.86493673315E+02  0.31633321026E+03  0.24969875286E+02  0.32889413206E+03  0.00000000000E+00 0.  1.
         11    1    5    5    0    0  0.20050022276E+02  0.15399589519E+03  0.34318537777E+03  0.37668679648E+03  0.00000000000E+00 0. -1.
        -11    1    5    5    0    0  0.10015519189E+03  0.11778511484E+03  0.40480984295E+03  0.43333059514E+03  0.00000000000E+00 0.  1.
          2    1    6    6  503    0 -0.10998787054E+03 -0.40286104754E+03  0.61298070644E+03  0.74171402963E+03  0.00000000000E+00 0. -1.
         -2    1    6    6    0  503 -0.84679529110E+02 -0.19971021483E+03  0.43551391229E+03  0.48654615439E+03  0.00000000000E+00 0.  1.
<mgrwt>
<rscale>  0 0.15511186E+04</rscale>
<asrwt>0</asrwt>
<pdfrwt beam="1">  1        2 0.32321424E+00 0.15511186E+04</pdfrwt>
<pdfrwt beam="2">  1       -1 0.44046644E-01 0.15511186E+04</pdfrwt>
<totfact> 0.32814642E+01</totfact>
</mgrwt>
</event>
<event>
12    6  0.1586493E-007  0.2074448E+04  0.7818608E-02  0.8572584E-01
          2   -1    0    0  501    0  0.00000000000E+00  0.00000000000E+00  0.23583884746E+04  0.23583884746E+04  0.00000000000E+00 0. -1.
         -1   -1    0    0    0  501 -0.00000000000E+00 -0.00000000000E+00 -0.45617317126E+03  0.45617317126E+03  0.00000000000E+00 0.  1.
         24    2    1    2    0    0 -0.46542519960E+03 -0.61242121702E+03  0.11557481869E+04  0.13906236675E+04  0.79999685060E+02 0.  0.
        254    2    1    2    0    0  0.46542519960E+03  0.61242121702E+03  0.74646711644E+03  0.14239379784E+04  0.93739311221E+03 0.  0.
         23    2    4    4    0    0  0.41944994708E+03 -0.10822199211E+03  0.46719449726E+03  0.64367259542E+03  0.91615796345E+02 0.  0.
         23    2    4    4    0    0  0.45975252519E+02  0.72064320913E+03  0.27927261918E+03  0.78026538294E+03  0.96853049987E+02 0.  0.
          4    1    3    3  502    0 -0.28892751263E+03 -0.40468886834E+03  0.68153585160E+03  0.84364880414E+03  0.00000000000E+00 0. -1.
         -3    1    3    3    0  502 -0.17649768697E+03 -0.20773234867E+03  0.47421233533E+03  0.54697486338E+03  0.00000000000E+00 0.  1.
         11    1    5    5    0    0  0.38082806200E+03 -0.91122591081E+02  0.37461488137E+03  0.54191295312E+03  0.00000000000E+00 0.  1.
        -11    1    5    5    0    0  0.38621885075E+02 -0.17099401031E+02  0.92579615887E+02  0.10175964230E+03  0.00000000000E+00 0. -1.
          4    1    6    6  503    0  0.65876872492E+02  0.57016926567E+03  0.19224839948E+03  0.60530339578E+03  0.00000000000E+00 0. -1.
         -4    1    6    6    0  503 -0.19901619973E+02  0.15047394346E+03  0.87024219697E+02  0.17496198716E+03  0.00000000000E+00 0.  1.
<mgrwt>
<rscale>  0 0.20744479E+04</rscale>
<asrwt>0</asrwt>
<pdfrwt beam="1">  1        2 0.36282899E+00 0.20744479E+04</pdfrwt>
<pdfrwt beam="2">  1       -1 0.70180489E-01 0.20744479E+04</pdfrwt>
<totfact> 0.90607791E+00</totfact>
</mgrwt>
</event>
<event>
12    6  0.1586493E-007  0.1799837E+04  0.7818608E-02  0.8706386E-01
          2   -1    0    0  501    0  0.00000000000E+00  0.00000000000E+00  0.96159105569E+03  0.96159105569E+03  0.00000000000E+00 0. -1.
         -1   -1    0    0    0  501 -0.00000000000E+00 -0.00000000000E+00 -0.84220092966E+03  0.84220092966E+03  0.00000000000E+00 0.  1.
         24    2    1    2    0    0 -0.73678998174E+01 -0.32984299603E+03 -0.53367890876E+03  0.63251814091E+03  0.80095773569E+02 0.  0.
        254    2    1    2    0    0  0.73678998174E+01  0.32984299603E+03  0.65306903479E+03  0.11712738444E+04  0.91462154276E+03 0.  0.
         23    2    4    4    0    0  0.15972382288E+03 -0.25652301553E+03  0.39824579492E+03  0.50795090546E+03  0.89992511345E+02 0.  0.
         23    2    4    4    0    0 -0.15235592306E+03  0.58636601156E+03  0.25482323987E+03  0.66332293898E+03  0.89582425649E+02 0.  0.
          2    1    3    3  502    0 -0.36597722104E+02 -0.14970693771E+03 -0.28583737250E+03  0.32473768487E+03  0.00000000000E+00 0. -1.
         -1    1    3    3    0  502  0.29229822286E+02 -0.18013605833E+03 -0.24784153626E+03  0.30778045604E+03  0.00000000000E+00 0.  1.
         11    1    5    5    0    0  0.15650408413E+03 -0.23832429918E+03  0.39784959074E+03  0.48946531724E+03  0.00000000000E+00 0. -1.
        -11    1    5    5    0    0  0.32197387516E+01 -0.18198716346E+02  0.39620418301E+00  0.18485588225E+02  0.00000000000E+00 0.  1.
          4    1    6    6  503    0 -0.72663905701E+02  0.43148742209E+03  0.19627033145E+03  0.47956593043E+03  0.00000000000E+00 0. -1.
         -4    1    6    6    0  503 -0.79692017362E+02  0.15487858947E+03  0.58552908420E+02  0.18375700855E+03  0.00000000000E+00 0.  1.
<mgrwt>
<rscale>  0 0.17998365E+04</rscale>
<asrwt>0</asrwt>
<pdfrwt beam="1">  1        2 0.14793709E+00 0.17998365E+04</pdfrwt>
<pdfrwt beam="2">  1       -1 0.12956937E+00 0.17998365E+04</pdfrwt>
<totfact> 0.14698183E+01</totfact>
</mgrwt>
</event>
<event>
12    6  0.1586493E-007  0.1415299E+04  0.7818608E-02  0.8942818E-01
          2   -1    0    0  501    0  0.00000000000E+00  0.00000000000E+00  0.22390398913E+04  0.22390398913E+04  0.00000000000E+00 0. -1.
         -1   -1    0    0    0  501 -0.00000000000E+00 -0.00000000000E+00 -0.22365299785E+03  0.22365299785E+03  0.00000000000E+00 0.  1.
         24    2    1    2    0    0 -0.26640743641E+03  0.20388210942E+03  0.17251748159E+03  0.38518481646E+03  0.77873131846E+02 0.  0.
        254    2    1    2    0    0  0.26640743641E+03 -0.20388210942E+03  0.18428694119E+04  0.20775080727E+04  0.89851615801E+03 0.  0.
         23    2    4    4    0    0  0.33049641783E+03  0.29186654794E+03  0.88430129450E+03  0.99243919435E+03  0.92373215957E+02 0.  0.
         23    2    4    4    0    0 -0.64088981423E+02 -0.49574865735E+03  0.95856811740E+03  0.10850688784E+04  0.92991969097E+02 0.  0.
          4    1    3    3  502    0 -0.73488860283E+02  0.10339774701E+03  0.61631610771E+02  0.14103248604E+03  0.00000000000E+00 0. -1.
         -1    1    3    3    0  502 -0.19291857612E+03  0.10048436241E+03  0.11088587082E+03  0.24415233042E+03  0.00000000000E+00 0.  1.
         11    1    5    5    0    0  0.17641701614E+03  0.16741165742E+03  0.58495208855E+03  0.63349709749E+03  0.00000000000E+00 0. -1.
        -11    1    5    5    0    0  0.15407940169E+03  0.12445489051E+03  0.29934920594E+03  0.35894209686E+03  0.00000000000E+00 0.  1.
          1    1    6    6  503    0 -0.59390434879E+02 -0.35701199096E+03  0.60178778433E+03  0.70223452123E+03  0.00000000000E+00 0. -1.
         -1    1    6    6    0  503 -0.46985465436E+01 -0.13873666639E+03  0.35678033308E+03  0.38283435715E+03  0.00000000000E+00 0.  1.
<mgrwt>
<rscale>  0 0.14152992E+04</rscale>
<asrwt>0</asrwt>
<pdfrwt beam="1">  1        2 0.34446766E+00 0.14152992E+04</pdfrwt>
<pdfrwt beam="2">  1       -1 0.34408155E-01 0.14152992E+04</pdfrwt>
<totfact> 0.43562749E+01</totfact>
</mgrwt>
</event>
<event>
12    6  0.1586493E-007  0.2514159E+04  0.7818608E-02  0.8397959E-01
          2   -1    0    0  501    0  0.00000000000E+00  0.00000000000E+00  0.13886881545E+04  0.13886881545E+04  0.00000000000E+00 0. -1.
         -1   -1    0    0    0  501 -0.00000000000E+00 -0.00000000000E+00 -0.11379438538E+04  0.11379438538E+04  0.00000000000E+00 0.  1.
         24    2    1    2    0    0  0.34387919527E+03 -0.88280826226E+03 -0.52153329467E+03  0.10838066369E+04  0.70968443369E+02 0.  0.
        254    2    1    2    0    0 -0.34387919527E+03  0.88280826226E+03  0.77227759538E+03  0.14428253715E+04  0.76663488007E+03 0.  0.
         23    2    4    4    0    0 -0.48711773015E+03  0.89533535863E+03  0.54709569066E+03  0.11603104782E+04  0.89986797575E+02 0.  0.
         23    2    4    4    0    0  0.14323853488E+03 -0.12527096369E+02  0.22518190472E+03  0.28251489322E+03  0.91834463346E+02 0.  0.
          4    1    3    3  502    0  0.17292461619E+02 -0.30559642190E+02 -0.61036828054E+01  0.35639527262E+02  0.00000000000E+00 0. -1.
         -3    1    3    3    0  502  0.32658673365E+03 -0.85224862007E+03 -0.51542961187E+03  0.10481671097E+04  0.00000000000E+00 0.  1.
         11    1    5    5    0    0 -0.16183595238E+02  0.11271255907E+02  0.21283640554E+02  0.29016259576E+02  0.00000000000E+00 0.  1.
        -11    1    5    5    0    0 -0.47093413491E+03  0.88406410272E+03  0.52581205010E+03  0.11312942187E+04  0.00000000000E+00 0. -1.
          3    1    6    6  503    0  0.24063774118E+02 -0.40959690167E+02  0.73754681065E+02  0.87729780704E+02  0.00000000000E+00 0. -1.
         -3    1    6    6    0  503  0.11917476076E+03  0.28432593798E+02  0.15142722365E+03  0.19478511251E+03  0.00000000000E+00 0.  1.
<mgrwt>
<rscale>  0 0.25141592E+04</rscale>
<asrwt>0</asrwt>
<pdfrwt beam="1">  1        2 0.21364433E+00 0.25141592E+04</pdfrwt>
<pdfrwt beam="2">  1       -1 0.17506828E+00 0.25141592E+04</pdfrwt>
<totfact> 0.33681059E+00</totfact>
</mgrwt>
</event>
<event>
12    6  0.1586493E-007  0.1533937E+04  0.7818608E-02  0.8862193E-01
         -1   -1    0    0    0  501 -0.00000000000E+00  0.00000000000E+00  0.20411003159E+03  0.20411003159E+03  0.00000000000E+00 0.  1.
          2   -1    0    0  501    0  0.00000000000E+00 -0.00000000000E+00 -0.28819795433E+04  0.28819795433E+04  0.00000000000E+00 0. -1.
         24    2    1    2    0    0  0.40483481772E+03  0.25897134458E+03 -0.92766905515E+03  0.10478933892E+04  0.80952408120E+02 0.  0.
        254    2    1    2    0    0 -0.40483481772E+03 -0.25897134458E+03 -0.17502004566E+04  0.20381961856E+04  0.92740749734E+03 0.  0.
         23    2    4    4    0    0 -0.27882653095E+02 -0.38127212517E+03 -0.21036157254E+03  0.44556699533E+03  0.90178048032E+02 0.  0.
         23    2    4    4    0    0 -0.37695216462E+03  0.12230078059E+03 -0.15398388840E+04  0.15926291903E+04  0.91178581989E+02 0.  0.
          4    1    3    3  502    0  0.19779299702E+03  0.11303034542E+03 -0.35647535570E+03  0.42305154281E+03  0.00000000000E+00 0. -1.
         -3    1    3    3    0  502  0.20704182069E+03  0.14594099916E+03 -0.57119369945E+03  0.62484184642E+03  0.00000000000E+00 0.  1.
         11    1    5    5    0    0 -0.34981703313E+01 -0.26051671964E+03 -0.18565722542E+03  0.31992155876E+03  0.00000000000E+00 0. -1.
        -11    1    5    5    0    0 -0.24384482763E+02 -0.12075540552E+03 -0.24704347127E+02  0.12564543657E+03  0.00000000000E+00 0.  1.
          3    1    6    6  503    0 -0.29389355180E+03  0.10929245368E+03 -0.10570707761E+04  0.11025955224E+04  0.00000000000E+00 0. -1.
         -3    1    6    6    0  503 -0.83058612819E+02  0.13008326916E+02 -0.48276810789E+03  0.49003366795E+03  0.00000000000E+00 0.  1.
<mgrwt>
<rscale>  0 0.15339373E+04</rscale>
<asrwt>0</asrwt>
<pdfrwt beam="1">  1        2 0.44338144E+00 0.15339373E+04</pdfrwt>
<pdfrwt beam="2">  1       -1 0.31401545E-01 0.15339373E+04</pdfrwt>
<totfact> 0.21414233E+01</totfact>
</mgrwt>
</event>
<event>
12    6  0.1586493E-007  0.1284459E+04  0.7818608E-02  0.9041981E-01
         -1   -1    0    0    0  501 -0.00000000000E+00  0.00000000000E+00  0.24058935049E+03  0.24058935049E+03  0.00000000000E+00 0.  1.
          2   -1    0    0  501    0  0.00000000000E+00 -0.00000000000E+00 -0.17143675263E+04  0.17143675263E+04  0.00000000000E+00 0. -1.
         24    2    1    2    0    0  0.18580412221E+03  0.23379893183E+03 -0.15210560256E+03  0.34480722274E+03  0.81060435317E+02 0.  0.
        254    2    1    2    0    0 -0.18580412221E+03 -0.23379893183E+03 -0.13216725733E+04  0.16101496541E+04  0.86981515575E+03 0.  0.
         23    2    4    4    0    0 -0.46925380567E+03 -0.23367563612E+03 -0.11497207496E+04  0.12664228815E+04  0.84650314398E+02 0.  0.
         23    2    4    4    0    0  0.28344968346E+03 -0.12329570950E+00 -0.17195182368E+03  0.34372677254E+03  0.90757513401E+02 0.  0.
          4    1    3    3  502    0 -0.66723797277E+01  0.12084824695E+02 -0.16166750559E+02  0.21258585625E+02  0.00000000000E+00 0. -1.
         -3    1    3    3    0  502  0.19247650193E+03  0.22171410713E+03 -0.13593885200E+03  0.32354863712E+03  0.00000000000E+00 0.  1.
         11    1    5    5    0    0 -0.90825951652E+02 -0.75072315159E+02 -0.31462265991E+03  0.33596521267E+03  0.00000000000E+00 0.  1.
        -11    1    5    5    0    0 -0.37842785402E+03 -0.15860332096E+03 -0.83509808970E+03  0.93045766885E+03  0.00000000000E+00 0. -1.
          3    1    6    6  503    0  0.19071890203E+03  0.25334456948E+00 -0.16241835714E+03  0.25050646002E+03  0.00000000000E+00 0. -1.
         -3    1    6    6    0  503  0.92730781434E+02 -0.37664027897E+00 -0.95334665416E+01  0.93220312526E+02  0.00000000000E+00 0.  1.
<mgrwt>
<rscale>  0 0.12844587E+04</rscale>
<asrwt>0</asrwt>
<pdfrwt beam="1">  1        2 0.26374886E+00 0.12844587E+04</pdfrwt>
<pdfrwt beam="2">  1       -1 0.37013745E-01 0.12844587E+04</pdfrwt>
<totfact> 0.75499821E+01</totfact>
</mgrwt>
</event>
<event>
12    6  0.1586493E-007  0.2501278E+04  0.7818608E-02  0.8402530E-01
         -1   -1    0    0    0  501 -0.00000000000E+00  0.00000000000E+00  0.78353051720E+03  0.78353051720E+03  0.00000000000E+00 0.  1.
          2   -1    0    0  501    0  0.00000000000E+00 -0.00000000000E+00 -0.19962179515E+04  0.19962179515E+04  0.00000000000E+00 0. -1.
         24    2    1    2    0    0  0.10398806321E+04 -0.33001994074E+03 -0.46129900999E+03  0.11872391469E+04  0.80468161250E+02 0.  0.
        254    2    1    2    0    0 -0.10398806321E+04  0.33001994074E+03 -0.75138842426E+03  0.15925093218E+04  0.88387583144E+03 0.  0.
         23    2    4    4    0    0 -0.58940706546E+03  0.15619070205E+03  0.84982468171E+02  0.62249488565E+03  0.92095811733E+02 0.  0.
         23    2    4    4    0    0 -0.45047356666E+03  0.17382923869E+03 -0.83637089243E+03  0.97001443610E+03  0.90932381775E+02 0.  0.
          4    1    3    3  502    0  0.40391323470E+03 -0.15288817418E+03 -0.14838630520E+03  0.45666091418E+03  0.00000000000E+00 0. -1.
         -3    1    3    3    0  502  0.63596739743E+03 -0.17713176656E+03 -0.31291270479E+03  0.73057823273E+03  0.00000000000E+00 0.  1.
         11    1    5    5    0    0 -0.48544698413E+03  0.15571950749E+03  0.47646680471E+02  0.51203275830E+03  0.00000000000E+00 0. -1.
        -11    1    5    5    0    0 -0.10396008133E+03  0.47119456076E+00  0.37335787700E+02  0.11046212734E+03  0.00000000000E+00 0.  1.
          2    1    6    6  503    0 -0.19241596124E+03  0.36719418107E+02 -0.39116000715E+03  0.43746813484E+03  0.00000000000E+00 0. -1.
         -2    1    6    6    0  503 -0.25805760542E+03  0.13710982058E+03 -0.44521088529E+03  0.53254630127E+03  0.00000000000E+00 0.  1.
<mgrwt>
<rscale>  0 0.25012778E+04</rscale>
<asrwt>0</asrwt>
<pdfrwt beam="1">  1        2 0.30711046E+00 0.25012778E+04</pdfrwt>
<pdfrwt beam="2">  1       -1 0.12054316E+00 0.25012778E+04</pdfrwt>
<totfact> 0.41709047E+00</totfact>
</mgrwt>
</event>
<event>
12    6  0.1586493E-007  0.1847079E+04  0.7818608E-02  0.8681657E-01
         -1   -1    0    0    0  501 -0.00000000000E+00  0.00000000000E+00  0.32697031384E+03  0.32697031384E+03  0.00000000000E+00 0.  1.
          2   -1    0    0  501    0  0.00000000000E+00 -0.00000000000E+00 -0.26085696899E+04  0.26085696899E+04  0.00000000000E+00 0. -1.
         24    2    1    2    0    0 -0.59057456788E+03 -0.35787409667E+03 -0.10989393737E+04  0.13003649231E+04  0.80181025878E+02 0.  0.
        254    2    1    2    0    0  0.59057456788E+03  0.35787409667E+03 -0.11826600024E+04  0.16351750807E+04  0.89345434904E+03 0.  0.
         23    2    4    4    0    0  0.61642126598E+03  0.17805062358E+03 -0.12607864327E+04  0.14174914526E+04  0.89567782395E+02 0.  0.
         23    2    4    4    0    0 -0.25846698102E+02  0.17982347309E+03  0.78126430306E+02  0.21768362803E+03  0.90982907873E+02 0.  0.
          2    1    3    3  502    0 -0.11997955080E+03 -0.77329461552E+02 -0.17087433869E+03  0.22264989975E+03  0.00000000000E+00 0. -1.
         -1    1    3    3    0  502 -0.47059501708E+03 -0.28054463512E+03 -0.92806503496E+03  0.10777150233E+04  0.00000000000E+00 0.  1.
         11    1    5    5    0    0  0.45226124347E+02  0.19800486582E+02 -0.55030804102E+02  0.73931393822E+02  0.00000000000E+00 0. -1.
        -11    1    5    5    0    0  0.57119514163E+03  0.15825013700E+03 -0.12057556286E+04  0.13435600588E+04  0.00000000000E+00 0.  1.
          4    1    6    6  503    0  0.10418893856E+02  0.15072930859E+03  0.36865502867E+02  0.15552151979E+03  0.00000000000E+00 0.  1.
         -4    1    6    6    0  503 -0.36265591958E+02  0.29094164501E+02  0.41260927439E+02  0.62162108242E+02  0.00000000000E+00 0. -1.
<mgrwt>
<rscale>  0 0.18470786E+04</rscale>
<asrwt>0</asrwt>
<pdfrwt beam="1">  1        2 0.40131841E+00 0.18470786E+04</pdfrwt>
<pdfrwt beam="2">  1       -1 0.50303126E-01 0.18470786E+04</pdfrwt>
<totfact> 0.12798686E+01</totfact>
</mgrwt>
</event>
<event>
12    6  0.1586493E-007  0.1194278E+04  0.7818608E-02  0.9117879E-01
          4   -1    0    0  501    0  0.00000000000E+00  0.00000000000E+00  0.11982560821E+04  0.11982560821E+04  0.00000000000E+00 0. -1.
         -3   -1    0    0    0  501 -0.00000000000E+00 -0.00000000000E+00 -0.29757847747E+03  0.29757847747E+03  0.00000000000E+00 0.  1.
         24    2    1    2    0    0 -0.59970666520E+02  0.19948149058E+03  0.36374381570E+03  0.42672509932E+03  0.79971251119E+02 0.  0.
        254    2    1    2    0    0  0.59970666520E+02 -0.19948149058E+03  0.53693378895E+03  0.10691094603E+04  0.90072626164E+03 0.  0.
         23    2    4    4    0    0 -0.15551780725E+03  0.95918960233E+01 -0.19850742876E+03  0.26800937132E+03  0.90255365487E+02 0.  0.
         23    2    4    4    0    0  0.21548847377E+03 -0.20907338660E+03  0.73544121771E+03  0.80110008895E+03  0.10363688774E+03 0.  0.
          2    1    3    3  502    0 -0.44302498875E+02  0.86542303064E+02  0.23740970086E+03  0.25654560548E+03  0.00000000000E+00 0. -1.
         -3    1    3    3    0  502 -0.15668167645E+02  0.11293918751E+03  0.12633411484E+03  0.17017949385E+03  0.00000000000E+00 0.  1.
         11    1    5    5    0    0 -0.30668500461E+02  0.12878142822E+02 -0.11004232142E+03  0.11495962763E+03  0.00000000000E+00 0. -1.
        -11    1    5    5    0    0 -0.12484930679E+03 -0.32862467982E+01 -0.88465107345E+02  0.15304974368E+03  0.00000000000E+00 0.  1.
          3    1    6    6  503    0  0.87331460024E+02 -0.13387698774E+03  0.47599652395E+03  0.50211803649E+03  0.00000000000E+00 0. -1.
         -3    1    6    6    0  503  0.12815701375E+03 -0.75196398856E+02  0.25944469376E+03  0.29898205246E+03  0.00000000000E+00 0.  1.
<mgrwt>
<rscale>  0 0.11942784E+04</rscale>
<asrwt>0</asrwt>
<pdfrwt beam="1">  1        4 0.18434709E+00 0.11942784E+04</pdfrwt>
<pdfrwt beam="2">  1       -3 0.45781305E-01 0.11942784E+04</pdfrwt>
<totfact> 0.17963940E+00</totfact>
</mgrwt>
</event>
<event>
12    6  0.1586493E-007  0.1799195E+04  0.7818608E-02  0.8706728E-01
         -1   -1    0    0    0  501 -0.00000000000E+00  0.00000000000E+00  0.60699583145E+03  0.60699583145E+03  0.00000000000E+00 0.  1.
          2   -1    0    0  501    0  0.00000000000E+00 -0.00000000000E+00 -0.13332474057E+04  0.13332474057E+04  0.00000000000E+00 0. -1.
         24    2    1    2    0    0 -0.23252817945E+03 -0.37674779664E+03 -0.82320785622E+03  0.93809258607E+03  0.79613246266E+02 0.  0.
        254    2    1    2    0    0  0.23252817945E+03  0.37674779664E+03  0.96956281975E+02  0.10021506511E+04  0.89381046667E+03 0.  0.
         23    2    4    4    0    0  0.42771114114E+03  0.56260863887E+03  0.55926475742E+02  0.71455959554E+03  0.89455822102E+02 0.  0.
         23    2    4    4    0    0 -0.19518296170E+03 -0.18586084223E+03  0.41029806233E+02  0.28759105553E+03  0.91567073839E+02 0.  0.
          4    1    3    3  502    0 -0.10518225914E+03 -0.17504764160E+03 -0.29807811392E+03  0.36132471057E+03  0.00000000000E+00 0. -1.
         -1    1    3    3    0  502 -0.12734592031E+03 -0.20170015504E+03 -0.52512974230E+03  0.57676787550E+03  0.00000000000E+00 0.  1.
         11    1    5    5    0    0  0.26543541503E+03  0.39324893295E+03  0.69993889855E+02  0.47958297242E+03  0.00000000000E+00 0.  1.
        -11    1    5    5    0    0  0.16227572612E+03  0.16935970591E+03 -0.14067414113E+02  0.23497662312E+03  0.00000000000E+00 0. -1.
          1    1    6    6  503    0 -0.56623650636E+02 -0.51238866655E+01  0.10489706713E+02  0.57814582701E+02  0.00000000000E+00 0. -1.
         -1    1    6    6    0  503 -0.13855931106E+03 -0.18073695556E+03  0.30540099520E+02  0.22977647283E+03  0.00000000000E+00 0.  1.
<mgrwt>
<rscale>  0 0.17991950E+04</rscale>
<asrwt>0</asrwt>
<pdfrwt beam="1">  1        2 0.20511499E+00 0.17991950E+04</pdfrwt>
<pdfrwt beam="2">  1       -1 0.93383974E-01 0.17991950E+04</pdfrwt>
<totfact> 0.18935848E+01</totfact>
</mgrwt>
</event>
<event>
12    6  0.1586493E-007  0.1868064E+04  0.7818608E-02  0.8670918E-01
         -1   -1    0    0    0  501 -0.00000000000E+00  0.00000000000E+00  0.10717195896E+04  0.10717195896E+04  0.00000000000E+00 0.  1.
          2   -1    0    0  501    0  0.00000000000E+00 -0.00000000000E+00 -0.81403389477E+03  0.81403389477E+03  0.00000000000E+00 0. -1.
         24    2    1    2    0    0  0.57974594723E+02 -0.31031984309E+03 -0.54515821013E+03  0.63495185382E+03  0.79416144068E+02 0.  0.
        254    2    1    2    0    0 -0.57974594723E+02  0.31031984309E+03  0.80284390495E+03  0.12508016305E+04  0.90569692755E+03 0.  0.
         23    2    4    4    0    0  0.22520068075E+03  0.38546360326E+03  0.82615840496E+03  0.94343214745E+03  0.90713674267E+02 0.  0.
         23    2    4    4    0    0 -0.28317527547E+03 -0.75143760168E+02 -0.23314500011E+02  0.30736948309E+03  0.89986731748E+02 0.  0.
          2    1    3    3  502    0 -0.94263460262E+01 -0.62109489668E+02 -0.15920558161E+03  0.17115157587E+03  0.00000000000E+00 0. -1.
         -1    1    3    3    0  502  0.67400940750E+02 -0.24821035342E+03 -0.38595262852E+03  0.46380027795E+03  0.00000000000E+00 0.  1.
         11    1    5    5    0    0  0.38423129248E+02  0.13853649459E+03  0.30628361520E+03  0.33834649419E+03  0.00000000000E+00 0. -1.
        -11    1    5    5    0    0  0.18677755150E+03  0.24692710867E+03  0.51987478977E+03  0.60508565326E+03  0.00000000000E+00 0.  1.
          1    1    6    6  503    0 -0.20209412993E+02 -0.21843291257E+02  0.19618406606E+02  0.35643114682E+02  0.00000000000E+00 0. -1.
         -1    1    6    6    0  503 -0.26296586248E+03 -0.53300468912E+02 -0.42932906617E+02  0.27172636841E+03  0.00000000000E+00 0.  1.
<mgrwt>
<rscale>  0 0.18680643E+04</rscale>
<asrwt>0</asrwt>
<pdfrwt beam="1">  1        2 0.12523598E+00 0.18680643E+04</pdfrwt>
<pdfrwt beam="2">  1       -1 0.16487994E+00 0.18680643E+04</pdfrwt>
<totfact> 0.96853561E+00</totfact>
</mgrwt>
</event>
<event>
12    6  0.1586493E-007  0.1762398E+04  0.7818608E-02  0.8726555E-01
         -1   -1    0    0    0  501 -0.00000000000E+00  0.00000000000E+00  0.68825694796E+03  0.68825694796E+03  0.00000000000E+00 0.  1.
          2   -1    0    0  501    0  0.00000000000E+00 -0.00000000000E+00 -0.11282295287E+04  0.11282295287E+04  0.00000000000E+00 0. -1.
         24    2    1    2    0    0  0.10745939550E+03 -0.30224815101E+02 -0.82616436730E+03  0.83747520761E+03  0.79725155570E+02 0.  0.
        254    2    1    2    0    0 -0.10745939550E+03  0.30224815101E+02  0.38619178657E+03  0.97901126904E+03  0.89266897995E+03 0.  0.
         23    2    4    4    0    0 -0.69126792518E+02 -0.40948735159E+03  0.74163463632E+02  0.43079695855E+03  0.87334962060E+02 0.  0.
         23    2    4    4    0    0 -0.38332602980E+02  0.43971216669E+03  0.31202832294E+03  0.54821431049E+03  0.91438929992E+02 0.  0.
          4    1    3    3  502    0  0.59152104829E+02 -0.17466291718E+02 -0.68421694277E+03  0.68699116998E+03  0.00000000000E+00 0. -1.
         -3    1    3    3    0  502  0.48307290670E+02 -0.12758523383E+02 -0.14194742453E+03  0.15048403763E+03  0.00000000000E+00 0.  1.
         11    1    5    5    0    0 -0.72627416162E+02 -0.26572696389E+03  0.16833113078E+02  0.27598716385E+03  0.00000000000E+00 0. -1.
        -11    1    5    5    0    0  0.35006236445E+01 -0.14376038770E+03  0.57330350554E+02  0.15480979469E+03  0.00000000000E+00 0.  1.
          2    1    6    6  503    0  0.21867975271E+02  0.84348371827E+02  0.87971480840E+02  0.12382179781E+03  0.00000000000E+00 0. -1.
         -2    1    6    6    0  503 -0.60200578252E+02  0.35536379487E+03  0.22405684210E+03  0.42439251268E+03  0.00000000000E+00 0.  1.
<mgrwt>
<rscale>  0 0.17623982E+04</rscale>
<asrwt>0</asrwt>
<pdfrwt beam="1">  1        2 0.17357377E+00 0.17623982E+04</pdfrwt>
<pdfrwt beam="2">  1       -1 0.10588568E+00 0.17623982E+04</pdfrwt>
<totfact> 0.18873855E+01</totfact>
</mgrwt>
</event>
<event>
12    6  0.1586493E-007  0.2430946E+04  0.7818608E-02  0.8428008E-01
          2   -1    0    0  501    0  0.00000000000E+00  0.00000000000E+00  0.24507890091E+04  0.24507890091E+04  0.00000000000E+00 0. -1.
         -1   -1    0    0    0  501 -0.00000000000E+00 -0.00000000000E+00 -0.60281606247E+03  0.60281606247E+03  0.00000000000E+00 0.  1.
         24    2    1    2    0    0 -0.21023080549E+03 -0.10267659093E+04  0.92740068291E+03  0.14017396442E+04  0.79729414719E+02 0.  0.
        254    2    1    2    0    0  0.21023080549E+03  0.10267659093E+04  0.92057226372E+03  0.16518654273E+04  0.88473774266E+03 0.  0.
         23    2    4    4    0    0  0.46867552124E+03  0.26352081048E+03  0.49240250402E+03  0.73491265697E+03  0.92392779210E+02 0.  0.
         23    2    4    4    0    0 -0.25844471574E+03  0.76324509878E+03  0.42816975971E+03  0.91695277036E+03  0.90201374944E+02 0.  0.
          2    1    3    3  502    0 -0.14302326576E+03 -0.58456017547E+03  0.57458310259E+03  0.83205287997E+03  0.00000000000E+00 0. -1.
         -1    1    3    3    0  502 -0.67207539737E+02 -0.44220573379E+03  0.35281758032E+03  0.56968676427E+03  0.00000000000E+00 0.  1.
         11    1    5    5    0    0  0.12510897587E+03  0.74864558750E+02  0.81425130842E+02  0.16699404161E+03  0.00000000000E+00 0.  1.
        -11    1    5    5    0    0  0.34356654536E+03  0.18865625173E+03  0.41097737318E+03  0.56791861536E+03  0.00000000000E+00 0. -1.
          1    1    6    6  503    0 -0.14057731624E+03  0.50642016896E+03  0.24238114392E+03  0.57876764621E+03  0.00000000000E+00 0. -1.
         -1    1    6    6    0  503 -0.11786739951E+03  0.25682492982E+03  0.18578861579E+03  0.33818512415E+03  0.00000000000E+00 0.  1.
<mgrwt>
<rscale>  0 0.24309463E+04</rscale>
<asrwt>0</asrwt>
<pdfrwt beam="1">  1        2 0.37704446E+00 0.24309463E+04</pdfrwt>
<pdfrwt beam="2">  1       -1 0.92740934E-01 0.24309463E+04</pdfrwt>
<totfact> 0.42851042E+00</totfact>
</mgrwt>
</event>
<event>
12    6  0.1586493E-007  0.1226821E+04  0.7818608E-02  0.9089699E-01
          2   -1    0    0  501    0  0.00000000000E+00  0.00000000000E+00  0.59270021755E+03  0.59270021755E+03  0.00000000000E+00 0. -1.
         -1   -1    0    0    0  501 -0.00000000000E+00 -0.00000000000E+00 -0.63484433811E+03  0.63484433811E+03  0.00000000000E+00 0.  1.
         24    2    1    2    0    0 -0.24081257248E+03 -0.12930936012E+03 -0.33188358039E+02  0.28653679041E+03  0.79311156004E+02 0.  0.
        254    2    1    2    0    0  0.24081257248E+03  0.12930936012E+03 -0.89557625189E+01  0.94100776526E+03  0.90039091672E+03 0.  0.
         23    2    4    4    0    0  0.40971214145E+03  0.34578149844E+03 -0.21577282715E+03  0.58514526462E+03  0.91696151786E+02 0.  0.
         23    2    4    4    0    0 -0.16889956897E+03 -0.21647213832E+03  0.20681706464E+03  0.35586250064E+03  0.92073720842E+02 0.  0.
          4    1    3    3  502    0 -0.11109783770E+02 -0.73168604014E+01  0.17066418032E+02  0.21638538906E+02  0.00000000000E+00 0. -1.
         -1    1    3    3    0  502 -0.22970278871E+03 -0.12199249972E+03 -0.50254776070E+02  0.26489825150E+03  0.00000000000E+00 0.  1.
         11    1    5    5    0    0  0.38778710746E+03  0.30158816231E+03 -0.21381996233E+03  0.53577349379E+03  0.00000000000E+00 0. -1.
        -11    1    5    5    0    0  0.21925033992E+02  0.44193336129E+02 -0.19528648246E+01  0.49371770829E+02  0.00000000000E+00 0.  1.
          2    1    6    6  503    0 -0.15777041210E+03 -0.14235275874E+03  0.17118312890E+03  0.27287263416E+03  0.00000000000E+00 0. -1.
         -2    1    6    6    0  503 -0.11129156869E+02 -0.74119379576E+02  0.35633935736E+02  0.82989866474E+02  0.00000000000E+00 0.  1.
<mgrwt>
<rscale>  0 0.12268209E+04</rscale>
<asrwt>0</asrwt>
<pdfrwt beam="1">  1        2 0.91184649E-01 0.12268209E+04</pdfrwt>
<pdfrwt beam="2">  1       -1 0.97668359E-01 0.12268209E+04</pdfrwt>
<totfact> 0.57026483E+01</totfact>
</mgrwt>
</event>
<event>
12    6  0.1586493E-007  0.1419336E+04  0.7818608E-02  0.8939940E-01
         -1   -1    0    0    0  501 -0.00000000000E+00  0.00000000000E+00  0.12868993353E+04  0.12868993353E+04  0.00000000000E+00 0.  1.
          2   -1    0    0  501    0  0.00000000000E+00 -0.00000000000E+00 -0.39135055473E+03  0.39135055473E+03  0.00000000000E+00 0. -1.
         24    2    1    2    0    0 -0.52950203479E+02  0.16221170080E+03 -0.19293934132E+03  0.26428534263E+03  0.59201291987E+02 0.  0.
        254    2    1    2    0    0  0.52950203479E+02 -0.16221170080E+03  0.10884881219E+04  0.14139645474E+04  0.88621272272E+03 0.  0.
         23    2    4    4    0    0  0.40900766029E+03 -0.23212454612E+03  0.83292857345E+03  0.96088013063E+03  0.91386792737E+02 0.  0.
         23    2    4    4    0    0 -0.35605745681E+03  0.69912845322E+02  0.25555954843E+03  0.45308441677E+03  0.91159680963E+02 0.  0.
          4    1    3    3  502    0 -0.27563317387E+02  0.13489773194E+03 -0.12118629380E+03  0.18342097032E+03  0.00000000000E+00 0. -1.
         -3    1    3    3    0  502 -0.25386886091E+02  0.27313968866E+02 -0.71753047524E+02  0.80864372314E+02  0.00000000000E+00 0.  1.
         11    1    5    5    0    0  0.21941604980E+03 -0.74147041675E+02  0.42913463739E+03  0.48764507965E+03  0.00000000000E+00 0. -1.
        -11    1    5    5    0    0  0.18959161049E+03 -0.15797750445E+03  0.40379393606E+03  0.47323505098E+03  0.00000000000E+00 0.  1.
          2    1    6    6  503    0 -0.35430842764E+03  0.56443097150E+02  0.23662167211E+03  0.42977913028E+03  0.00000000000E+00 0. -1.
         -2    1    6    6    0  503 -0.17490291737E+01  0.13469748173E+02  0.18937876322E+02  0.23305286492E+02  0.00000000000E+00 0.  1.
<mgrwt>
<rscale>  0 0.14193361E+04</rscale>
<asrwt>0</asrwt>
<pdfrwt beam="1">  1        2 0.60207778E-01 0.14193361E+04</pdfrwt>
<pdfrwt beam="2">  1       -1 0.19798451E+00 0.14193361E+04</pdfrwt>
<totfact> 0.14087015E+01</totfact>
</mgrwt>
</event>
<event>
12    6  0.1586493E-007  0.1219189E+04  0.7818608E-02  0.9096224E-01
          2   -1    0    0  501    0  0.00000000000E+00  0.00000000000E+00  0.95855924051E+03  0.95855924051E+03  0.00000000000E+00 0. -1.
         -1   -1    0    0    0  501 -0.00000000000E+00 -0.00000000000E+00 -0.38767090386E+03  0.38767090386E+03  0.00000000000E+00 0.  1.
         24    2    1    2    0    0 -0.44763515010E+02 -0.12035527563E+03 -0.13655886385E+03  0.20165195537E+03  0.74337225946E+02 0.  0.
        254    2    1    2    0    0  0.44763515010E+02  0.12035527563E+03  0.70744720050E+03  0.11445781890E+04  0.89055517774E+03 0.  0.
         23    2    4    4    0    0  0.43396053349E+03 -0.25271476256E+02  0.21330534387E+03  0.49304585299E+03  0.92922824364E+02 0.  0.
         23    2    4    4    0    0 -0.38919701848E+03  0.14562675188E+03  0.49414185663E+03  0.65153233601E+03  0.87388445088E+02 0.  0.
          4    1    3    3  502    0  0.82118227246E+01 -0.66775955995E+02 -0.36956505783E+02  0.76760964372E+02  0.00000000000E+00 0. -1.
         -1    1    3    3    0  502 -0.52975337735E+02 -0.53579319632E+02 -0.99602358064E+02  0.12489099100E+03  0.00000000000E+00 0.  1.
         11    1    5    5    0    0  0.13775441467E+03 -0.42991625587E+02  0.41471831714E+02  0.15014816501E+03  0.00000000000E+00 0.  1.
        -11    1    5    5    0    0  0.29620611883E+03  0.17720149331E+02  0.17183351216E+03  0.34289768798E+03  0.00000000000E+00 0. -1.
          1    1    6    6  503    0 -0.38190632714E+03  0.15240510553E+03  0.46496015603E+03  0.62069936813E+03  0.00000000000E+00 0. -1.
         -1    1    6    6    0  503 -0.72906913445E+01 -0.67783536512E+01  0.29181700599E+02  0.30832967881E+02  0.00000000000E+00 0.  1.
<mgrwt>
<rscale>  0 0.12191891E+04</rscale>
<asrwt>0</asrwt>
<pdfrwt beam="1">  1        2 0.14747065E+00 0.12191891E+04</pdfrwt>
<pdfrwt beam="2">  1       -1 0.59641678E-01 0.12191891E+04</pdfrwt>
<totfact> 0.85884789E+01</totfact>
</mgrwt>
</event>
<event>
12    6  0.1586493E-007  0.1611195E+04  0.7818608E-02  0.8813700E-01
         -1   -1    0    0    0  501 -0.00000000000E+00  0.00000000000E+00  0.13357656492E+03  0.13357656492E+03  0.00000000000E+00 0.  1.
          2   -1    0    0  501    0  0.00000000000E+00 -0.00000000000E+00 -0.48585408179E+04  0.48585408179E+04  0.00000000000E+00 0. -1.
         24    2    1    2    0    0  0.28588448205E+03 -0.19059706666E+03 -0.29737006199E+04  0.29951927782E+04  0.10112973078E+03 0.  0.
        254    2    1    2    0    0 -0.28588448205E+03  0.19059706666E+03 -0.17512636330E+04  0.19969246046E+04  0.89594999044E+03 0.  0.
         23    2    4    4    0    0  0.61244138720E+02  0.37783140613E+03 -0.31397586298E+03  0.50343848895E+03  0.91444265194E+02 0.  0.
         23    2    4    4    0    0 -0.34712862077E+03 -0.18723433947E+03 -0.14372877700E+04  0.14934861157E+04  0.95653889597E+02 0.  0.
          2    1    3    3  502    0  0.64445597410E+02 -0.79679374001E+02 -0.11858069715E+04  0.11902269579E+04  0.00000000000E+00 0. -1.
         -1    1    3    3    0  502  0.22143888464E+03 -0.11091769266E+03 -0.17878936484E+04  0.18049658202E+04  0.00000000000E+00 0.  1.
         11    1    5    5    0    0  0.39230316351E+02  0.32459957708E+03 -0.30094691692E+03  0.44437928616E+03  0.00000000000E+00 0. -1.
        -11    1    5    5    0    0  0.22013822369E+02  0.53231829051E+02 -0.13028946062E+02  0.59059202796E+02  0.00000000000E+00 0.  1.
          4    1    6    6  503    0 -0.97004781375E+02 -0.93073815539E+02 -0.58641020796E+03  0.60162246862E+03  0.00000000000E+00 0. -1.
         -4    1    6    6    0  503 -0.25012383939E+03 -0.94160523933E+02 -0.85087756209E+03  0.89186364707E+03  0.00000000000E+00 0.  1.
<mgrwt>
<rscale>  0 0.16111948E+04</rscale>
<asrwt>0</asrwt>
<pdfrwt beam="1">  1        2 0.74746781E+00 0.16111948E+04</pdfrwt>
<pdfrwt beam="2">  1       -1 0.20550241E-01 0.16111948E+04</pdfrwt>
<totfact> 0.11311884E+00</totfact>
</mgrwt>
</event>
<event>
12    6  0.1586493E-007  0.1808399E+04  0.7818608E-02  0.8701846E-01
          2   -1    0    0  501    0  0.00000000000E+00  0.00000000000E+00  0.16432976016E+04  0.16432976016E+04  0.00000000000E+00 0. -1.
         -1   -1    0    0    0  501 -0.00000000000E+00 -0.00000000000E+00 -0.49752196039E+03  0.49752196039E+03  0.00000000000E+00 0.  1.
         24    2    1    2    0    0 -0.37535270934E+03  0.54383866082E+03  0.60722801914E+03  0.90084611322E+03  0.78407315117E+02 0.  0.
        254    2    1    2    0    0  0.37535270934E+03 -0.54383866082E+03  0.53854762210E+03  0.12399734488E+04  0.90047235774E+03 0.  0.
         23    2    4    4    0    0  0.58621362144E+02  0.10533754550E+03  0.48739746747E+03  0.51034282417E+03  0.91438746114E+02 0.  0.
         23    2    4    4    0    0  0.31673134719E+03 -0.64917620631E+03  0.51150154633E+02  0.72963062464E+03  0.89420450409E+02 0.  0.
          2    1    3    3  502    0 -0.21317212325E+03  0.32286045011E+03  0.30354430208E+03  0.49175234387E+03  0.00000000000E+00 0. -1.
         -3    1    3    3    0  502 -0.16218058609E+03  0.22097821070E+03  0.30368371707E+03  0.40909376935E+03  0.00000000000E+00 0.  1.
         11    1    5    5    0    0  0.55183545385E+02  0.47633410209E+02  0.39260060700E+03  0.39931115945E+03  0.00000000000E+00 0.  1.
        -11    1    5    5    0    0  0.34378167595E+01  0.57704135288E+02  0.94796860471E+02  0.11103166471E+03  0.00000000000E+00 0. -1.
          1    1    6    6  503    0  0.42523820349E+02 -0.11858591393E+03  0.40322862278E+02  0.13227557410E+03  0.00000000000E+00 0. -1.
         -1    1    6    6    0  503  0.27420752684E+03 -0.53059029238E+03  0.10827292355E+02  0.59735505054E+03  0.00000000000E+00 0.  1.
<mgrwt>
<rscale>  0 0.18083989E+04</rscale>
<asrwt>0</asrwt>
<pdfrwt beam="1">  1        2 0.25281501E+00 0.18083989E+04</pdfrwt>
<pdfrwt beam="2">  1       -1 0.76541841E-01 0.18083989E+04</pdfrwt>
<totfact> 0.19418191E+01</totfact>
</mgrwt>
</event>
<event>
12    6  0.1586493E-007  0.3974798E+04  0.7818608E-02  0.8009650E-01
         -1   -1    0    0    0  501 -0.00000000000E+00  0.00000000000E+00  0.10663043928E+04  0.10663043928E+04  0.00000000000E+00 0.  1.
          2   -1    0    0  501    0  0.00000000000E+00 -0.00000000000E+00 -0.37041525999E+04  0.37041525999E+04  0.00000000000E+00 0. -1.
         24    2    1    2    0    0  0.56680556599E+03 -0.41968056000E+03  0.84674937522E+03  0.11044589176E+04  0.73788035215E+02 0.  0.
        254    2    1    2    0    0 -0.56680556599E+03  0.41968056000E+03 -0.34845975823E+04  0.36659980752E+04  0.89427135386E+03 0.  0.
         23    2    4    4    0    0  0.14557772630E+03  0.36955595778E+03 -0.15195614179E+04  0.15732175558E+04  0.90454933166E+02 0.  0.
         23    2    4    4    0    0 -0.71238329230E+03  0.50124602222E+02 -0.19650361644E+04  0.20927805193E+04  0.91437102264E+02 0.  0.
          2    1    3    3  502    0  0.15868252874E+02 -0.19358735456E+02  0.13937555288E+02  0.28649913353E+02  0.00000000000E+00 0. -1.
         -1    1    3    3    0  502  0.55093731312E+03 -0.40032182454E+03  0.83281181993E+03  0.10758090042E+04  0.00000000000E+00 0.  1.
         11    1    5    5    0    0  0.66541986528E+02  0.27443667400E+03 -0.99688233269E+03  0.10361069970E+04  0.00000000000E+00 0. -1.
        -11    1    5    5    0    0  0.79035739776E+02  0.95119283779E+02 -0.52267908520E+03  0.53711055883E+03  0.00000000000E+00 0.  1.
          3    1    6    6  503    0 -0.45291221775E+03  0.75800886815E+02 -0.12450624558E+04  0.13270477649E+04  0.00000000000E+00 0. -1.
         -3    1    6    6    0  503 -0.25947107455E+03 -0.25676284594E+02 -0.71997370864E+03  0.76573275446E+03  0.00000000000E+00 0.  1.
<mgrwt>
<rscale>  0 0.39747977E+04</rscale>
<asrwt>0</asrwt>
<pdfrwt beam="1">  1        2 0.56986963E+00 0.39747977E+04</pdfrwt>
<pdfrwt beam="2">  1       -1 0.16404683E+00 0.39747977E+04</pdfrwt>
<totfact> 0.14126529E-01</totfact>
</mgrwt>
</event>
<event>
12    6  0.1586493E-007  0.1375925E+04  0.7818608E-02  0.8971432E-01
          2   -1    0    0  501    0  0.00000000000E+00  0.00000000000E+00  0.22739713496E+04  0.22739713496E+04  0.00000000000E+00 0. -1.
         -1   -1    0    0    0  501 -0.00000000000E+00 -0.00000000000E+00 -0.20813460188E+03  0.20813460188E+03  0.00000000000E+00 0.  1.
         24    2    1    2    0    0 -0.24036491598E+03  0.93736026914E+02  0.10414643239E+04  0.10757598849E+04  0.77779538170E+02 0.  0.
        254    2    1    2    0    0  0.24036491598E+03 -0.93736026914E+02  0.10243724239E+04  0.14063460665E+04  0.92839036002E+03 0.  0.
         23    2    4    4    0    0  0.10500014741E+03 -0.49885089061E+03  0.64308535652E+03  0.82645079482E+03  0.97902494722E+02 0.  0.
         23    2    4    4    0    0  0.13536476858E+03  0.40511486370E+03  0.38128706733E+03  0.57989527173E+03  0.91962085108E+02 0.  0.
          2    1    3    3  502    0 -0.24261880239E+03  0.99811446654E+02  0.10024200077E+04  0.10361814899E+04  0.00000000000E+00 0. -1.
         -1    1    3    3    0  502  0.22538864026E+01 -0.60754197397E+01  0.39044316146E+02  0.39578395018E+02  0.00000000000E+00 0.  1.
         11    1    5    5    0    0 -0.36395574410E+01  0.34551422001E+01  0.43958659385E+01  0.66714333796E+01  0.00000000000E+00 0.  1.
        -11    1    5    5    0    0  0.10863970485E+03 -0.50230603281E+03  0.63868949058E+03  0.81977936144E+03  0.00000000000E+00 0. -1.
          2    1    6    6  503    0  0.76267046998E+02  0.30813329116E+03  0.23632216234E+03  0.39574101631E+03  0.00000000000E+00 0. -1.
         -2    1    6    6    0  503  0.59097721579E+02  0.96981572532E+02  0.14496490500E+03  0.18415425541E+03  0.00000000000E+00 0.  1.
<mgrwt>
<rscale>  0 0.13759246E+04</rscale>
<asrwt>0</asrwt>
<pdfrwt beam="1">  1        2 0.34984173E+00 0.13759246E+04</pdfrwt>
<pdfrwt beam="2">  1       -1 0.32020710E-01 0.13759246E+04</pdfrwt>
<totfact> 0.47471767E+01</totfact>
</mgrwt>
</event>
<event>
12    6  0.1586493E-007  0.2866533E+04  0.7818608E-02  0.8282905E-01
         -1   -1    0    0    0  501 -0.00000000000E+00  0.00000000000E+00  0.46460227126E+03  0.46460227126E+03  0.00000000000E+00 0.  1.
          2   -1    0    0  501    0  0.00000000000E+00 -0.00000000000E+00 -0.44215298314E+04  0.44215298314E+04  0.00000000000E+00 0. -1.
         24    2    1    2    0    0 -0.67278114220E+03 -0.67673527103E+02  0.92352906638E+02  0.68706365264E+03  0.79455848324E+02 0.  0.
        254    2    1    2    0    0  0.67278114220E+03  0.67673527103E+02 -0.40492804668E+04  0.41990684500E+04  0.88220710598E+03 0.  0.
         23    2    4    4    0    0 -0.72030835226E+02  0.97533522692E+02 -0.21716286625E+04  0.21768513696E+04  0.89496414645E+02 0.  0.
         23    2    4    4    0    0  0.74481197743E+03 -0.29859995589E+02 -0.18776518043E+04  0.20222170804E+04  0.90272483314E+02 0.  0.
          4    1    3    3  502    0 -0.13752103555E+03 -0.28292500929E+02  0.48606488265E+02  0.14857688760E+03  0.00000000000E+00 0. -1.
         -3    1    3    3    0  502 -0.53526010665E+03 -0.39381026174E+02  0.43746418373E+02  0.53848676504E+03  0.00000000000E+00 0.  1.
         11    1    5    5    0    0 -0.13243386130E+02  0.87958926550E+02 -0.14757662496E+04  0.14784445149E+04  0.00000000000E+00 0.  1.
        -11    1    5    5    0    0 -0.58787449096E+02  0.95745961422E+01 -0.69586241286E+03  0.69840685470E+03  0.00000000000E+00 0. -1.
          3    1    6    6  503    0  0.59459994843E+03  0.11745496042E+02 -0.15094647274E+04  0.16223966280E+04  0.00000000000E+00 0. -1.
         -3    1    6    6    0  503  0.15021202900E+03 -0.41605491631E+02 -0.36818707689E+03  0.39982045242E+03  0.00000000000E+00 0.  1.
<mgrwt>
<rscale>  0 0.28665330E+04</rscale>
<asrwt>0</asrwt>
<pdfrwt beam="1">  1        2 0.68023537E+00 0.28665330E+04</pdfrwt>
<pdfrwt beam="2">  1       -1 0.71477271E-01 0.28665330E+04</pdfrwt>
<totfact> 0.28487088E-01</totfact>
</mgrwt>
</event>
<event>
12    6  0.1586493E-007  0.1539878E+04  0.7818608E-02  0.8858359E-01
         -3   -1    0    0    0  501 -0.00000000000E+00  0.00000000000E+00  0.50525423473E+03  0.50525423473E+03  0.00000000000E+00 0.  1.
          2   -1    0    0  501    0  0.00000000000E+00 -0.00000000000E+00 -0.11732825554E+04  0.11732825554E+04  0.00000000000E+00 0. -1.
         24    2    1    2    0    0  0.14786633946E+03  0.33117130485E+03 -0.56057945886E+03  0.67233724102E+03  0.79051555722E+02 0.  0.
        254    2    1    2    0    0 -0.14786633946E+03 -0.33117130485E+03 -0.10744886181E+03  0.10061995491E+04  0.93239122005E+03 0.  0.
         23    2    4    4    0    0  0.77860125230E+02  0.28706986356E+03  0.70532275209E+02  0.31865619245E+03  0.89975893861E+02 0.  0.
         23    2    4    4    0    0 -0.22572646469E+03 -0.61824116840E+03 -0.17798113702E+03  0.68754335666E+03  0.88679213943E+02 0.  0.
          4    1    3    3  502    0  0.49410585280E+02  0.16722667528E+03 -0.32579933190E+03  0.36952858013E+03  0.00000000000E+00 0. -1.
         -3    1    3    3    0  502  0.98455754183E+02  0.16394462956E+03 -0.23478012696E+03  0.30280866089E+03  0.00000000000E+00 0.  1.
         11    1    5    5    0    0 -0.19421157331E+02  0.55895836937E+02  0.47495826625E+01  0.59363999819E+02  0.00000000000E+00 0.  1.
        -11    1    5    5    0    0  0.97281282560E+02  0.23117402662E+03  0.65782692547E+02  0.25929219263E+03  0.00000000000E+00 0. -1.
          3    1    6    6  503    0 -0.16885285406E+03 -0.33500722203E+03 -0.10531458332E+03  0.38965662653E+03  0.00000000000E+00 0. -1.
         -3    1    6    6    0  503 -0.56873610633E+02 -0.28323394638E+03 -0.72666553700E+02  0.29788673014E+03  0.00000000000E+00 0.  1.
<mgrwt>
<rscale>  0 0.15398779E+04</rscale>
<asrwt>0</asrwt>
<pdfrwt beam="1">  1        2 0.18050500E+00 0.15398779E+04</pdfrwt>
<pdfrwt beam="2">  1       -3 0.77731423E-01 0.15398779E+04</pdfrwt>
<totfact> 0.18674957E+01</totfact>
</mgrwt>
</event>
<event>
12    6  0.1586493E-007  0.1472519E+04  0.7818608E-02  0.8902936E-01
          2   -1    0    0  501    0  0.00000000000E+00  0.00000000000E+00  0.18587529902E+04  0.18587529902E+04  0.00000000000E+00 0. -1.
         -1   -1    0    0    0  501 -0.00000000000E+00 -0.00000000000E+00 -0.29163539151E+03  0.29163539151E+03  0.00000000000E+00 0.  1.
         24    2    1    2    0    0  0.56878909735E+02 -0.39137897881E+03  0.82947480006E+03  0.92244915846E+03  0.80444332176E+02 0.  0.
        254    2    1    2    0    0 -0.56878909735E+02  0.39137897881E+03  0.73764279863E+03  0.12279392232E+04  0.89850159833E+03 0.  0.
         23    2    4    4    0    0  0.39671642428E+03  0.25575888856E+03  0.24559929246E+03  0.53894551799E+03  0.85713059305E+02 0.  0.
         23    2    4    4    0    0 -0.45359533402E+03  0.13562009025E+03  0.49204350617E+03  0.68899370525E+03  0.91999880426E+02 0.  0.
          4    1    3    3  502    0  0.55756267823E+02 -0.39508281068E+03  0.82566730826E+03  0.91702000666E+03  0.00000000000E+00 0. -1.
         -3    1    3    3    0  502  0.11226419117E+01  0.37038318709E+01  0.38074918066E+01  0.54291517981E+01  0.00000000000E+00 0.  1.
         11    1    5    5    0    0  0.51199646008E+02  0.36157582724E+01  0.17760045098E+02  0.54312951136E+02  0.00000000000E+00 0. -1.
        -11    1    5    5    0    0  0.34551677827E+03  0.25214313028E+03  0.22783924737E+03  0.48463256686E+03  0.00000000000E+00 0.  1.
          2    1    6    6  503    0 -0.20629517446E+02 -0.64026090311E+01  0.52845551735E+01  0.22237286611E+02  0.00000000000E+00 0. -1.
         -2    1    6    6    0  503 -0.43296581657E+03  0.14202269928E+03  0.48675895099E+03  0.66675641864E+03  0.00000000000E+00 0.  1.
<mgrwt>
<rscale>  0 0.14725191E+04</rscale>
<asrwt>0</asrwt>
<pdfrwt beam="1">  1        2 0.28596199E+00 0.14725191E+04</pdfrwt>
<pdfrwt beam="2">  1       -1 0.44866984E-01 0.14725191E+04</pdfrwt>
<totfact> 0.43481036E+01</totfact>
</mgrwt>
</event>
<event>
12    6  0.1607238E-007  0.1729251E+04  0.7818608E-02  0.8744855E-01
          2   -1    0    0  501    0  0.00000000000E+00  0.00000000000E+00  0.22509271918E+04  0.22509271918E+04  0.00000000000E+00 0. -1.
         -1   -1    0    0    0  501 -0.00000000000E+00 -0.00000000000E+00 -0.33211982806E+03  0.33211982806E+03  0.00000000000E+00 0.  1.
         24    2    1    2    0    0 -0.10826825316E+03 -0.50982958289E+03  0.12270133594E+04  0.13354039187E+04  0.78061665746E+02 0.  0.
        254    2    1    2    0    0  0.10826825316E+03  0.50982958289E+03  0.69179400432E+03  0.12476431011E+04  0.89799005851E+03 0.  0.
         23    2    4    4    0    0  0.35758825051E+03  0.58262714472E+03  0.68503069902E+03  0.97223525425E+03  0.93008517613E+02 0.  0.
         23    2    4    4    0    0 -0.24931999735E+03 -0.72797561829E+02  0.67633053032E+01  0.27540784689E+03  0.91344368980E+02 0.  0.
          2    1    3    3  502    0 -0.78349559452E+02 -0.44273883585E+03  0.99109258824E+03  0.10883110073E+04  0.00000000000E+00 0. -1.
         -1    1    3    3    0  502 -0.29918693707E+02 -0.67090747046E+02  0.23592077116E+03  0.24709291134E+03  0.00000000000E+00 0.  1.
         11    1    5    5    0    0  0.33532942408E+03  0.49350297306E+03  0.61369693738E+03  0.85592928331E+03  0.00000000000E+00 0. -1.
        -11    1    5    5    0    0  0.22258826426E+02  0.89124171660E+02  0.71333761634E+02  0.11630597094E+03  0.00000000000E+00 0.  1.
          4    1    6    6  503    0  0.69685659882E+01 -0.86431656808E+01  0.10202658722E+01  0.11149267571E+02  0.00000000000E+00 0.  1.
         -4    1    6    6    0  503 -0.25628856334E+03 -0.64154396149E+02  0.57430394309E+01  0.26425857932E+03  0.00000000000E+00 0. -1.
<mgrwt>
<rscale>  0 0.17292513E+04</rscale>
<asrwt>0</asrwt>
<pdfrwt beam="1">  1        2 0.34629648E+00 0.17292513E+04</pdfrwt>
<pdfrwt beam="2">  1       -1 0.51095360E-01 0.17292513E+04</pdfrwt>
<totfact> 0.20135063E+01</totfact>
</mgrwt>
</event>
<event>
12    6  0.1586493E-007  0.1209798E+04  0.7818608E-02  0.9104324E-01
         -1   -1    0    0    0  501 -0.00000000000E+00  0.00000000000E+00  0.42543584725E+03  0.42543584725E+03  0.00000000000E+00 0.  1.
          2   -1    0    0  501    0  0.00000000000E+00 -0.00000000000E+00 -0.86006539902E+03  0.86006539902E+03  0.00000000000E+00 0. -1.
         24    2    1    2    0    0  0.15366548940E+03 -0.25757764368E+02 -0.35117135273E+03  0.39190121904E+03  0.77386700745E+02 0.  0.
        254    2    1    2    0    0 -0.15366548940E+03  0.25757764368E+02 -0.83458199035E+02  0.89360002723E+03  0.87594474291E+03 0.  0.
         23    2    4    4    0    0  0.19808755127E+03 -0.31783694788E+03  0.17809508280E+01  0.38614248655E+03  0.94041717990E+02 0.  0.
         23    2    4    4    0    0 -0.35175304067E+03  0.34359471225E+03 -0.85239149863E+02  0.50745754068E+03  0.91977796349E+02 0.  0.
          2    1    3    3  502    0  0.15121377911E+03 -0.41138911138E+02 -0.33255456460E+03  0.36762828433E+03  0.00000000000E+00 0. -1.
         -1    1    3    3    0  502  0.24517102842E+01  0.15381146769E+02 -0.18616788123E+02  0.24272934706E+02  0.00000000000E+00 0.  1.
         11    1    5    5    0    0  0.14892258992E+03 -0.22260681205E+03 -0.40613175614E+02  0.27088957269E+03  0.00000000000E+00 0.  1.
        -11    1    5    5    0    0  0.49164961355E+02 -0.95230135834E+02  0.42394126442E+02  0.11525291386E+03  0.00000000000E+00 0. -1.
          1    1    6    6  503    0 -0.79866339193E+02  0.59947950508E+02 -0.53444140126E+02  0.11326369683E+03  0.00000000000E+00 0. -1.
         -1    1    6    6    0  503 -0.27188670147E+03  0.28364676174E+03 -0.31795009736E+02  0.39419384385E+03  0.00000000000E+00 0.  1.
<mgrwt>
<rscale>  0 0.12097978E+04</rscale>
<asrwt>0</asrwt>
<pdfrwt beam="1">  1        2 0.13231775E+00 0.12097978E+04</pdfrwt>
<pdfrwt beam="2">  1       -1 0.65451670E-01 0.12097978E+04</pdfrwt>
<totfact> 0.83190722E+01</totfact>
</mgrwt>
</event>
<event>
12    6  0.1586493E-007  0.1481439E+04  0.7818608E-02  0.8896890E-01
          2   -1    0    0  501    0  0.00000000000E+00  0.00000000000E+00  0.82378749147E+03  0.82378749147E+03  0.00000000000E+00 0. -1.
         -1   -1    0    0    0  501 -0.00000000000E+00 -0.00000000000E+00 -0.66602814471E+03  0.66602814471E+03  0.00000000000E+00 0.  1.
         24    2    1    2    0    0 -0.47380551337E+02 -0.23273660442E+03  0.44518227567E+03  0.51092387708E+03  0.80278925756E+02 0.  0.
        254    2    1    2    0    0  0.47380551337E+02  0.23273660442E+03 -0.28742292891E+03  0.97889175909E+03  0.90509993496E+03 0.  0.
         23    2    4    4    0    0 -0.14104592044E+03 -0.25391226020E+03 -0.32783019823E+03  0.44781362818E+03  0.93268532511E+02 0.  0.
         23    2    4    4    0    0  0.18842647177E+03  0.48664886462E+03  0.40407269315E+02  0.53107813091E+03  0.89886489633E+02 0.  0.
          4    1    3    3  502    0 -0.51502612227E+02 -0.66701882397E+02  0.16287699462E+03  0.18338641051E+03  0.00000000000E+00 0. -1.
         -3    1    3    3    0  502  0.41220608907E+01 -0.16603472202E+03  0.28230528105E+03  0.32753746658E+03  0.00000000000E+00 0.  1.
         11    1    5    5    0    0  0.67185965160E+01 -0.14248038066E+02 -0.10610045737E+00  0.15753011940E+02  0.00000000000E+00 0.  1.
        -11    1    5    5    0    0 -0.14776451695E+03 -0.23966422214E+03 -0.32772409777E+03  0.43206061624E+03  0.00000000000E+00 0. -1.
          4    1    6    6  503    0  0.10862661808E+03  0.16235450649E+03  0.74009177212E+01  0.19548273969E+03  0.00000000000E+00 0. -1.
         -4    1    6    6    0  503  0.79799853691E+02  0.32429435813E+03  0.33006351594E+02  0.33559539122E+03  0.00000000000E+00 0.  1.
<mgrwt>
<rscale>  0 0.14814394E+04</rscale>
<asrwt>0</asrwt>
<pdfrwt beam="1">  1        2 0.12673654E+00 0.14814394E+04</pdfrwt>
<pdfrwt beam="2">  1       -1 0.10246587E+00 0.14814394E+04</pdfrwt>
<totfact> 0.32974382E+01</totfact>
</mgrwt>
</event>
<event>
12    6  0.1586493E-007  0.1698554E+04  0.7818608E-02  0.8762189E-01
         -1   -1    0    0    0  501 -0.00000000000E+00  0.00000000000E+00  0.16482989837E+03  0.16482989837E+03  0.00000000000E+00 0.  1.
          2   -1    0    0  501    0  0.00000000000E+00 -0.00000000000E+00 -0.43758545440E+04  0.43758545440E+04  0.00000000000E+00 0. -1.
         24    2    1    2    0    0  0.12780437852E+03 -0.12170650086E+03  0.37293765110E+02  0.19718814733E+03  0.79661213974E+02 0.  0.
        254    2    1    2    0    0 -0.12780437852E+03  0.12170650086E+03 -0.42483184108E+04  0.43434962951E+04  0.88690716226E+03 0.  0.
         23    2    4    4    0    0  0.36234882301E+02 -0.25370510312E+03 -0.32344956222E+04  0.32459381533E+04  0.92050635680E+02 0.  0.
         23    2    4    4    0    0 -0.16403926082E+03  0.37541160398E+03 -0.10138227886E+04  0.10975581417E+04  0.94628094475E+02 0.  0.
          4    1    3    3  502    0  0.16598348349E+01 -0.12718082763E+02 -0.17509947269E+02  0.21704905764E+02  0.00000000000E+00 0. -1.
         -3    1    3    3    0  502  0.12614454368E+03 -0.10898841810E+03  0.54803712380E+02  0.17548324157E+03  0.00000000000E+00 0.  1.
         11    1    5    5    0    0  0.18710009072E+02 -0.23036735175E+03 -0.24440945177E+04  0.24549984099E+04  0.00000000000E+00 0. -1.
        -11    1    5    5    0    0  0.17524873228E+02 -0.23337751373E+02 -0.79040110443E+03  0.79093974341E+03  0.00000000000E+00 0.  1.
          2    1    6    6  503    0 -0.48591061365E+02  0.14634247184E+03 -0.50042369766E+03  0.52364213686E+03  0.00000000000E+00 0. -1.
         -2    1    6    6    0  503 -0.11544819945E+03  0.22906913214E+03 -0.51339909095E+03  0.57391600487E+03  0.00000000000E+00 0.  1.
<mgrwt>
<rscale>  0 0.16985543E+04</rscale>
<asrwt>0</asrwt>
<pdfrwt beam="1">  1        2 0.67320849E+00 0.16985543E+04</pdfrwt>
<pdfrwt beam="2">  1       -1 0.25358442E-01 0.16985543E+04</pdfrwt>
<totfact> 0.24522094E+00</totfact>
</mgrwt>
</event>
<event>
12    6  0.1586493E-007  0.1608712E+04  0.7818608E-02  0.8815214E-01
         -1   -1    0    0    0  501 -0.00000000000E+00  0.00000000000E+00  0.20484800255E+03  0.20484800255E+03  0.00000000000E+00 0.  1.
          2   -1    0    0  501    0  0.00000000000E+00 -0.00000000000E+00 -0.31583830163E+04  0.31583830163E+04  0.00000000000E+00 0. -1.
         24    2    1    2    0    0 -0.42985637766E+00  0.31046208100E+03 -0.72277430711E+02  0.32928995538E+03  0.82589098609E+02 0.  0.
        254    2    1    2    0    0  0.42985637766E+00 -0.31046208100E+03 -0.28812575830E+04  0.30339410635E+04  0.89820166350E+03 0.  0.
         23    2    4    4    0    0  0.29880883383E+02  0.30225192772E+03 -0.75438781643E+03  0.81835778027E+03  0.91429666688E+02 0.  0.
         23    2    4    4    0    0 -0.29451027005E+02 -0.61271400872E+03 -0.21268697666E+04  0.22155832832E+04  0.94596306648E+02 0.  0.
          2    1    3    3  502    0  0.73872119549E+01  0.34804673509E+02 -0.36903657108E+02  0.51262228848E+02  0.00000000000E+00 0. -1.
         -1    1    3    3    0  502 -0.78170683325E+01  0.27565740749E+03 -0.35373773603E+02  0.27802772653E+03  0.00000000000E+00 0.  1.
         11    1    5    5    0    0 -0.93792368354E+01  0.15482474926E+03 -0.47959278251E+03  0.50405149549E+03  0.00000000000E+00 0. -1.
        -11    1    5    5    0    0  0.39260120218E+02  0.14742717846E+03 -0.27479503392E+03  0.31430628479E+03  0.00000000000E+00 0.  1.
          3    1    6    6  503    0 -0.23533668471E+02 -0.44493510274E+03 -0.13828422292E+04  0.14528502022E+04  0.00000000000E+00 0. -1.
         -3    1    6    6    0  503 -0.59173585343E+01 -0.16777890598E+03 -0.74402753738E+03  0.76273308097E+03  0.00000000000E+00 0.  1.
<mgrwt>
<rscale>  0 0.16087118E+04</rscale>
<asrwt>0</asrwt>
<pdfrwt beam="1">  1        2 0.48590510E+00 0.16087118E+04</pdfrwt>
<pdfrwt beam="2">  1       -1 0.31515076E-01 0.16087118E+04</pdfrwt>
<totfact> 0.14193467E+01</totfact>
</mgrwt>
</event>
<event>
12    6  0.1586493E-007  0.1555234E+04  0.7818608E-02  0.8848531E-01
         -1   -1    0    0    0  501 -0.00000000000E+00  0.00000000000E+00  0.26427664903E+03  0.26427664903E+03  0.00000000000E+00 0.  1.
          2   -1    0    0  501    0  0.00000000000E+00 -0.00000000000E+00 -0.22880892559E+04  0.22880892559E+04  0.00000000000E+00 0. -1.
         24    2    1    2    0    0 -0.35056020371E+03  0.25061839073E+02 -0.89844453870E+02  0.37801554126E+03  0.10631637381E+03 0.  0.
        254    2    1    2    0    0  0.35056020371E+03 -0.25061839073E+02 -0.19339681530E+04  0.21743503637E+04  0.92954081942E+03 0.  0.
         23    2    4    4    0    0 -0.18759195315E+03  0.25375438493E+03 -0.36620474104E+03  0.49079845006E+03  0.84824391918E+02 0.  0.
         23    2    4    4    0    0  0.53815215686E+03 -0.27881622400E+03 -0.15677634120E+04  0.16835519136E+04  0.95491880460E+02 0.  0.
          4    1    3    3  502    0 -0.18636474099E+03  0.43015948392E+02 -0.27467624531E+01  0.19128443012E+03  0.00000000000E+00 0. -1.
         -3    1    3    3    0  502 -0.16419546272E+03 -0.17954109319E+02 -0.87097691417E+02  0.18673111115E+03  0.00000000000E+00 0.  1.
         11    1    5    5    0    0 -0.73921422138E+01  0.58400083358E+01  0.39609133594E+01  0.10219505786E+02  0.00000000000E+00 0.  1.
        -11    1    5    5    0    0 -0.18019981093E+03  0.24791437659E+03 -0.37016565440E+03  0.48057894427E+03  0.00000000000E+00 0. -1.
          1    1    6    6  503    0  0.48070337631E+03 -0.27119368197E+03 -0.13565021365E+04  0.14644861882E+04  0.00000000000E+00 0. -1.
         -1    1    6    6    0  503  0.57448780556E+02 -0.76225420341E+01 -0.21126127551E+03  0.21906572545E+03  0.00000000000E+00 0.  1.
<mgrwt>
<rscale>  0 0.15552345E+04</rscale>
<asrwt>0</asrwt>
<pdfrwt beam="1">  1        2 0.35201374E+00 0.15552345E+04</pdfrwt>
<pdfrwt beam="2">  1       -1 0.40657945E-01 0.15552345E+04</pdfrwt>
<totfact> 0.29865948E+01</totfact>
</mgrwt>
</event>
<event>
12    6  0.1586493E-007  0.1371959E+04  0.7818608E-02  0.8974370E-01
         -1   -1    0    0    0  501 -0.00000000000E+00  0.00000000000E+00  0.27714966613E+03  0.27714966613E+03  0.00000000000E+00 0.  1.
          2   -1    0    0  501    0  0.00000000000E+00 -0.00000000000E+00 -0.16978838956E+04  0.16978838956E+04  0.00000000000E+00 0. -1.
         24    2    1    2    0    0  0.16032130682E+03 -0.24876203034E+03 -0.77770395614E+03  0.83591660463E+03  0.79672186761E+02 0.  0.
        254    2    1    2    0    0 -0.16032130682E+03  0.24876203034E+03 -0.64303027337E+03  0.11391169571E+04  0.89247635287E+03 0.  0.
         23    2    4    4    0    0 -0.10808243011E+03 -0.32663860154E+03 -0.23983055315E+03  0.42916422040E+03  0.91042002008E+02 0.  0.
         23    2    4    4    0    0 -0.52238876710E+02  0.57540063188E+03 -0.40319972022E+03  0.70995273675E+03  0.87453339729E+02 0.  0.
          4    1    3    3  502    0  0.12687692868E+03 -0.13537769460E+03 -0.52782906872E+03  0.55948941099E+03  0.00000000000E+00 0. -1.
         -3    1    3    3    0  502  0.33444378140E+02 -0.11338433574E+03 -0.24987488742E+03  0.27642719364E+03  0.00000000000E+00 0.  1.
         11    1    5    5    0    0 -0.78324918698E+02 -0.28308932014E+03 -0.16285479873E+03  0.33585121935E+03  0.00000000000E+00 0. -1.
        -11    1    5    5    0    0 -0.29757511416E+02 -0.43549281395E+02 -0.76975754426E+02  0.93313001051E+02  0.00000000000E+00 0.  1.
          3    1    6    6  503    0 -0.56101443517E+02  0.49411690652E+03 -0.30901075169E+03  0.58547974682E+03  0.00000000000E+00 0. -1.
         -3    1    6    6    0  503  0.38625668067E+01  0.81283725357E+02 -0.94188968528E+02  0.12447298993E+03  0.00000000000E+00 0.  1.
<mgrwt>
<rscale>  0 0.13719591E+04</rscale>
<asrwt>0</asrwt>
<pdfrwt beam="1">  1        2 0.26121291E+00 0.13719591E+04</pdfrwt>
<pdfrwt beam="2">  1       -1 0.42638409E-01 0.13719591E+04</pdfrwt>
<totfact> 0.59153896E+01</totfact>
</mgrwt>
</event>
<event>
12    6  0.1586493E-007  0.1483731E+04  0.7818608E-02  0.8895344E-01
          2   -1    0    0  501    0  0.00000000000E+00  0.00000000000E+00  0.53970886718E+03  0.53970886718E+03  0.00000000000E+00 0. -1.
         -1   -1    0    0    0  501 -0.00000000000E+00 -0.00000000000E+00 -0.10197430619E+04  0.10197430619E+04  0.00000000000E+00 0.  1.
         24    2    1    2    0    0  0.39694771386E+03 -0.90411328040E+02 -0.12691100031E+03  0.43432370801E+03  0.82395300623E+02 0.  0.
        254    2    1    2    0    0 -0.39694771386E+03  0.90411328040E+02 -0.35312319436E+03  0.11251282210E+04  0.98766179818E+03 0.  0.
         23    2    4    4    0    0  0.33596540280E+02  0.35137027737E+03  0.16363099714E+03  0.39785114945E+03  0.83190351347E+02 0.  0.
         23    2    4    4    0    0 -0.43054425414E+03 -0.26095894933E+03 -0.51675419150E+03  0.72727707158E+03  0.91810219505E+02 0.  0.
          4    1    3    3  502    0  0.24062112568E+03 -0.26811282752E+02 -0.43198791669E+02  0.24593394765E+03  0.00000000000E+00 0. -1.
         -3    1    3    3    0  502  0.15632658818E+03 -0.63600045287E+02 -0.83712208645E+02  0.18838976036E+03  0.00000000000E+00 0.  1.
         11    1    5    5    0    0 -0.21012671273E+02  0.11645156493E+03  0.78872417604E+02  0.14220885200E+03  0.00000000000E+00 0. -1.
        -11    1    5    5    0    0  0.54609211553E+02  0.23491871244E+03  0.84758579533E+02  0.25564229745E+03  0.00000000000E+00 0.  1.
          1    1    6    6  503    0 -0.27987949243E+03 -0.17626461262E+03 -0.39836388303E+03  0.51777941950E+03  0.00000000000E+00 0. -1.
         -1    1    6    6    0  503 -0.15066476170E+03 -0.84694336705E+02 -0.11839030847E+03  0.20949765208E+03  0.00000000000E+00 0.  1.
<mgrwt>
<rscale>  0 0.14837309E+04</rscale>
<asrwt>0</asrwt>
<pdfrwt beam="1">  1        2 0.83032134E-01 0.14837309E+04</pdfrwt>
<pdfrwt beam="2">  1       -1 0.15688355E+00 0.14837309E+04</pdfrwt>
<totfact> 0.19215094E+01</totfact>
</mgrwt>
</event>
<event>
12    6  0.1586493E-007  0.1388686E+04  0.7818608E-02  0.8962049E-01
          2   -1    0    0  501    0  0.00000000000E+00  0.00000000000E+00  0.67916973410E+03  0.67916973410E+03  0.00000000000E+00 0. -1.
         -1   -1    0    0    0  501 -0.00000000000E+00 -0.00000000000E+00 -0.70985503745E+03  0.70985503745E+03  0.00000000000E+00 0.  1.
         24    2    1    2    0    0 -0.18988448526E+03  0.18184432032E+03  0.30628052718E+03  0.41181902352E+03  0.81631318928E+02 0.  0.
        254    2    1    2    0    0  0.18988448526E+03 -0.18184432032E+03 -0.33696583052E+03  0.97720574802E+03  0.87878417626E+03 0.  0.
         23    2    4    4    0    0  0.39514091752E+03  0.21199869570E+03 -0.11377296290E+03  0.47199498582E+03  0.93569160902E+02 0.  0.
         23    2    4    4    0    0 -0.20525643226E+03 -0.39384301603E+03 -0.22319286762E+03  0.50521076220E+03  0.90445197944E+02 0.  0.
          4    1    3    3  502    0 -0.15275973446E+03  0.95685783857E+02  0.21942901374E+03  0.28397252997E+03  0.00000000000E+00 0. -1.
         -3    1    3    3    0  502 -0.37124750800E+02  0.86158536465E+02  0.86851513437E+02  0.12784649355E+03  0.00000000000E+00 0.  1.
         11    1    5    5    0    0  0.25357806053E+03  0.12360307441E+03 -0.11617283112E+03  0.30508306980E+03  0.00000000000E+00 0. -1.
        -11    1    5    5    0    0  0.14156285699E+03  0.88395621292E+02  0.23998682182E+01  0.16691191602E+03  0.00000000000E+00 0.  1.
          1    1    6    6  503    0 -0.17793354266E+03 -0.35700897447E+03 -0.16639085596E+03  0.43220558812E+03  0.00000000000E+00 0. -1.
         -1    1    6    6    0  503 -0.27322889601E+02 -0.36834041552E+02 -0.56802011666E+02  0.73005174080E+02  0.00000000000E+00 0.  1.
<mgrwt>
<rscale>  0 0.13886858E+04</rscale>
<asrwt>0</asrwt>
<pdfrwt beam="1">  1        2 0.10448765E+00 0.13886858E+04</pdfrwt>
<pdfrwt beam="2">  1       -1 0.10920847E+00 0.13886858E+04</pdfrwt>
<totfact> 0.36786316E+01</totfact>
</mgrwt>
</event>
<event>
12    6  0.1586493E-007  0.1763439E+04  0.7818608E-02  0.8725988E-01
          2   -1    0    0  501    0  0.00000000000E+00  0.00000000000E+00  0.77907258846E+03  0.77907258846E+03  0.00000000000E+00 0. -1.
         -1   -1    0    0    0  501 -0.00000000000E+00 -0.00000000000E+00 -0.99789027714E+03  0.99789027714E+03  0.00000000000E+00 0.  1.
         24    2    1    2    0    0 -0.20343346817E+03 -0.26666245188E+03  0.51135822415E+03  0.61670705532E+03  0.79663790200E+02 0.  0.
        254    2    1    2    0    0  0.20343346817E+03  0.26666245188E+03 -0.73017591282E+03  0.11602558103E+04  0.83698425457E+03 0.  0.
         23    2    4    4    0    0  0.28949870713E+03 -0.50304576705E+02 -0.75805722197E+03  0.81779280447E+03  0.88285148258E+02 0.  0.
         23    2    4    4    0    0 -0.86065238963E+02  0.31696702859E+03  0.27881309146E+02  0.34246300580E+03  0.92888214395E+02 0.  0.
          4    1    3    3  502    0 -0.15956473081E+03 -0.18436879953E+03  0.42297791218E+03  0.48822440716E+03  0.00000000000E+00 0. -1.
         -1    1    3    3    0  502 -0.43868737364E+02 -0.82293652353E+02  0.88380311970E+02  0.12848264816E+03  0.00000000000E+00 0.  1.
         11    1    5    5    0    0  0.72267485066E+02 -0.22916830485E+00 -0.10286414261E+03  0.12571266345E+03  0.00000000000E+00 0.  1.
        -11    1    5    5    0    0  0.21723122207E+03 -0.50075408400E+02 -0.65519307936E+03  0.69208014103E+03  0.00000000000E+00 0. -1.
          2    1    6    6  503    0  0.13395358815E+02  0.10680052210E+02 -0.70848863184E+01  0.18539006638E+02  0.00000000000E+00 0. -1.
         -2    1    6    6    0  503 -0.99460597778E+02  0.30628697638E+03  0.34966195465E+02  0.32392399916E+03  0.00000000000E+00 0.  1.
<mgrwt>
<rscale>  0 0.17634386E+04</rscale>
<asrwt>0</asrwt>
<pdfrwt beam="1">  1        2 0.11985732E+00 0.17634386E+04</pdfrwt>
<pdfrwt beam="2">  1       -1 0.15352158E+00 0.17634386E+04</pdfrwt>
<totfact> 0.12634397E+01</totfact>
</mgrwt>
</event>
<event>
12    6  0.1586493E-007  0.2176337E+04  0.7818608E-02  0.8528342E-01
          2   -1    0    0  501    0  0.00000000000E+00  0.00000000000E+00  0.20241040366E+04  0.20241040366E+04  0.00000000000E+00 0. -1.
         -1   -1    0    0    0  501 -0.00000000000E+00 -0.00000000000E+00 -0.58500460865E+03  0.58500460865E+03  0.00000000000E+00 0.  1.
         24    2    1    2    0    0  0.42274656146E+03 -0.65583348832E+03  0.68839335371E+02  0.78740330896E+03  0.80205344204E+02 0.  0.
        254    2    1    2    0    0 -0.42274656146E+03  0.65583348832E+03  0.13702600926E+04  0.18217053363E+04  0.91223099670E+03 0.  0.
         23    2    4    4    0    0 -0.28331914484E+03  0.53027669653E+03  0.21158939334E+03  0.64377653893E+03  0.90636901856E+02 0.  0.
         23    2    4    4    0    0 -0.13942741662E+03  0.12555679178E+03  0.11586706992E+04  0.11779287974E+04  0.98964387131E+02 0.  0.
          4    1    3    3  502    0  0.11383290272E+03 -0.21044976423E+03  0.53428289389E+02  0.24515630751E+03  0.00000000000E+00 0. -1.
         -3    1    3    3    0  502  0.30891365875E+03 -0.44538372409E+03  0.15411045982E+02  0.54224700145E+03  0.00000000000E+00 0.  1.
         11    1    5    5    0    0 -0.13060513084E+03  0.23017349984E+03  0.14050020959E+03  0.29962951978E+03  0.00000000000E+00 0.  1.
        -11    1    5    5    0    0 -0.15271401401E+03  0.30010319670E+03  0.71089183744E+02  0.34414701915E+03  0.00000000000E+00 0. -1.
          1    1    6    6  503    0 -0.15307420344E+03  0.12557412046E+03  0.11014281942E+04  0.11190820517E+04  0.00000000000E+00 0. -1.
         -1    1    6    6    0  503  0.13646786819E+02 -0.17328673688E-01  0.57242505014E+02  0.58846745628E+02  0.00000000000E+00 0.  1.
<mgrwt>
<rscale>  0 0.21763365E+04</rscale>
<asrwt>0</asrwt>
<pdfrwt beam="1">  1        2 0.31140062E+00 0.21763365E+04</pdfrwt>
<pdfrwt beam="2">  1       -1 0.90000710E-01 0.21763365E+04</pdfrwt>
<totfact> 0.81562208E+00</totfact>
</mgrwt>
</event>
<event>
12    6  0.1586493E-007  0.1528714E+04  0.7818608E-02  0.8865580E-01
         -1   -1    0    0    0  501 -0.00000000000E+00  0.00000000000E+00  0.92122330170E+03  0.92122330170E+03  0.00000000000E+00 0.  1.
          2   -1    0    0  501    0  0.00000000000E+00 -0.00000000000E+00 -0.63420230411E+03  0.63420230411E+03  0.00000000000E+00 0. -1.
         24    2    1    2    0    0  0.99575543873E+02 -0.46599513889E+03  0.23126476957E+03  0.53570492544E+03  0.80184880702E+02 0.  0.
        254    2    1    2    0    0 -0.99575543873E+02  0.46599513889E+03  0.55756228019E+02  0.10197206804E+04  0.89980817434E+03 0.  0.
         23    2    4    4    0    0 -0.81942830509E+02 -0.25475912221E+03  0.75129444628E+02  0.29275774863E+03  0.91901186694E+02 0.  0.
         23    2    4    4    0    0 -0.17632713364E+02  0.72075426109E+03 -0.19373216608E+02  0.72696293174E+03  0.91116217766E+02 0.  0.
          4    1    3    3  502    0  0.70866592271E+02 -0.36940177683E+03  0.14522114827E+03  0.40319837367E+03  0.00000000000E+00 0. -1.
         -3    1    3    3    0  502  0.28708951601E+02 -0.96593362055E+02  0.86043621301E+02  0.13250655177E+03  0.00000000000E+00 0.  1.
         11    1    5    5    0    0 -0.87622139777E+02 -0.13016266389E+03  0.55849041920E+02  0.16655051466E+03  0.00000000000E+00 0. -1.
        -11    1    5    5    0    0  0.56793092686E+01 -0.12459645832E+03  0.19280402708E+02  0.12620723397E+03  0.00000000000E+00 0.  1.
          3    1    6    6  503    0  0.25248790216E+02  0.96813710906E+02 -0.17362721232E+02  0.10154732943E+03  0.00000000000E+00 0. -1.
         -3    1    6    6    0  503 -0.42881503580E+02  0.62394055019E+03 -0.20104953759E+01  0.62541560231E+03  0.00000000000E+00 0.  1.
<mgrwt>
<rscale>  0 0.15287144E+04</rscale>
<asrwt>0</asrwt>
<pdfrwt beam="1">  1        2 0.97569586E-01 0.15287144E+04</pdfrwt>
<pdfrwt beam="2">  1       -1 0.14172666E+00 0.15287144E+04</pdfrwt>
<totfact> 0.20724075E+01</totfact>
</mgrwt>
</event>
<event>
12    6  0.1586493E-007  0.1785980E+04  0.7818608E-02  0.8713791E-01
          2   -1    0    0  501    0  0.00000000000E+00  0.00000000000E+00  0.99650820564E+03  0.99650820564E+03  0.00000000000E+00 0. -1.
         -1   -1    0    0    0  501 -0.00000000000E+00 -0.00000000000E+00 -0.80022514221E+03  0.80022514221E+03  0.00000000000E+00 0.  1.
         24    2    1    2    0    0  0.47908676777E+03  0.31927736172E+03  0.38601762562E+03  0.69795439718E+03  0.81661303504E+02 0.  0.
        254    2    1    2    0    0 -0.47908676777E+03 -0.31927736172E+03 -0.18973456219E+03  0.10987789507E+04  0.91643538430E+03 0.  0.
         23    2    4    4    0    0 -0.64142523802E+03  0.61220568177E+02 -0.47108051021E+02  0.65256367902E+03  0.91901538460E+02 0.  0.
         23    2    4    4    0    0  0.16233847025E+03 -0.38049792990E+03 -0.14262651117E+03  0.44621527166E+03  0.87368720880E+02 0.  0.
          2    1    3    3  502    0  0.23563767856E+03  0.16879649744E+03  0.24178949055E+03  0.37746460874E+03  0.00000000000E+00 0. -1.
         -1    1    3    3    0  502  0.24344908920E+03  0.15048086429E+03  0.14422813507E+03  0.32048978844E+03  0.00000000000E+00 0.  1.
         11    1    5    5    0    0 -0.52979031082E+03  0.57487256088E+02 -0.42237583779E+01  0.53291687737E+03  0.00000000000E+00 0. -1.
        -11    1    5    5    0    0 -0.11163492720E+03  0.37333120885E+01 -0.42884292643E+02  0.11964680165E+03  0.00000000000E+00 0.  1.
          2    1    6    6  503    0  0.16168702061E+03 -0.33574919138E+03 -0.14835276301E+03  0.40109693896E+03  0.00000000000E+00 0. -1.
         -2    1    6    6    0  503  0.65144964779E+00 -0.44748738515E+02  0.57262518417E+01  0.45118332699E+02  0.00000000000E+00 0.  1.
<mgrwt>
<rscale>  0 0.17859798E+04</rscale>
<asrwt>0</asrwt>
<pdfrwt beam="1">  1        2 0.15330895E+00 0.17859798E+04</pdfrwt>
<pdfrwt beam="2">  1       -1 0.12311156E+00 0.17859798E+04</pdfrwt>
<totfact> 0.15869716E+01</totfact>
</mgrwt>
</event>
<event>
12    6  0.1586493E-007  0.2676647E+04  0.7818608E-02  0.8342622E-01
         -1   -1    0    0    0  501 -0.00000000000E+00  0.00000000000E+00  0.57257376427E+03  0.57257376427E+03  0.00000000000E+00 0.  1.
          2   -1    0    0  501    0  0.00000000000E+00 -0.00000000000E+00 -0.31281729396E+04  0.31281729396E+04  0.00000000000E+00 0. -1.
         24    2    1    2    0    0 -0.85904926097E+03  0.17152451595E+03 -0.22472885305E+04  0.24135556370E+04  0.86941251955E+02 0.  0.
        254    2    1    2    0    0  0.85904926097E+03 -0.17152451595E+03 -0.30831064481E+03  0.12871910668E+04  0.89130191098E+03 0.  0.
         23    2    4    4    0    0  0.70933250583E+03  0.25384905785E+03 -0.53334584040E+02  0.76136491371E+03  0.96124949770E+02 0.  0.
         23    2    4    4    0    0  0.14971675514E+03 -0.42537357381E+03 -0.25497606077E+03  0.52582615314E+03  0.90125288896E+02 0.  0.
          2    1    3    3  502    0 -0.79117493544E+03  0.14818996930E+03 -0.19952650425E+04  0.21515112445E+04  0.00000000000E+00 0. -1.
         -1    1    3    3    0  502 -0.67874325533E+02  0.23334546654E+02 -0.25202348800E+03  0.26204439249E+03  0.00000000000E+00 0.  1.
         11    1    5    5    0    0  0.47352843070E+03  0.15293168703E+03 -0.78010051587E+02  0.50368923329E+03  0.00000000000E+00 0.  1.
        -11    1    5    5    0    0  0.23580407513E+03  0.10091737082E+03  0.24675467547E+02  0.25767568042E+03  0.00000000000E+00 0. -1.
          4    1    6    6  503    0  0.15216388117E+03 -0.37687602649E+03 -0.24962798616E+03  0.47697328809E+03  0.00000000000E+00 0. -1.
         -4    1    6    6    0  503 -0.24471260341E+01 -0.48497547320E+02 -0.53480746090E+01  0.48852865053E+02  0.00000000000E+00 0.  1.
<mgrwt>
<rscale>  0 0.26766470E+04</rscale>
<asrwt>0</asrwt>
<pdfrwt beam="1">  1        2 0.48125736E+00 0.26766470E+04</pdfrwt>
<pdfrwt beam="2">  1       -1 0.88088274E-01 0.26766470E+04</pdfrwt>
<totfact> 0.18264081E+00</totfact>
</mgrwt>
</event>
<event>
12    6  0.1586493E-007  0.1475907E+04  0.7818608E-02  0.8900635E-01
         -1   -1    0    0    0  501 -0.00000000000E+00  0.00000000000E+00  0.31790159597E+03  0.31790159597E+03  0.00000000000E+00 0.  1.
          2   -1    0    0  501    0  0.00000000000E+00 -0.00000000000E+00 -0.17130308014E+04  0.17130308014E+04  0.00000000000E+00 0. -1.
         24    2    1    2    0    0  0.39540121347E+03  0.14070015448E+03 -0.69918064342E+03  0.81933923871E+03  0.79527120333E+02 0.  0.
        254    2    1    2    0    0 -0.39540121347E+03 -0.14070015448E+03 -0.69594856204E+03  0.12115931587E+04  0.89859608729E+03 0.  0.
         23    2    4    4    0    0 -0.69610063241E+02 -0.41821579236E+02  0.20842713412E+03  0.24090602406E+03  0.89438452568E+02 0.  0.
         23    2    4    4    0    0 -0.32579115023E+03 -0.98878575240E+02 -0.90437569616E+03  0.97068713463E+03  0.91767463283E+02 0.  0.
          2    1    3    3  502    0  0.31469525138E+02  0.22007584580E+02 -0.31327870777E+02  0.49559058495E+02  0.00000000000E+00 0. -1.
         -1    1    3    3    0  502  0.36393168833E+03  0.11869256990E+03 -0.66785277264E+03  0.76978018021E+03  0.00000000000E+00 0.  1.
         11    1    5    5    0    0 -0.68685863591E+02 -0.55547203833E+02  0.10792616301E+03  0.13946790446E+03  0.00000000000E+00 0. -1.
        -11    1    5    5    0    0 -0.92419965056E+00  0.13725624597E+02  0.10050097111E+03  0.10143811961E+03  0.00000000000E+00 0.  1.
          4    1    6    6  503    0 -0.21906268465E+03 -0.10848489002E+03 -0.59405765399E+03  0.64238767690E+03  0.00000000000E+00 0.  1.
         -4    1    6    6    0  503 -0.10672846558E+03  0.96063147768E+01 -0.31031804217E+03  0.32829945773E+03  0.00000000000E+00 0. -1.
<mgrwt>
<rscale>  0 0.14759068E+04</rscale>
<asrwt>0</asrwt>
<pdfrwt beam="1">  1        2 0.26354320E+00 0.14759068E+04</pdfrwt>
<pdfrwt beam="2">  1       -1 0.48907939E-01 0.14759068E+04</pdfrwt>
<totfact> 0.44518282E+01</totfact>
</mgrwt>
</event>
<event>
12    6  0.1586493E-007  0.2271426E+04  0.7818608E-02  0.8489273E-01
         -1   -1    0    0    0  501 -0.00000000000E+00  0.00000000000E+00  0.16260553293E+04  0.16260553293E+04  0.00000000000E+00 0.  1.
          2   -1    0    0  501    0  0.00000000000E+00 -0.00000000000E+00 -0.79323514508E+03  0.79323514508E+03  0.00000000000E+00 0. -1.
         24    2    1    2    0    0 -0.83946469746E+03  0.17031808604E+03 -0.97505548060E+02  0.86649200032E+03  0.87131085144E+02 0.  0.
        254    2    1    2    0    0  0.83946469746E+03 -0.17031808604E+03  0.93032573225E+03  0.15527984740E+04  0.90109261686E+03 0.  0.
         23    2    4    4    0    0  0.28430738232E+03 -0.44437486338E+03  0.71005776399E+03  0.88923386127E+03  0.90857718283E+02 0.  0.
         23    2    4    4    0    0  0.55515731514E+03  0.27405677734E+03  0.22026796825E+03  0.66356461276E+03  0.92158861298E+02 0.  0.
          2    1    3    3  502    0 -0.38010965217E+02 -0.10183935966E+02 -0.73409699148E+01  0.40030436767E+02  0.00000000000E+00 0. -1.
         -1    1    3    3    0  502 -0.80145373224E+03  0.18050202200E+03 -0.90164578145E+02  0.82646156355E+03  0.00000000000E+00 0.  1.
         11    1    5    5    0    0  0.20351632179E+03 -0.23743472496E+03  0.39736810832E+03  0.50566348035E+03  0.00000000000E+00 0.  1.
        -11    1    5    5    0    0  0.80791060533E+02 -0.20694013842E+03  0.31268965567E+03  0.38357038091E+03  0.00000000000E+00 0. -1.
          3    1    6    6  503    0  0.54086041007E+03  0.24713158496E+03  0.21656879955E+03  0.63285547197E+03  0.00000000000E+00 0. -1.
         -3    1    6    6    0  503  0.14296905073E+02  0.26925192379E+02  0.36991687053E+01  0.30709140796E+02  0.00000000000E+00 0.  1.
<mgrwt>
<rscale>  0 0.22714262E+04</rscale>
<asrwt>0</asrwt>
<pdfrwt beam="1">  1        2 0.12203618E+00 0.22714262E+04</pdfrwt>
<pdfrwt beam="2">  1       -1 0.25016236E+00 0.22714262E+04</pdfrwt>
<totfact> 0.25118585E+00</totfact>
</mgrwt>
</event>
<event>
12    6  0.1586493E-007  0.2187304E+04  0.7818608E-02  0.8523731E-01
         -1   -1    0    0    0  501 -0.00000000000E+00  0.00000000000E+00  0.11871444175E+04  0.11871444175E+04  0.00000000000E+00 0.  1.
          2   -1    0    0  501    0  0.00000000000E+00 -0.00000000000E+00 -0.10075224311E+04  0.10075224311E+04  0.00000000000E+00 0. -1.
         24    2    1    2    0    0  0.21958969655E+03 -0.64608867246E+03  0.68829250955E+03  0.97222819420E+03  0.76360168774E+02 0.  0.
        254    2    1    2    0    0 -0.21958969655E+03  0.64608867246E+03 -0.50867052317E+03  0.12224386545E+04  0.87747384875E+03 0.  0.
         23    2    4    4    0    0  0.23535721501E+03 -0.62281139929E+02 -0.83968416615E+02  0.27524193044E+03  0.97136328080E+02 0.  0.
         23    2    4    4    0    0 -0.45494691156E+03  0.70836981239E+03 -0.42470210655E+03  0.94719672402E+03  0.89695435937E+02 0.  0.
          2    1    3    3  502    0  0.14342953022E+03 -0.37015546681E+03  0.35152904146E+03  0.53024500633E+03  0.00000000000E+00 0. -1.
         -1    1    3    3    0  502  0.76160166331E+02 -0.27593320566E+03  0.33676346810E+03  0.44198318787E+03  0.00000000000E+00 0.  1.
         11    1    5    5    0    0  0.47035081683E+02 -0.56762914495E+02 -0.23478865807E+02  0.77366559381E+02  0.00000000000E+00 0.  1.
        -11    1    5    5    0    0  0.18832213333E+03 -0.55182254333E+01 -0.60489550809E+02  0.19787537105E+03  0.00000000000E+00 0. -1.
          1    1    6    6  503    0 -0.30815920201E+02  0.18963643269E+02 -0.90989169308E+01  0.37309931562E+02  0.00000000000E+00 0. -1.
         -1    1    6    6    0  503 -0.42413099136E+03  0.68940616912E+03 -0.41560318962E+03  0.90988679246E+03  0.00000000000E+00 0.  1.
<mgrwt>
<rscale>  0 0.21873039E+04</rscale>
<asrwt>0</asrwt>
<pdfrwt beam="1">  1        2 0.15500345E+00 0.21873039E+04</pdfrwt>
<pdfrwt beam="2">  1       -1 0.18263760E+00 0.21873039E+04</pdfrwt>
<totfact> 0.51790877E+00</totfact>
</mgrwt>
</event>
<event>
12    6  0.1586493E-007  0.2200958E+04  0.7818608E-02  0.8518029E-01
          2   -1    0    0  501    0  0.00000000000E+00  0.00000000000E+00  0.24921807010E+04  0.24921807010E+04  0.00000000000E+00 0. -1.
         -1   -1    0    0    0  501 -0.00000000000E+00 -0.00000000000E+00 -0.48594153950E+03  0.48594153950E+03  0.00000000000E+00 0.  1.
         24    2    1    2    0    0 -0.65836883252E+03 -0.45854609694E+02  0.16609344652E+04  0.17890003293E+04  0.79162589722E+02 0.  0.
        254    2    1    2    0    0  0.65836883252E+03  0.45854609694E+02  0.34530469629E+03  0.11891219112E+04  0.92694305196E+03 0.  0.
         23    2    4    4    0    0  0.82475547804E+02 -0.23863191617E+03  0.45685656373E+03  0.53085222550E+03  0.96637250040E+02 0.  0.
         23    2    4    4    0    0  0.57589328471E+03  0.28448652586E+03 -0.11155186744E+03  0.65826968571E+03  0.91046698023E+02 0.  0.
          4    1    3    3  502    0 -0.43667260038E+03 -0.45277107798E+02  0.10079397115E+04  0.10993977617E+04  0.00000000000E+00 0. -1.
         -3    1    3    3    0  502 -0.22169623214E+03 -0.57750189677E+00  0.65299475368E+03  0.68960256756E+03  0.00000000000E+00 0.  1.
         11    1    5    5    0    0  0.27267001129E+02 -0.20240107265E+03  0.33962002993E+03  0.39629717169E+03  0.00000000000E+00 0. -1.
        -11    1    5    5    0    0  0.55208546675E+02 -0.36230843516E+02  0.11723653380E+03  0.13455505381E+03  0.00000000000E+00 0.  1.
          1    1    6    6  503    0  0.45711409537E+03  0.26410244778E+03 -0.82872841337E+02  0.53438872269E+03  0.00000000000E+00 0. -1.
         -1    1    6    6    0  503  0.11877918934E+03  0.20384078084E+02 -0.28679026099E+02  0.12388096302E+03  0.00000000000E+00 0.  1.
<mgrwt>
<rscale>  0 0.22009581E+04</rscale>
<asrwt>0</asrwt>
<pdfrwt beam="1">  1        2 0.38341241E+00 0.22009581E+04</pdfrwt>
<pdfrwt beam="2">  1       -1 0.74760239E-01 0.22009581E+04</pdfrwt>
<totfact> 0.65858275E+00</totfact>
</mgrwt>
</event>
<event>
12    6  0.1586493E-007  0.2857458E+04  0.7818608E-02  0.8285649E-01
         -1   -1    0    0    0  501 -0.00000000000E+00  0.00000000000E+00  0.14856720094E+04  0.14856720094E+04  0.00000000000E+00 0.  1.
          2   -1    0    0  501    0  0.00000000000E+00 -0.00000000000E+00 -0.13739686475E+04  0.13739686475E+04  0.00000000000E+00 0. -1.
         24    2    1    2    0    0  0.12227498796E+04 -0.28772323333E+03 -0.21965476247E+03  0.12783051575E+04  0.88960294314E+02 0.  0.
        254    2    1    2    0    0 -0.12227498796E+04  0.28772323333E+03  0.33135812437E+03  0.15813354994E+04  0.90162177653E+03 0.  0.
         23    2    4    4    0    0 -0.59980697298E+03 -0.18923489220E+03  0.45546453014E+03  0.78172408713E+03  0.89812921778E+02 0.  0.
         23    2    4    4    0    0 -0.62294290665E+03  0.47695812553E+03 -0.12410640577E+03  0.79961141227E+03  0.91810087763E+02 0.  0.
          2    1    3    3  502    0  0.10972822905E+04 -0.27886205418E+03 -0.21528206955E+03  0.11524490617E+04  0.00000000000E+00 0. -1.
         -1    1    3    3    0  502  0.12546758917E+03 -0.88611791488E+01 -0.43726929130E+01  0.12585609589E+03  0.00000000000E+00 0.  1.
         11    1    5    5    0    0 -0.14667149944E+03 -0.48838092611E+02  0.66599971167E+02  0.16832481753E+03  0.00000000000E+00 0. -1.
        -11    1    5    5    0    0 -0.45313547355E+03 -0.14039679959E+03  0.38886455897E+03  0.61339926960E+03  0.00000000000E+00 0.  1.
          1    1    6    6  503    0 -0.15931872387E+03  0.17199487687E+03 -0.23339579400E+02  0.23560439175E+03  0.00000000000E+00 0. -1.
         -1    1    6    6    0  503 -0.46362418278E+03  0.30496324865E+03 -0.10076682637E+03  0.56400702051E+03  0.00000000000E+00 0.  1.
<mgrwt>
<rscale>  0 0.28574581E+04</rscale>
<asrwt>0</asrwt>
<pdfrwt beam="1">  1        2 0.21137979E+00 0.28574581E+04</pdfrwt>
<pdfrwt beam="2">  1       -1 0.22856492E+00 0.28574581E+04</pdfrwt>
<totfact> 0.14255726E+00</totfact>
</mgrwt>
</event>
<event>
12    6  0.1586493E-007  0.1087528E+04  0.7818608E-02  0.9217434E-01
          2   -1    0    0  501    0  0.00000000000E+00  0.00000000000E+00  0.48306504418E+03  0.48306504418E+03  0.00000000000E+00 0. -1.
         -1   -1    0    0    0  501 -0.00000000000E+00 -0.00000000000E+00 -0.61209008091E+03  0.61209008091E+03  0.00000000000E+00 0.  1.
         24    2    1    2    0    0  0.89131650964E+02 -0.21457603047E+03 -0.15381926389E+03  0.29017600845E+03  0.80959408845E+02 0.  0.
        254    2    1    2    0    0 -0.89131650964E+02  0.21457603047E+03  0.24794227158E+02  0.80497911665E+03  0.77031766206E+03 0.  0.
         23    2    4    4    0    0 -0.38441675458E+03  0.13280111339E+02 -0.11338702360E+03  0.41147881311E+03  0.92225777097E+02 0.  0.
         23    2    4    4    0    0  0.29528510361E+03  0.20129591913E+03  0.13818125076E+03  0.39350030354E+03  0.89638671065E+02 0.  0.
          4    1    3    3  502    0 -0.11504173296E+02 -0.17291619948E+02 -0.42718628422E+00  0.20773266757E+02  0.00000000000E+00 0. -1.
         -3    1    3    3    0  502  0.10063582426E+03 -0.19728441052E+03 -0.15339207760E+03  0.26940274169E+03  0.00000000000E+00 0.  1.
         11    1    5    5    0    0 -0.56543357992E+02  0.33550237281E+02 -0.66953799488E+01  0.66087804225E+02  0.00000000000E+00 0.  1.
        -11    1    5    5    0    0 -0.32787339659E+03 -0.20270125942E+02 -0.10669164365E+03  0.34539100889E+03  0.00000000000E+00 0. -1.
          3    1    6    6  503    0  0.28051182161E+03  0.16709072264E+03  0.10328898415E+03  0.34245409313E+03  0.00000000000E+00 0. -1.
         -3    1    6    6    0  503  0.14773282003E+02  0.34205196486E+02  0.34892266608E+02  0.51046210406E+02  0.00000000000E+00 0.  1.
<mgrwt>
<rscale>  0 0.10875281E+04</rscale>
<asrwt>0</asrwt>
<pdfrwt beam="1">  1        2 0.74317699E-01 0.10875281E+04</pdfrwt>
<pdfrwt beam="2">  1       -1 0.94167705E-01 0.10875281E+04</pdfrwt>
<totfact> 0.79598369E+01</totfact>
</mgrwt>
</event>
<event>
12    6  0.1586493E-007  0.1248978E+04  0.7818608E-02  0.9071034E-01
         -1   -1    0    0    0  501 -0.00000000000E+00  0.00000000000E+00  0.17549827480E+03  0.17549827480E+03  0.00000000000E+00 0.  1.
          2   -1    0    0  501    0  0.00000000000E+00 -0.00000000000E+00 -0.22221667589E+04  0.22221667589E+04  0.00000000000E+00 0. -1.
         24    2    1    2    0    0 -0.30025814816E+03 -0.75004559468E+02 -0.52303687341E+03  0.61304065442E+03  0.80440248253E+02 0.  0.
        254    2    1    2    0    0  0.30025814816E+03  0.75004559468E+02 -0.15236316107E+04  0.17846243793E+04  0.87615652174E+03 0.  0.
         23    2    4    4    0    0  0.53974073162E+03  0.25585955839E+03 -0.11163297842E+04  0.12693650183E+04  0.91165737958E+02 0.  0.
         23    2    4    4    0    0 -0.23948258346E+03 -0.18085499893E+03 -0.40730182648E+03  0.51525936091E+03  0.97657527798E+02 0.  0.
          4    1    3    3  502    0 -0.24842917083E+03 -0.28389213979E+02 -0.41131099466E+03  0.48135198630E+03  0.00000000000E+00 0. -1.
         -3    1    3    3    0  502 -0.51828977331E+02 -0.46615345489E+02 -0.11172587875E+03  0.13168866811E+03  0.00000000000E+00 0.  1.
         11    1    5    5    0    0  0.68764069998E+02  0.66210813774E+02 -0.20528530027E+03  0.22639439854E+03  0.00000000000E+00 0. -1.
        -11    1    5    5    0    0  0.47097666162E+03  0.18964874462E+03 -0.91104448390E+03  0.10429706198E+04  0.00000000000E+00 0.  1.
          1    1    6    6  503    0 -0.61707745128E+02 -0.30219264341E+02 -0.16677294870E+03  0.18037257598E+03  0.00000000000E+00 0. -1.
         -1    1    6    6    0  503 -0.17777483833E+03 -0.15063573459E+03 -0.24052887778E+03  0.33488678494E+03  0.00000000000E+00 0.  1.
<mgrwt>
<rscale>  0 0.12489779E+04</rscale>
<asrwt>0</asrwt>
<pdfrwt beam="1">  1        2 0.34187180E+00 0.12489779E+04</pdfrwt>
<pdfrwt beam="2">  1       -1 0.26999736E-01 0.12489779E+04</pdfrwt>
<totfact> 0.69130102E+01</totfact>
</mgrwt>
</event>
<event>
12    6  0.1586493E-007  0.1265333E+04  0.7818608E-02  0.9057517E-01
         -1   -1    0    0    0  501 -0.00000000000E+00  0.00000000000E+00  0.23489895201E+03  0.23489895201E+03  0.00000000000E+00 0.  1.
          2   -1    0    0  501    0  0.00000000000E+00 -0.00000000000E+00 -0.17039962698E+04  0.17039962698E+04  0.00000000000E+00 0. -1.
         24    2    1    2    0    0  0.27169554808E+03  0.14669258322E+03 -0.41631995057E+03  0.52389220557E+03  0.76181080347E+02 0.  0.
        254    2    1    2    0    0 -0.27169554808E+03 -0.14669258322E+03 -0.10527773672E+04  0.14150030162E+04  0.89361969885E+03 0.  0.
         23    2    4    4    0    0  0.48303746573E+02 -0.38973971216E+03 -0.88102038753E+03  0.96874161079E+03  0.89627507299E+02 0.  0.
         23    2    4    4    0    0 -0.31999929465E+03  0.24304712894E+03 -0.17175697965E+03  0.44626140541E+03  0.90428570893E+02 0.  0.
          2    1    3    3  502    0  0.23309904544E+03  0.12218706289E+03 -0.39187193035E+03  0.47204708782E+03  0.00000000000E+00 0. -1.
         -1    1    3    3    0  502  0.38596502637E+02  0.24505520327E+02 -0.24448020220E+02  0.51845117755E+02  0.00000000000E+00 0.  1.
         11    1    5    5    0    0  0.51255742162E+02 -0.39175410306E+03 -0.88056498359E+03  0.96513891161E+03  0.00000000000E+00 0. -1.
        -11    1    5    5    0    0 -0.29519955883E+01  0.20143909062E+01 -0.45540394448E+00  0.36026991866E+01  0.00000000000E+00 0.  1.
          3    1    6    6  503    0 -0.17103246787E+03  0.17882611061E+03 -0.80942411302E+02  0.26035083416E+03  0.00000000000E+00 0. -1.
         -3    1    6    6    0  503 -0.14896682678E+03  0.64221018333E+02 -0.90814568352E+02  0.18591057125E+03  0.00000000000E+00 0.  1.
<mgrwt>
<rscale>  0 0.12653331E+04</rscale>
<asrwt>0</asrwt>
<pdfrwt beam="1">  1        2 0.26215327E+00 0.12653331E+04</pdfrwt>
<pdfrwt beam="2">  1       -1 0.36138301E-01 0.12653331E+04</pdfrwt>
<totfact> 0.79992844E+01</totfact>
</mgrwt>
</event>
<event>
12    6  0.1586493E-007  0.2224300E+04  0.7818608E-02  0.8508381E-01
          2   -1    0    0  501    0  0.00000000000E+00  0.00000000000E+00  0.96836063368E+03  0.96836063368E+03  0.00000000000E+00 0. -1.
         -1   -1    0    0    0  501 -0.00000000000E+00 -0.00000000000E+00 -0.12772907135E+04  0.12772907135E+04  0.00000000000E+00 0.  1.
         24    2    1    2    0    0  0.23091302094E+03  0.50224023727E+03  0.62457140779E+03  0.83811753046E+03  0.82373978129E+02 0.  0.
        254    2    1    2    0    0 -0.23091302094E+03 -0.50224023727E+03 -0.93350148765E+03  0.14075338168E+04  0.89674987521E+03 0.  0.
         23    2    4    4    0    0 -0.49004740924E+03 -0.48672278052E+03 -0.39263272214E+03  0.80040478168E+03  0.97169088010E+02 0.  0.
         23    2    4    4    0    0  0.25913438829E+03 -0.15517456745E+02 -0.54086876551E+03  0.60712903507E+03  0.93140866767E+02 0.  0.
          2    1    3    3  502    0  0.22956314040E+03  0.46799094831E+03  0.56030430112E+03  0.76528143384E+03  0.00000000000E+00 0. -1.
         -1    1    3    3    0  502  0.13498805446E+01  0.34249288959E+02  0.64267106671E+02  0.72836096624E+02  0.00000000000E+00 0.  1.
         11    1    5    5    0    0 -0.29890665253E+03 -0.35625092470E+03 -0.24155141393E+03  0.52402957344E+03  0.00000000000E+00 0.  1.
        -11    1    5    5    0    0 -0.19114075671E+03 -0.13047185583E+03 -0.15108130821E+03  0.27637520824E+03  0.00000000000E+00 0. -1.
          4    1    6    6  503    0  0.26697672804E+03 -0.16416377832E+02 -0.51887020993E+03  0.58375711176E+03  0.00000000000E+00 0. -1.
         -4    1    6    6    0  503 -0.78423397441E+01  0.89892108731E+00 -0.21998555576E+02  0.23371923310E+02  0.00000000000E+00 0.  1.
<mgrwt>
<rscale>  0 0.22243004E+04</rscale>
<asrwt>0</asrwt>
<pdfrwt beam="1">  1        2 0.14897856E+00 0.22243004E+04</pdfrwt>
<pdfrwt beam="2">  1       -1 0.19650626E+00 0.22243004E+04</pdfrwt>
<totfact> 0.43716727E+00</totfact>
</mgrwt>
</event>
<event>
12    6  0.1586493E-007  0.2242340E+04  0.7818608E-02  0.8501009E-01
          2   -1    0    0  501    0  0.00000000000E+00  0.00000000000E+00  0.20393780682E+04  0.20393780682E+04  0.00000000000E+00 0. -1.
         -1   -1    0    0    0  501 -0.00000000000E+00 -0.00000000000E+00 -0.61637517170E+03  0.61637517170E+03  0.00000000000E+00 0.  1.
         24    2    1    2    0    0  0.68735221043E+03 -0.52662120043E+03  0.10240979905E+04  0.13434720345E+04  0.79733702996E+02 0.  0.
        254    2    1    2    0    0 -0.68735221043E+03  0.52662120043E+03  0.39890490596E+03  0.13122812054E+04  0.90176154722E+03 0.  0.
         23    2    4    4    0    0  0.10684238708E+03  0.42105952210E+03  0.13132735089E+03  0.46256450852E+03  0.89513320939E+02 0.  0.
         23    2    4    4    0    0 -0.79419459751E+03  0.10556167833E+03  0.26757755507E+03  0.84971669685E+03  0.92370938459E+02 0.  0.
          4    1    3    3  502    0  0.57473698596E+03 -0.43693427467E+03  0.80516074704E+03  0.10814425514E+04  0.00000000000E+00 0. -1.
         -3    1    3    3    0  502  0.11261522447E+03 -0.89686925763E+02  0.21893724346E+03  0.26202948309E+03  0.00000000000E+00 0.  1.
         11    1    5    5    0    0  0.23834563084E+02  0.13239539007E+03  0.83734641014E+02  0.15845540639E+03  0.00000000000E+00 0.  1.
        -11    1    5    5    0    0  0.83007823999E+02  0.28866413203E+03  0.47592709872E+02  0.30410910213E+03  0.00000000000E+00 0. -1.
          3    1    6    6  503    0 -0.62423288258E+03  0.81064573268E+02  0.24924125452E+03  0.67702242185E+03  0.00000000000E+00 0. -1.
         -3    1    6    6    0  503 -0.16996171493E+03  0.24497105060E+02  0.18336300558E+02  0.17269427500E+03  0.00000000000E+00 0.  1.
<mgrwt>
<rscale>  0 0.22423399E+04</rscale>
<asrwt>0</asrwt>
<pdfrwt beam="1">  1        2 0.31375047E+00 0.22423399E+04</pdfrwt>
<pdfrwt beam="2">  1       -1 0.94826950E-01 0.22423399E+04</pdfrwt>
<totfact> 0.70797007E+00</totfact>
</mgrwt>
</event>
<event>
12    6  0.1586493E-007  0.2293635E+04  0.7818608E-02  0.8480435E-01
         -1   -1    0    0    0  501 -0.00000000000E+00  0.00000000000E+00  0.15450849907E+04  0.15450849907E+04  0.00000000000E+00 0.  1.
          2   -1    0    0  501    0  0.00000000000E+00 -0.00000000000E+00 -0.85120894783E+03  0.85120894783E+03  0.00000000000E+00 0. -1.
         24    2    1    2    0    0 -0.90499234370E+03 -0.18543357871E+03 -0.16882253543E+02  0.92756682926E+03  0.81844107838E+02 0.  0.
        254    2    1    2    0    0  0.90499234370E+03  0.18543357871E+03  0.71075829644E+03  0.14687271093E+04  0.89363595012E+03 0.  0.
         23    2    4    4    0    0  0.37634722627E+03 -0.82933044329E+02  0.77083892563E+03  0.86616877146E+03  0.86836437197E+02 0.  0.
         23    2    4    4    0    0  0.52864511744E+03  0.26836662304E+03 -0.60080629192E+02  0.60255833784E+03  0.89334002166E+02 0.  0.
          4    1    3    3  502    0 -0.68842305657E+02 -0.17768764974E+02 -0.23077093442E+02  0.74749878252E+02  0.00000000000E+00 0. -1.
         -3    1    3    3    0  502 -0.83615003805E+03 -0.16766481374E+03  0.61948398991E+01  0.85281695101E+03  0.00000000000E+00 0.  1.
         11    1    5    5    0    0  0.33176957663E+03 -0.47249661963E+02  0.69143354428E+03  0.76836445043E+03  0.00000000000E+00 0. -1.
        -11    1    5    5    0    0  0.44577649636E+02 -0.35683382366E+02  0.79405381348E+02  0.97804321025E+02  0.00000000000E+00 0.  1.
          3    1    6    6  503    0  0.32712069324E+03  0.20089314450E+03 -0.68150094358E+02  0.38988516106E+03  0.00000000000E+00 0. -1.
         -3    1    6    6    0  503  0.20152442419E+03  0.67473478545E+02  0.80694651661E+01  0.21267317678E+03  0.00000000000E+00 0.  1.
<mgrwt>
<rscale>  0 0.22936348E+04</rscale>
<asrwt>0</asrwt>
<pdfrwt beam="1">  1        2 0.13095522E+00 0.22936348E+04</pdfrwt>
<pdfrwt beam="2">  1       -1 0.23770538E+00 0.22936348E+04</pdfrwt>
<totfact> 0.27511909E+00</totfact>
</mgrwt>
</event>
<event>
12    6  0.1586493E-007  0.1485551E+04  0.7818608E-02  0.8894119E-01
          2   -1    0    0  501    0  0.00000000000E+00  0.00000000000E+00  0.12620143522E+04  0.12620143522E+04  0.00000000000E+00 0. -1.
         -1   -1    0    0    0  501 -0.00000000000E+00 -0.00000000000E+00 -0.43717047145E+03  0.43717047145E+03  0.00000000000E+00 0.  1.
         24    2    1    2    0    0  0.44517727920E+03  0.14280100446E+03  0.23265135053E+03  0.52821593667E+03  0.79438580349E+02 0.  0.
        254    2    1    2    0    0 -0.44517727920E+03 -0.14280100446E+03  0.59219253026E+03  0.11709688870E+04  0.89548936605E+03 0.  0.
         23    2    4    4    0    0 -0.67256452181E+03 -0.29181440104E+02  0.59262137678E+03  0.90150244208E+03  0.91169975320E+02 0.  0.
         23    2    4    4    0    0  0.22738724261E+03 -0.11361956436E+03 -0.42884652101E+00  0.26946644496E+03  0.89429399766E+02 0.  0.
          2    1    3    3  502    0  0.57810657963E+02  0.41514983200E+01  0.55564450915E+02  0.80291439880E+02  0.00000000000E+00 0. -1.
         -1    1    3    3    0  502  0.38736662124E+03  0.13864950614E+03  0.17708689962E+03  0.44792449679E+03  0.00000000000E+00 0.  1.
         11    1    5    5    0    0 -0.54368534245E+03 -0.13004935880E+02  0.42953043982E+03  0.69300741604E+03  0.00000000000E+00 0.  1.
        -11    1    5    5    0    0 -0.12887917936E+03 -0.16176504224E+02  0.16309093697E+03  0.20849502604E+03  0.00000000000E+00 0. -1.
          2    1    6    6  503    0  0.12680458252E+03 -0.63144056191E+02 -0.44688767799E+02  0.14853841237E+03  0.00000000000E+00 0. -1.
         -2    1    6    6    0  503  0.10058266009E+03 -0.50475508166E+02  0.44259921278E+02  0.12092803259E+03  0.00000000000E+00 0.  1.
<mgrwt>
<rscale>  0 0.14855510E+04</rscale>
<asrwt>0</asrwt>
<pdfrwt beam="1">  1        2 0.19415605E+00 0.14855510E+04</pdfrwt>
<pdfrwt beam="2">  1       -1 0.67256996E-01 0.14855510E+04</pdfrwt>
<totfact> 0.42968049E+01</totfact>
</mgrwt>
</event>
<event>
12    6  0.1586493E-007  0.1226419E+04  0.7818608E-02  0.9090042E-01
          2   -1    0    0  501    0  0.00000000000E+00  0.00000000000E+00  0.42090384712E+03  0.42090384712E+03  0.00000000000E+00 0. -1.
         -1   -1    0    0    0  501 -0.00000000000E+00 -0.00000000000E+00 -0.89337659399E+03  0.89337659399E+03  0.00000000000E+00 0.  1.
         24    2    1    2    0    0 -0.27034787862E+03 -0.23225566707E+02 -0.15779509770E+03  0.32306554682E+03  0.76450325449E+02 0.  0.
        254    2    1    2    0    0  0.27034787862E+03  0.23225566707E+02 -0.31467764918E+03  0.99121489429E+03  0.89992085282E+03 0.  0.
         23    2    4    4    0    0  0.39816317371E+03  0.35141193086E+03 -0.46830717621E+02  0.53975860776E+03  0.84391827163E+02 0.  0.
         23    2    4    4    0    0 -0.12781529509E+03 -0.32818636416E+03 -0.26784693156E+03  0.45145628652E+03  0.89597771295E+02 0.  0.
          4    1    3    3  502    0 -0.58931697386E+02  0.63815715058E+00 -0.12990123538E+01  0.58949466786E+02  0.00000000000E+00 0. -1.
         -3    1    3    3    0  502 -0.21141618123E+03 -0.23863723857E+02 -0.15649608535E+03  0.26411608003E+03  0.00000000000E+00 0.  1.
         11    1    5    5    0    0  0.31460527545E+03  0.28718443560E+03 -0.39789456049E+01  0.42598968462E+03  0.00000000000E+00 0. -1.
        -11    1    5    5    0    0  0.83557898261E+02  0.64227495264E+02 -0.42851772016E+02  0.11376892315E+03  0.00000000000E+00 0.  1.
          1    1    6    6  503    0 -0.10658234190E+03 -0.28387803917E+03 -0.26421491308E+03  0.40218908118E+03  0.00000000000E+00 0. -1.
         -1    1    6    6    0  503 -0.21232953187E+02 -0.44308324991E+02 -0.36320184805E+01  0.49267205348E+02  0.00000000000E+00 0.  1.
<mgrwt>
<rscale>  0 0.12264186E+04</rscale>
<asrwt>0</asrwt>
<pdfrwt beam="1">  1        2 0.64754439E-01 0.12264186E+04</pdfrwt>
<pdfrwt beam="2">  1       -1 0.13744255E+00 0.12264186E+04</pdfrwt>
<totfact> 0.37217792E+01</totfact>
</mgrwt>
</event>
<event>
12    6  0.1586493E-007  0.3771174E+04  0.7818608E-02  0.8052369E-01
          2   -1    0    0  501    0  0.00000000000E+00  0.00000000000E+00  0.11756032321E+04  0.11756032321E+04  0.00000000000E+00 0. -1.
         -3   -1    0    0    0  501 -0.00000000000E+00 -0.00000000000E+00 -0.30243523284E+04  0.30243523284E+04  0.00000000000E+00 0.  1.
         24    2    1    2    0    0 -0.11610507786E+04  0.93316254013E+03 -0.19495834252E+04  0.24547971601E+04  0.79513074052E+02 0.  0.
        254    2    1    2    0    0  0.11610507786E+04 -0.93316254013E+03  0.10083432889E+03  0.17451584004E+04  0.90364763245E+03 0.  0.
         23    2    4    4    0    0  0.86112707132E+03 -0.10865436780E+04  0.35524460253E+02  0.13898298979E+04  0.90819384430E+02 0.  0.
         23    2    4    4    0    0  0.29992370730E+03  0.15338113784E+03  0.65309868633E+02  0.35532850251E+03  0.92265714691E+02 0.  0.
          4    1    3    3  502    0 -0.62885923377E+02  0.34724026883E+02 -0.75816790482E+02  0.10444416269E+03  0.00000000000E+00 0. -1.
         -3    1    3    3    0  502 -0.10981648552E+04  0.89843851324E+03 -0.18737666347E+04  0.23503529975E+04  0.00000000000E+00 0.  1.
         11    1    5    5    0    0 -0.12171495349E+01  0.30482024249E+00 -0.14758856543E+01  0.19371646381E+01  0.00000000000E+00 0. -1.
        -11    1    5    5    0    0  0.86234422085E+03 -0.10868484982E+04  0.37000345907E+02  0.13878927332E+04  0.00000000000E+00 0.  1.
          3    1    6    6  503    0  0.22131873003E+03  0.10183745700E+03  0.50554167367E+01  0.24367684573E+03  0.00000000000E+00 0. -1.
         -3    1    6    6    0  503  0.78604977273E+02  0.51543680842E+02  0.60254451897E+02  0.11165165677E+03  0.00000000000E+00 0.  1.
<mgrwt>
<rscale>  0 0.37711740E+04</rscale>
<asrwt>0</asrwt>
<pdfrwt beam="1">  1        2 0.18086204E+00 0.37711740E+04</pdfrwt>
<pdfrwt beam="2">  1       -3 0.46528497E+00 0.37711740E+04</pdfrwt>
<totfact> 0.45622471E-02</totfact>
</mgrwt>
</event>
<event>
12    6  0.1586493E-007  0.1548732E+04  0.7818608E-02  0.8852678E-01
          2   -1    0    0  501    0  0.00000000000E+00  0.00000000000E+00  0.60341318437E+03  0.60341318437E+03  0.00000000000E+00 0. -1.
         -1   -1    0    0    0  501 -0.00000000000E+00 -0.00000000000E+00 -0.99375126207E+03  0.99375126207E+03  0.00000000000E+00 0.  1.
         24    2    1    2    0    0  0.48537586611E+02 -0.28796716077E+03 -0.53701249344E+03  0.61641987302E+03  0.79435878192E+02 0.  0.
        254    2    1    2    0    0 -0.48537586611E+02  0.28796716077E+03  0.14667441574E+03  0.98074457342E+03  0.92469754572E+03 0.  0.
         23    2    4    4    0    0  0.29793500272E+03  0.31995437139E+03 -0.19230129038E+03  0.48606539585E+03  0.90242546235E+02 0.  0.
         23    2    4    4    0    0 -0.34647258933E+03 -0.31987210620E+02  0.33897570612E+03  0.49467917756E+03  0.93469367060E+02 0.  0.
          4    1    3    3  502    0  0.16221413195E+02 -0.42798453640E+02 -0.15277694399E+03  0.15948553694E+03  0.00000000000E+00 0. -1.
         -3    1    3    3    0  502  0.32316173416E+02 -0.24516870713E+03 -0.38423554945E+03  0.45693433608E+03  0.00000000000E+00 0.  1.
         11    1    5    5    0    0  0.30152236397E+03  0.30603157637E+03 -0.17584132934E+03  0.46421033467E+03  0.00000000000E+00 0. -1.
        -11    1    5    5    0    0 -0.35873612561E+01  0.13922795016E+02 -0.16459961039E+02  0.21855061182E+02  0.00000000000E+00 0.  1.
          2    1    6    6  503    0 -0.35205999016E+03 -0.29538155216E+02  0.32779400034E+03  0.48194153789E+03  0.00000000000E+00 0. -1.
         -2    1    6    6    0  503  0.55874008305E+01 -0.24490554035E+01  0.11181705774E+02  0.12737639673E+02  0.00000000000E+00 0.  1.
<mgrwt>
<rscale>  0 0.15487319E+04</rscale>
<asrwt>0</asrwt>
<pdfrwt beam="1">  1        2 0.92832799E-01 0.15487319E+04</pdfrwt>
<pdfrwt beam="2">  1       -1 0.15288481E+00 0.15487319E+04</pdfrwt>
<totfact> 0.17952203E+01</totfact>
</mgrwt>
</event>
<event>
12    6  0.1586493E-007  0.1721969E+04  0.7818608E-02  0.8748933E-01
         -1   -1    0    0    0  501 -0.00000000000E+00  0.00000000000E+00  0.34305223348E+03  0.34305223348E+03  0.00000000000E+00 0.  1.
          2   -1    0    0  501    0  0.00000000000E+00 -0.00000000000E+00 -0.21608800434E+04  0.21608800434E+04  0.00000000000E+00 0. -1.
         24    2    1    2    0    0 -0.25176521183E+03 -0.42446000103E+03 -0.12116009076E+04  0.13108244492E+04  0.82048540616E+02 0.  0.
        254    2    1    2    0    0  0.25176521183E+03  0.42446000103E+03 -0.60622690233E+03  0.11931078277E+04  0.90135632075E+03 0.  0.
         23    2    4    4    0    0  0.47430956953E+03  0.56076397061E+03 -0.51304520600E+03  0.90058698768E+03  0.91737345103E+02 0.  0.
         23    2    4    4    0    0 -0.22254435770E+03 -0.13630396957E+03 -0.93181696330E+02  0.29252083999E+03  0.93706189931E+02 0.  0.
          4    1    3    3  502    0 -0.15146929890E+03 -0.26246902542E+03 -0.84451930909E+03  0.89724344592E+03  0.00000000000E+00 0. -1.
         -3    1    3    3    0  502 -0.10029591293E+03 -0.16199097561E+03 -0.36708159850E+03  0.41358100329E+03  0.00000000000E+00 0.  1.
         11    1    5    5    0    0  0.28226117647E+03  0.33433228249E+03 -0.35968127393E+03  0.56640980365E+03  0.00000000000E+00 0. -1.
        -11    1    5    5    0    0  0.19204839306E+03  0.22643168812E+03 -0.15336393208E+03  0.33417718403E+03  0.00000000000E+00 0.  1.
          2    1    6    6  503    0 -0.20213548195E+03 -0.85767901108E+02 -0.56199917908E+02  0.22665682583E+03  0.00000000000E+00 0. -1.
         -2    1    6    6    0  503 -0.20408875747E+02 -0.50536068466E+02 -0.36981778422E+02  0.65864014155E+02  0.00000000000E+00 0.  1.
<mgrwt>
<rscale>  0 0.17219695E+04</rscale>
<asrwt>0</asrwt>
<pdfrwt beam="1">  1        2 0.33244308E+00 0.17219695E+04</pdfrwt>
<pdfrwt beam="2">  1       -1 0.52777267E-01 0.17219695E+04</pdfrwt>
<totfact> 0.21273004E+01</totfact>
</mgrwt>
</event>
<event>
12    6  0.1586493E-007  0.1077858E+04  0.7818608E-02  0.9227045E-01
         -1   -1    0    0    0  501 -0.00000000000E+00  0.00000000000E+00  0.21288260278E+03  0.21288260278E+03  0.00000000000E+00 0.  1.
          2   -1    0    0  501    0  0.00000000000E+00 -0.00000000000E+00 -0.13643421914E+04  0.13643421914E+04  0.00000000000E+00 0. -1.
         24    2    1    2    0    0 -0.18252053105E+03 -0.91310364848E+02 -0.35889658589E+03  0.42102561382E+03  0.82489278948E+02 0.  0.
        254    2    1    2    0    0  0.18252053105E+03  0.91310364848E+02 -0.79256300276E+03  0.11561991804E+04  0.81669400905E+03 0.  0.
         23    2    4    4    0    0  0.34838882005E+03  0.21475163065E+03 -0.82791212463E+03  0.92802951012E+03  0.91144131596E+02 0.  0.
         23    2    4    4    0    0 -0.16586828900E+03 -0.12344126580E+03  0.35349121872E+02  0.22816967028E+03  0.89787541560E+02 0.  0.
          4    1    3    3  502    0  0.59714005733E+01  0.53223760555E+01 -0.93142802720E+01  0.12277667884E+02  0.00000000000E+00 0. -1.
         -3    1    3    3    0  502 -0.18849193163E+03 -0.96632740903E+02 -0.34958230562E+03  0.40874794593E+03  0.00000000000E+00 0.  1.
         11    1    5    5    0    0  0.32255370229E+03  0.16300077049E+03 -0.70898873367E+03  0.79578587981E+03  0.00000000000E+00 0.  1.
        -11    1    5    5    0    0  0.25835117769E+02  0.51750860159E+02 -0.11892339096E+03  0.13224363030E+03  0.00000000000E+00 0. -1.
          4    1    6    6  503    0 -0.13944654845E+03 -0.64482974130E+02  0.50662533982E+02  0.16177171006E+03  0.00000000000E+00 0.  1.
         -4    1    6    6    0  503 -0.26421740553E+02 -0.58958291671E+02 -0.15313412110E+02  0.66397960218E+02  0.00000000000E+00 0. -1.
<mgrwt>
<rscale>  0 0.10778585E+04</rscale>
<asrwt>0</asrwt>
<pdfrwt beam="1">  1        2 0.20989879E+00 0.10778585E+04</pdfrwt>
<pdfrwt beam="2">  1       -1 0.32751171E-01 0.10778585E+04</pdfrwt>
<totfact> 0.15000886E+02</totfact>
</mgrwt>
</event>
<event>
12    6  0.1586493E-007  0.1860171E+04  0.7818608E-02  0.8674940E-01
          2   -1    0    0  501    0  0.00000000000E+00  0.00000000000E+00  0.94437844299E+03  0.94437844299E+03  0.00000000000E+00 0. -1.
         -1   -1    0    0    0  501 -0.00000000000E+00 -0.00000000000E+00 -0.91600896901E+03  0.91600896901E+03  0.00000000000E+00 0.  1.
         24    2    1    2    0    0 -0.24748942036E+03 -0.12782311472E+03  0.65361834538E+03  0.71633363605E+03  0.91253355362E+02 0.  0.
        254    2    1    2    0    0  0.24748942036E+03  0.12782311472E+03 -0.62524887140E+03  0.11440537759E+04  0.91669685787E+03 0.  0.
         23    2    4    4    0    0  0.25347858554E+03  0.19004657387E+03  0.14967168324E+03  0.36118577322E+03  0.87661031513E+02 0.  0.
         23    2    4    4    0    0 -0.59891651740E+01 -0.62223459149E+02 -0.77492055464E+03  0.78286800273E+03  0.92047893639E+02 0.  0.
          4    1    3    3  502    0 -0.84879257237E+02 -0.68569972985E+02  0.35272655349E+03  0.36921856812E+03  0.00000000000E+00 0. -1.
         -3    1    3    3    0  502 -0.16261016313E+03 -0.59253141731E+02  0.30089179189E+03  0.34711506793E+03  0.00000000000E+00 0.  1.
         11    1    5    5    0    0  0.10543147305E+03  0.27869015275E+02  0.46093411586E+02  0.11839375031E+03  0.00000000000E+00 0.  1.
        -11    1    5    5    0    0  0.14804711249E+03  0.16217755859E+03  0.10357827166E+03  0.24279202290E+03  0.00000000000E+00 0. -1.
          2    1    6    6  503    0 -0.11279555891E+02 -0.53031271392E+02 -0.76862403642E+03  0.77053387562E+03  0.00000000000E+00 0. -1.
         -2    1    6    6    0  503  0.52903907168E+01 -0.91921877573E+01 -0.62965182254E+01  0.12334127106E+02  0.00000000000E+00 0.  1.
<mgrwt>
<rscale>  0 0.18601711E+04</rscale>
<asrwt>0</asrwt>
<pdfrwt beam="1">  1        2 0.14528899E+00 0.18601711E+04</pdfrwt>
<pdfrwt beam="2">  1       -1 0.14092446E+00 0.18601711E+04</pdfrwt>
<totfact> 0.12094813E+01</totfact>
</mgrwt>
</event>
<event>
12    6  0.1586493E-007  0.1704210E+04  0.7818608E-02  0.8758967E-01
         -1   -1    0    0    0  501 -0.00000000000E+00  0.00000000000E+00  0.59942222984E+03  0.59942222984E+03  0.00000000000E+00 0.  1.
          2   -1    0    0  501    0  0.00000000000E+00 -0.00000000000E+00 -0.12113044311E+04  0.12113044311E+04  0.00000000000E+00 0. -1.
         24    2    1    2    0    0 -0.47544775385E+03 -0.36370174130E+03 -0.12045600087E+03  0.61767019583E+03  0.93152023070E+02 0.  0.
        254    2    1    2    0    0  0.47544775385E+03  0.36370174130E+03 -0.49142620036E+03  0.11930564651E+04  0.90749903318E+03 0.  0.
         23    2    4    4    0    0  0.53317527604E+03  0.37066106352E+03  0.33190505178E+02  0.65676142095E+03  0.92565951791E+02 0.  0.
         23    2    4    4    0    0 -0.57727522188E+02 -0.69593222180E+01 -0.52461670553E+03  0.53629504413E+03  0.94914633494E+02 0.  0.
          2    1    3    3  502    0 -0.35157056607E+03 -0.25884461487E+03 -0.12872440319E+03  0.45516191576E+03  0.00000000000E+00 0. -1.
         -1    1    3    3    0  502 -0.12387718778E+03 -0.10485712643E+03  0.82684023284E+01  0.16250828007E+03  0.00000000000E+00 0.  1.
         11    1    5    5    0    0  0.83395624889E+01  0.23810870057E+02  0.10305348321E+02  0.27252633623E+02  0.00000000000E+00 0.  1.
        -11    1    5    5    0    0  0.52483571355E+03  0.34685019346E+03  0.22885156857E+02  0.62950878733E+03  0.00000000000E+00 0. -1.
          2    1    6    6  503    0 -0.64953475815E+02  0.27507082998E+02 -0.42072457532E+03  0.42659672047E+03  0.00000000000E+00 0. -1.
         -2    1    6    6    0  503  0.72259536270E+01 -0.34466405216E+02 -0.10389213021E+03  0.10969832366E+03  0.00000000000E+00 0.  1.
<mgrwt>
<rscale>  0 0.17042098E+04</rscale>
<asrwt>0</asrwt>
<pdfrwt beam="1">  1        2 0.18635452E+00 0.17042098E+04</pdfrwt>
<pdfrwt beam="2">  1       -1 0.92218806E-01 0.17042098E+04</pdfrwt>
<totfact> 0.23150223E+01</totfact>
</mgrwt>
</event>
<event>
12    6  0.1586493E-007  0.4552274E+04  0.7818608E-02  0.7901549E-01
          2   -1    0    0  501    0  0.00000000000E+00  0.00000000000E+00  0.26203808988E+04  0.26203808988E+04  0.00000000000E+00 0. -1.
         -3   -1    0    0    0  501 -0.00000000000E+00 -0.00000000000E+00 -0.19771171403E+04  0.19771171403E+04  0.00000000000E+00 0.  1.
         24    2    1    2    0    0  0.96527599329E+03 -0.17624302805E+03  0.22900996422E+04  0.24926874240E+04  0.78197661847E+02 0.  0.
        254    2    1    2    0    0 -0.96527599329E+03  0.17624302805E+03 -0.16468358837E+04  0.21048106151E+04  0.86910295658E+03 0.  0.
         23    2    4    4    0    0 -0.61623137546E+03 -0.21190699168E+03 -0.13387722911E+04  0.14920096530E+04  0.95581776629E+02 0.  0.
         23    2    4    4    0    0 -0.34904461783E+03  0.38815001973E+03 -0.30806359267E+03  0.61280096208E+03  0.90162403177E+02 0.  0.
          4    1    3    3  502    0  0.52898116747E+03 -0.13180587428E+03  0.13135679941E+04  0.14222006677E+04  0.00000000000E+00 0. -1.
         -3    1    3    3    0  502  0.43629482582E+03 -0.44437153769E+02  0.97653164807E+03  0.10704867563E+04  0.00000000000E+00 0.  1.
         11    1    5    5    0    0 -0.42202426388E+03 -0.18083013028E+03 -0.99812086166E+03  0.10986579403E+04  0.00000000000E+00 0. -1.
        -11    1    5    5    0    0 -0.19420711158E+03 -0.31076861402E+02 -0.34065142940E+03  0.39335171267E+03  0.00000000000E+00 0.  1.
          2    1    6    6  503    0 -0.87422502063E+02  0.70995078518E+02 -0.30280242320E+02  0.11661855820E+03  0.00000000000E+00 0.  1.
         -2    1    6    6    0  503 -0.26162211576E+03  0.31715494121E+03 -0.27778335035E+03  0.49618240389E+03  0.00000000000E+00 0. -1.
<mgrwt>
<rscale>  0 0.45522742E+04</rscale>
<asrwt>0</asrwt>
<pdfrwt beam="1">  1        2 0.40313552E+00 0.45522742E+04</pdfrwt>
<pdfrwt beam="2">  1       -3 0.30417187E+00 0.45522742E+04</pdfrwt>
<totfact> 0.50638068E-02</totfact>
</mgrwt>
</event>
<event>
12    6  0.1586493E-007  0.1764592E+04  0.7818608E-02  0.8725359E-01
          2   -1    0    0  501    0  0.00000000000E+00  0.00000000000E+00  0.29073168657E+04  0.29073168657E+04  0.00000000000E+00 0. -1.
         -1   -1    0    0    0  501 -0.00000000000E+00 -0.00000000000E+00 -0.26775428532E+03  0.26775428532E+03  0.00000000000E+00 0.  1.
         24    2    1    2    0    0 -0.11872416492E+03 -0.52889978070E+03  0.39460786576E+03  0.67544399089E+03  0.81723997443E+02 0.  0.
        254    2    1    2    0    0  0.11872416492E+03  0.52889978070E+03  0.22449547147E+04  0.24996271602E+04  0.95628649660E+03 0.  0.
         23    2    4    4    0    0  0.43406429769E+03 -0.31611558848E+02  0.10305512662E+04  0.11224330631E+04  0.91700402493E+02 0.  0.
         23    2    4    4    0    0 -0.31534013277E+03  0.56051133954E+03  0.12144034485E+04  0.13771940970E+04  0.90969687843E+02 0.  0.
          2    1    3    3  502    0  0.57043932027E+01 -0.13451013484E+03  0.97981093997E+02  0.16651069413E+03  0.00000000000E+00 0. -1.
         -1    1    3    3    0  502 -0.12442855812E+03 -0.39438964585E+03  0.29662677176E+03  0.50893329677E+03  0.00000000000E+00 0.  1.
         11    1    5    5    0    0  0.43644228368E+03 -0.26272726837E+02  0.10012365863E+04  0.10925414523E+04  0.00000000000E+00 0. -1.
        -11    1    5    5    0    0 -0.23779859919E+01 -0.53388320104E+01  0.29314679820E+02  0.29891610823E+02  0.00000000000E+00 0.  1.
          1    1    6    6  503    0 -0.27198565916E+03  0.40518985259E+03  0.92934181812E+03  0.10496814899E+04  0.00000000000E+00 0. -1.
         -1    1    6    6    0  503 -0.43354473611E+02  0.15532148695E+03  0.28506163038E+03  0.32751260710E+03  0.00000000000E+00 0.  1.
<mgrwt>
<rscale>  0 0.17645924E+04</rscale>
<asrwt>0</asrwt>
<pdfrwt beam="1">  1        2 0.44727949E+00 0.17645924E+04</pdfrwt>
<pdfrwt beam="2">  1       -1 0.41192969E-01 0.17645924E+04</pdfrwt>
<totfact> 0.12411414E+01</totfact>
</mgrwt>
</event>
<event>
12    6  0.1586493E-007  0.2130020E+04  0.7818608E-02  0.8548133E-01
         -1   -1    0    0    0  501 -0.00000000000E+00  0.00000000000E+00  0.86463234474E+03  0.86463234474E+03  0.00000000000E+00 0.  1.
          2   -1    0    0  501    0  0.00000000000E+00 -0.00000000000E+00 -0.13118252015E+04  0.13118252015E+04  0.00000000000E+00 0. -1.
         24    2    1    2    0    0 -0.56224036324E+03 -0.56554164805E+03  0.16326743960E+03  0.81787046717E+03  0.79399386013E+02 0.  0.
        254    2    1    2    0    0  0.56224036324E+03  0.56554164805E+03 -0.61046029635E+03  0.13585870791E+04  0.91495655428E+03 0.  0.
         23    2    4    4    0    0  0.73971697059E+03  0.17853361254E+03 -0.47829689368E+03  0.90343491467E+03  0.91494694750E+02 0.  0.
         23    2    4    4    0    0 -0.17747660734E+03  0.38700803551E+03 -0.13216340267E+03  0.45515216438E+03  0.91777786138E+02 0.  0.
          4    1    3    3  502    0 -0.73205041501E+02 -0.79541291132E+02 -0.48579509050E+01  0.10820995695E+03  0.00000000000E+00 0. -1.
         -3    1    3    3    0  502 -0.48903532174E+03 -0.48600035692E+03  0.16812539050E+03  0.70966051022E+03  0.00000000000E+00 0.  1.
         11    1    5    5    0    0  0.18179517556E+02  0.36934515359E+01  0.28067454629E+01  0.18762043143E+02  0.00000000000E+00 0. -1.
        -11    1    5    5    0    0  0.72153745303E+03  0.17484016100E+03 -0.48110363914E+03  0.88467287153E+03  0.00000000000E+00 0.  1.
          1    1    6    6  503    0 -0.54958420006E+02  0.22908663377E+03 -0.75846750197E+02  0.24749513776E+03  0.00000000000E+00 0. -1.
         -1    1    6    6    0  503 -0.12251818734E+03  0.15792140174E+03 -0.56316652472E+02  0.20765702662E+03  0.00000000000E+00 0.  1.
<mgrwt>
<rscale>  0 0.21300202E+04</rscale>
<asrwt>0</asrwt>
<pdfrwt beam="1">  1        2 0.20181926E+00 0.21300202E+04</pdfrwt>
<pdfrwt beam="2">  1       -1 0.13302036E+00 0.21300202E+04</pdfrwt>
<totfact> 0.81563779E+00</totfact>
</mgrwt>
</event>
<event>
12    6  0.1586493E-007  0.1969425E+04  0.7818608E-02  0.8621051E-01
         -1   -1    0    0    0  501 -0.00000000000E+00  0.00000000000E+00  0.38912654935E+03  0.38912654935E+03  0.00000000000E+00 0.  1.
          2   -1    0    0  501    0  0.00000000000E+00 -0.00000000000E+00 -0.24918844494E+04  0.24918844494E+04  0.00000000000E+00 0. -1.
         24    2    1    2    0    0 -0.45182277326E+03 -0.67018445305E+03 -0.89632198132E+03  0.12103593798E+04  0.91025900434E+02 0.  0.
        254    2    1    2    0    0  0.45182277326E+03  0.67018445305E+03 -0.12064359188E+04  0.16706516190E+04  0.82601342986E+03 0.  0.
         23    2    4    4    0    0  0.65449979480E+03  0.31146269899E+03 -0.70936203412E+03  0.10185593788E+04  0.94285303889E+02 0.  0.
         23    2    4    4    0    0 -0.20267702153E+03  0.35872175406E+03 -0.49707388465E+03  0.65209224012E+03  0.91556381179E+02 0.  0.
          4    1    3    3  502    0 -0.43716901957E+03 -0.65922572139E+03 -0.85291796137E+03  0.11632559272E+04  0.00000000000E+00 0. -1.
         -3    1    3    3    0  502 -0.14653753695E+02 -0.10958731659E+02 -0.43404019954E+02  0.47103452582E+02  0.00000000000E+00 0.  1.
         11    1    5    5    0    0  0.28838489323E+03  0.13554507517E+03 -0.24737402890E+03  0.40340082328E+03  0.00000000000E+00 0.  1.
        -11    1    5    5    0    0  0.36611490157E+03  0.17591762382E+03 -0.46198800522E+03  0.61515855557E+03  0.00000000000E+00 0. -1.
          3    1    6    6  503    0 -0.29338469548E+02  0.11799722735E+03 -0.18632521922E+03  0.22248860370E+03  0.00000000000E+00 0. -1.
         -3    1    6    6    0  503 -0.17333855198E+03  0.24072452671E+03 -0.31074866543E+03  0.42960363643E+03  0.00000000000E+00 0.  1.
<mgrwt>
<rscale>  0 0.19694247E+04</rscale>
<asrwt>0</asrwt>
<pdfrwt beam="1">  1        2 0.38336684E+00 0.19694247E+04</pdfrwt>
<pdfrwt beam="2">  1       -1 0.59865623E-01 0.19694247E+04</pdfrwt>
<totfact> 0.10561752E+01</totfact>
</mgrwt>
</event>
<event>
12    6  0.1586493E-007  0.3800463E+04  0.7818608E-02  0.8046056E-01
          2   -1    0    0  501    0  0.00000000000E+00  0.00000000000E+00  0.37268683657E+04  0.37268683657E+04  0.00000000000E+00 0. -1.
         -1   -1    0    0    0  501 -0.00000000000E+00 -0.00000000000E+00 -0.96887779654E+03  0.96887779654E+03  0.00000000000E+00 0.  1.
         24    2    1    2    0    0 -0.93429224101E+03 -0.62620913857E+03  0.30282331397E+04  0.32313494521E+04  0.79896536413E+02 0.  0.
        254    2    1    2    0    0  0.93429224101E+03  0.62620913857E+03 -0.27024257053E+03  0.14643967101E+04  0.89799042358E+03 0.  0.
         23    2    4    4    0    0  0.33205386333E+03 -0.18892225946E+02  0.25894364101E+03  0.43165751471E+03  0.93057597361E+02 0.  0.
         23    2    4    4    0    0  0.60223837768E+03  0.64510136452E+03 -0.52918621154E+03  0.10327391954E+04  0.87552071400E+02 0.  0.
          2    1    3    3  502    0 -0.16638386313E+03 -0.12828383627E+03  0.48928959395E+03  0.53248909782E+03  0.00000000000E+00 0. -1.
         -1    1    3    3    0  502 -0.76790837789E+03 -0.49792530230E+03  0.25389435457E+04  0.26988603543E+04  0.00000000000E+00 0.  1.
         11    1    5    5    0    0  0.31715920359E+03 -0.73854879120E+01  0.26337203786E+03  0.41232188419E+03  0.00000000000E+00 0.  1.
        -11    1    5    5    0    0  0.14894659739E+02 -0.11506738034E+02 -0.44283968445E+01  0.19335630518E+02  0.00000000000E+00 0. -1.
          4    1    6    6  503    0  0.37253540635E+03  0.40454280894E+03 -0.37834845807E+03  0.66752158690E+03  0.00000000000E+00 0.  1.
         -4    1    6    6    0  503  0.22970297133E+03  0.24055855557E+03 -0.15083775347E+03  0.36521760852E+03  0.00000000000E+00 0. -1.
<mgrwt>
<rscale>  0 0.38004631E+04</rscale>
<asrwt>0</asrwt>
<pdfrwt beam="1">  1        2 0.57336436E+00 0.38004631E+04</pdfrwt>
<pdfrwt beam="2">  1       -1 0.14905812E+00 0.38004631E+04</pdfrwt>
<totfact> 0.17956167E-01</totfact>
</mgrwt>
</event>
<event>
12    6  0.1586493E-007  0.1687324E+04  0.7818608E-02  0.8768627E-01
         -1   -1    0    0    0  501 -0.00000000000E+00  0.00000000000E+00  0.74429381200E+03  0.74429381200E+03  0.00000000000E+00 0.  1.
          2   -1    0    0  501    0  0.00000000000E+00 -0.00000000000E+00 -0.95629685494E+03  0.95629685494E+03  0.00000000000E+00 0. -1.
         24    2    1    2    0    0 -0.52194320699E+03 -0.11195163621E+03  0.19738544734E+03  0.57492380511E+03  0.81354082192E+02 0.  0.
        254    2    1    2    0    0  0.52194320699E+03  0.11195163621E+03 -0.40938849028E+03  0.11256668618E+04  0.90253480136E+03 0.  0.
         23    2    4    4    0    0 -0.88226328715E+02 -0.36338417339E+01 -0.47802309957E+03  0.49450087856E+03  0.90708022205E+02 0.  0.
         23    2    4    4    0    0  0.61016953571E+03  0.11558547795E+03  0.68634609292E+02  0.63116598326E+03  0.89403153292E+02 0.  0.
          4    1    3    3  502    0 -0.33428651543E+02 -0.21690294494E+02  0.32720841279E+02  0.51561585247E+02  0.00000000000E+00 0. -1.
         -3    1    3    3    0  502 -0.48851455545E+03 -0.90261341720E+02  0.16466460606E+03  0.52336221987E+03  0.00000000000E+00 0.  1.
         11    1    5    5    0    0 -0.67138702059E+02  0.11483391695E+02 -0.45419221228E+03  0.45927120452E+03  0.00000000000E+00 0. -1.
        -11    1    5    5    0    0 -0.21087626656E+02 -0.15117233429E+02 -0.23830887287E+02  0.35229674046E+02  0.00000000000E+00 0.  1.
          4    1    6    6  503    0  0.47197412567E+03  0.12224797898E+03  0.35142459708E+02  0.48881400976E+03  0.00000000000E+00 0. -1.
         -4    1    6    6    0  503  0.13819541004E+03 -0.66625010345E+01  0.33492149584E+02  0.14235197350E+03  0.00000000000E+00 0.  1.
<mgrwt>
<rscale>  0 0.16873243E+04</rscale>
<asrwt>0</asrwt>
<pdfrwt beam="1">  1        2 0.14712259E+00 0.16873243E+04</pdfrwt>
<pdfrwt beam="2">  1       -1 0.11450674E+00 0.16873243E+04</pdfrwt>
<totfact> 0.20273910E+01</totfact>
</mgrwt>
</event>
<event>
12    6  0.1586493E-007  0.1735803E+04  0.7818608E-02  0.8741204E-01
         -1   -1    0    0    0  501 -0.00000000000E+00  0.00000000000E+00  0.12074625798E+04  0.12074625798E+04  0.00000000000E+00 0.  1.
          2   -1    0    0  501    0  0.00000000000E+00 -0.00000000000E+00 -0.62383104779E+03  0.62383104779E+03  0.00000000000E+00 0. -1.
         24    2    1    2    0    0 -0.36504477781E+03  0.25924160455E+03 -0.25246519356E+03  0.51939043374E+03  0.74591215076E+02 0.  0.
        254    2    1    2    0    0  0.36504477781E+03 -0.25924160455E+03  0.83609672558E+03  0.13119031939E+04  0.90640407998E+03 0.  0.
         23    2    4    4    0    0  0.11933555572E+03 -0.43507667388E+03  0.45599280842E+02  0.46152770467E+03  0.85999074162E+02 0.  0.
         23    2    4    4    0    0  0.24570922210E+03  0.17583506933E+03  0.79049744474E+03  0.85037548919E+03  0.83434219878E+02 0.  0.
          4    1    3    3  502    0 -0.34178980319E+03  0.24770147847E+03 -0.21473054360E+03  0.47358789929E+03  0.00000000000E+00 0. -1.
         -3    1    3    3    0  502 -0.23254974622E+02  0.11540126079E+02 -0.37734649956E+02  0.45802534448E+02  0.00000000000E+00 0.  1.
         11    1    5    5    0    0  0.36201949373E+02 -0.42903346086E+02  0.20826720070E+02  0.59875124323E+02  0.00000000000E+00 0. -1.
        -11    1    5    5    0    0  0.83133606344E+02 -0.39217332779E+03  0.24772560772E+02  0.40165258035E+03  0.00000000000E+00 0.  1.
          1    1    6    6  503    0  0.13328386309E+02  0.42982641050E+02  0.94141288767E+02  0.10434431256E+03  0.00000000000E+00 0. -1.
         -1    1    6    6    0  503  0.23238083579E+03  0.13285242828E+03  0.69635615597E+03  0.74603117663E+03  0.00000000000E+00 0.  1.
<mgrwt>
<rscale>  0 0.17358026E+04</rscale>
<asrwt>0</asrwt>
<pdfrwt beam="1">  1        2 0.95974007E-01 0.17358026E+04</pdfrwt>
<pdfrwt beam="2">  1       -1 0.18576347E+00 0.17358026E+04</pdfrwt>
<totfact> 0.97026713E+00</totfact>
</mgrwt>
</event>
<event>
12    6  0.1586493E-007  0.1342144E+04  0.7818608E-02  0.8996797E-01
         -1   -1    0    0    0  501 -0.00000000000E+00  0.00000000000E+00  0.12914888832E+03  0.12914888832E+03  0.00000000000E+00 0.  1.
          2   -1    0    0  501    0  0.00000000000E+00 -0.00000000000E+00 -0.34869625214E+04  0.34869625214E+04  0.00000000000E+00 0. -1.
         24    2    1    2    0    0  0.36166112250E+03  0.15781836404E+01 -0.96620495147E+03  0.10347190415E+04  0.79310960638E+02 0.  0.
        254    2    1    2    0    0 -0.36166112250E+03 -0.15781836404E+01 -0.23916086816E+04  0.25813923681E+04  0.90166136346E+03 0.  0.
         23    2    4    4    0    0 -0.61999683849E+02 -0.42040023622E+03 -0.87482551825E+03  0.97684940508E+03  0.91294870607E+02 0.  0.
         23    2    4    4    0    0 -0.29966143866E+03  0.41882205258E+03 -0.15167831633E+04  0.16045429631E+04  0.93370585643E+02 0.  0.
          2    1    3    3  502    0  0.11934464717E+03  0.23718641187E+02 -0.24460703994E+03  0.27320015142E+03  0.00000000000E+00 0. -1.
         -1    1    3    3    0  502  0.24231647533E+03 -0.22140457546E+02 -0.72159791153E+03  0.76151889011E+03  0.00000000000E+00 0.  1.
         11    1    5    5    0    0 -0.70649325159E+02 -0.17340096711E+03 -0.36069001832E+03  0.40639452734E+03  0.00000000000E+00 0.  1.
        -11    1    5    5    0    0  0.86496413104E+01 -0.24699926912E+03 -0.51413549993E+03  0.57045487773E+03  0.00000000000E+00 0. -1.
          2    1    6    6  503    0  0.27138576083E+01  0.95563653902E+01 -0.97437423815E+01  0.13915087430E+02  0.00000000000E+00 0. -1.
         -2    1    6    6    0  503 -0.30237529626E+03  0.40926568719E+03 -0.15070394209E+04  0.15906278756E+04  0.00000000000E+00 0.  1.
<mgrwt>
<rscale>  0 0.13421436E+04</rscale>
<asrwt>0</asrwt>
<pdfrwt beam="1">  1        2 0.53645573E+00 0.13421436E+04</pdfrwt>
<pdfrwt beam="2">  1       -1 0.19869061E-01 0.13421436E+04</pdfrwt>
<totfact> 0.19477157E+01</totfact>
</mgrwt>
</event>
<event>
12    6  0.1586493E-007  0.1267770E+04  0.7818608E-02  0.9055522E-01
         -3   -1    0    0    0  501 -0.00000000000E+00  0.00000000000E+00  0.31318594459E+03  0.31318594459E+03  0.00000000000E+00 0.  1.
          4   -1    0    0  501    0  0.00000000000E+00 -0.00000000000E+00 -0.12829766024E+04  0.12829766024E+04  0.00000000000E+00 0. -1.
         24    2    1    2    0    0  0.67765543952E+02 -0.27836192321E+03 -0.98067457555E+02  0.31383645325E+03  0.82453404502E+02 0.  0.
        254    2    1    2    0    0 -0.67765543952E+02  0.27836192321E+03 -0.87172320024E+03  0.12823260937E+04  0.89575741335E+03 0.  0.
         23    2    4    4    0    0  0.11357411940E+03 -0.26900040853E+03 -0.11626804124E+03  0.32770423703E+03  0.92798217483E+02 0.  0.
         23    2    4    4    0    0 -0.18133966335E+03  0.54736233174E+03 -0.75545515900E+03  0.95462185669E+03  0.90004423796E+02 0.  0.
          4    1    3    3  502    0  0.65969001289E+02 -0.12428428033E+03 -0.70207150098E+02  0.15724991381E+03  0.00000000000E+00 0. -1.
         -3    1    3    3    0  502  0.17965426636E+01 -0.15407764288E+03 -0.27860307456E+02  0.15658653944E+03  0.00000000000E+00 0.  1.
         11    1    5    5    0    0  0.31656167626E+02 -0.18748698254E+03 -0.61665956538E+02  0.19989039939E+03  0.00000000000E+00 0. -1.
        -11    1    5    5    0    0  0.81917951775E+02 -0.81513425982E+02 -0.54602084701E+02  0.12781383764E+03  0.00000000000E+00 0.  1.
          3    1    6    6  503    0 -0.27319915796E+02  0.22035635521E+03 -0.27912246283E+03  0.35666882446E+03  0.00000000000E+00 0. -1.
         -3    1    6    6    0  503 -0.15401974756E+03  0.32700597653E+03 -0.47633269617E+03  0.59795303224E+03  0.00000000000E+00 0.  1.
<mgrwt>
<rscale>  0 0.12677701E+04</rscale>
<asrwt>0</asrwt>
<pdfrwt beam="1">  1        4 0.19738101E+00 0.12677701E+04</pdfrwt>
<pdfrwt beam="2">  1       -3 0.48182454E-01 0.12677701E+04</pdfrwt>
<totfact> 0.13165897E+00</totfact>
</mgrwt>
</event>
<event>
12    6  0.1586493E-007  0.2175831E+04  0.7818608E-02  0.8528556E-01
          2   -1    0    0  501    0  0.00000000000E+00  0.00000000000E+00  0.38782143547E+04  0.38782143547E+04  0.00000000000E+00 0. -1.
         -1   -1    0    0    0  501 -0.00000000000E+00 -0.00000000000E+00 -0.30518159827E+03  0.30518159827E+03  0.00000000000E+00 0.  1.
         24    2    1    2    0    0  0.45281519130E+03  0.55430842078E+03  0.43921713037E+03  0.84376275949E+03  0.82002950380E+02 0.  0.
        254    2    1    2    0    0 -0.45281519130E+03 -0.55430842078E+03  0.31338156260E+04  0.33396331934E+04  0.90556615772E+03 0.  0.
         23    2    4    4    0    0 -0.13372410472E+03  0.24074691384E+03  0.73672758234E+03  0.79237080723E+03  0.96139236844E+02 0.  0.
         23    2    4    4    0    0 -0.31909108658E+03 -0.79505533462E+03  0.23970880437E+04  0.25472623862E+04  0.92641612676E+02 0.  0.
          4    1    3    3  502    0  0.85165748138E+01  0.15966707526E+01 -0.15427161755E+01  0.88012145326E+01  0.00000000000E+00 0. -1.
         -3    1    3    3    0  502  0.44429861649E+03  0.55271175002E+03  0.44075984654E+03  0.83496154495E+03  0.00000000000E+00 0.  1.
         11    1    5    5    0    0 -0.76893485641E+02  0.17340897846E+03  0.60375473502E+03  0.63285311251E+03  0.00000000000E+00 0. -1.
        -11    1    5    5    0    0 -0.56830619079E+02  0.67337935387E+02  0.13297284732E+03  0.15951769473E+03  0.00000000000E+00 0.  1.
          3    1    6    6  503    0 -0.31324545320E+03 -0.71904573302E+03  0.22195084753E+04  0.23540109073E+04  0.00000000000E+00 0. -1.
         -3    1    6    6    0  503 -0.58456333850E+01 -0.76009601601E+02  0.17757956842E+03  0.19325147887E+03  0.00000000000E+00 0.  1.
<mgrwt>
<rscale>  0 0.21758306E+04</rscale>
<asrwt>0</asrwt>
<pdfrwt beam="1">  1        2 0.59664833E+00 0.21758306E+04</pdfrwt>
<pdfrwt beam="2">  1       -1 0.46951018E-01 0.21758306E+04</pdfrwt>
<totfact> 0.20280307E+00</totfact>
</mgrwt>
</event>
<event>
12    6  0.1586493E-007  0.2168916E+04  0.7818608E-02  0.8531478E-01
          2   -1    0    0  501    0  0.00000000000E+00  0.00000000000E+00  0.41601906791E+04  0.41601906791E+04  0.00000000000E+00 0. -1.
         -1   -1    0    0    0  501 -0.00000000000E+00 -0.00000000000E+00 -0.28269114995E+03  0.28269114995E+03  0.00000000000E+00 0.  1.
         24    2    1    2    0    0  0.41462106920E+03 -0.60863639763E+03  0.56085645304E+03  0.92927998272E+03  0.81562429035E+02 0.  0.
        254    2    1    2    0    0 -0.41462106920E+03  0.60863639763E+03  0.33166430762E+04  0.35136018464E+04  0.89606235536E+03 0.  0.
         23    2    4    4    0    0 -0.45383463702E+03  0.17046589266E+03  0.68525194707E+03  0.84424077593E+03  0.90264934839E+02 0.  0.
         23    2    4    4    0    0  0.39213567816E+02  0.43817050497E+03  0.26313911291E+04  0.26693610704E+04  0.87966782625E+02 0.  0.
          2    1    3    3  502    0  0.12293068914E+03 -0.19454710923E+03  0.22283209553E+03  0.32033525382E+03  0.00000000000E+00 0. -1.
         -1    1    3    3    0  502  0.29169038007E+03 -0.41408928840E+03  0.33802435750E+03  0.60894472890E+03  0.00000000000E+00 0.  1.
         11    1    5    5    0    0 -0.11431758939E+02  0.69087715056E+01  0.12991313471E+01  0.13420282352E+02  0.00000000000E+00 0. -1.
        -11    1    5    5    0    0 -0.44240287808E+03  0.16355712115E+03  0.68395281572E+03  0.83082049358E+03  0.00000000000E+00 0.  1.
          3    1    6    6  503    0 -0.26855610810E+02  0.99680845662E+02  0.55383170862E+03  0.56337115324E+03  0.00000000000E+00 0. -1.
         -3    1    6    6    0  503  0.66069178626E+02  0.33848965931E+03  0.20775594205E+04  0.21059899172E+04  0.00000000000E+00 0.  1.
<mgrwt>
<rscale>  0 0.21689159E+04</rscale>
<asrwt>0</asrwt>
<pdfrwt beam="1">  1        2 0.64002929E+00 0.21689159E+04</pdfrwt>
<pdfrwt beam="2">  1       -1 0.43490949E-01 0.21689159E+04</pdfrwt>
<totfact> 0.13820808E+00</totfact>
</mgrwt>
</event>
<event>
12    6  0.1586493E-007  0.2535094E+04  0.7818608E-02  0.8390589E-01
         -1   -1    0    0    0  501 -0.00000000000E+00  0.00000000000E+00  0.51100688521E+03  0.51100688521E+03  0.00000000000E+00 0.  1.
          2   -1    0    0  501    0  0.00000000000E+00 -0.00000000000E+00 -0.31441354297E+04  0.31441354297E+04  0.00000000000E+00 0. -1.
         24    2    1    2    0    0 -0.10562197167E+03  0.41824679781E+03  0.31878380824E+03  0.54245886113E+03  0.80945134813E+02 0.  0.
        254    2    1    2    0    0  0.10562197167E+03 -0.41824679781E+03 -0.29519123528E+04  0.31126834538E+04  0.88821470405E+03 0.  0.
         23    2    4    4    0    0  0.16958841480E+03  0.24073433564E+03 -0.11688726078E+04  0.12086150645E+04  0.88170006625E+02 0.  0.
         23    2    4    4    0    0 -0.63966443129E+02 -0.65898113345E+03 -0.17830397450E+04  0.19040683893E+04  0.88869899295E+02 0.  0.
          2    1    3    3  502    0 -0.87478570356E+02  0.31813815190E+03  0.19905140051E+03  0.38533860955E+03  0.00000000000E+00 0. -1.
         -1    1    3    3    0  502 -0.18143401319E+02  0.10010864591E+03  0.11973240772E+03  0.15712025158E+03  0.00000000000E+00 0.  1.
         11    1    5    5    0    0  0.62075029438E+02  0.71500931905E+02 -0.54952784784E+03  0.55762581369E+03  0.00000000000E+00 0. -1.
        -11    1    5    5    0    0  0.10751338537E+03  0.16923340374E+03 -0.61934475997E+03  0.65098925081E+03  0.00000000000E+00 0.  1.
          3    1    6    6  503    0 -0.99643324367E+01 -0.26542634284E+02 -0.39803912926E+02  0.48868710233E+02  0.00000000000E+00 0. -1.
         -3    1    6    6    0  503 -0.54002110692E+02 -0.63243849917E+03 -0.17432358320E+04  0.18551996791E+04  0.00000000000E+00 0.  1.
<mgrwt>
<rscale>  0 0.25350936E+04</rscale>
<asrwt>0</asrwt>
<pdfrwt beam="1">  1        2 0.48371314E+00 0.25350936E+04</pdfrwt>
<pdfrwt beam="2">  1       -1 0.78616444E-01 0.25350936E+04</pdfrwt>
<totfact> 0.23085447E+00</totfact>
</mgrwt>
</event>
<event>
12    6  0.1586493E-007  0.1912757E+04  0.7818608E-02  0.8648532E-01
         -1   -1    0    0    0  501 -0.00000000000E+00  0.00000000000E+00  0.83885228911E+03  0.83885228911E+03  0.00000000000E+00 0.  1.
          2   -1    0    0  501    0  0.00000000000E+00 -0.00000000000E+00 -0.10903705307E+04  0.10903705307E+04  0.00000000000E+00 0. -1.
         24    2    1    2    0    0  0.47186426051E+03 -0.57268272191E+03 -0.61344347064E+02  0.74873868253E+03  0.78899337612E+02 0.  0.
        254    2    1    2    0    0 -0.47186426051E+03  0.57268272191E+03 -0.19017389454E+03  0.11804841373E+04  0.89819558444E+03 0.  0.
         23    2    4    4    0    0 -0.26361305950E+03  0.41919839420E+03 -0.53848439472E+03  0.73723401404E+03  0.91265597401E+02 0.  0.
         23    2    4    4    0    0 -0.20825120102E+03  0.15348432771E+03  0.34831050018E+03  0.44325012325E+03  0.90688839735E+02 0.  0.
          2    1    3    3  502    0  0.74682496533E+02 -0.11088795333E+03  0.16394988481E+02  0.13469376054E+03  0.00000000000E+00 0. -1.
         -1    1    3    3    0  502  0.39718176398E+03 -0.46179476859E+03 -0.77739335545E+02  0.61404492199E+03  0.00000000000E+00 0.  1.
         11    1    5    5    0    0 -0.46039842961E+02  0.41319631366E+02 -0.10820382629E+03  0.12463966905E+03  0.00000000000E+00 0.  1.
        -11    1    5    5    0    0 -0.21757321653E+03  0.37787876283E+03 -0.43028056843E+03  0.61259434499E+03  0.00000000000E+00 0. -1.
          4    1    6    6  503    0 -0.51586830313E+02  0.58592491445E+02  0.48461272561E+02  0.91884580065E+02  0.00000000000E+00 0.  1.
         -4    1    6    6    0  503 -0.15666437070E+03  0.94891836269E+02  0.29984922762E+03  0.35136554319E+03  0.00000000000E+00 0. -1.
<mgrwt>
<rscale>  0 0.19127570E+04</rscale>
<asrwt>0</asrwt>
<pdfrwt beam="1">  1        2 0.16774931E+00 0.19127570E+04</pdfrwt>
<pdfrwt beam="2">  1       -1 0.12905420E+00 0.19127570E+04</pdfrwt>
<totfact> 0.12176585E+01</totfact>
</mgrwt>
</event>
<event>
12    6  0.1586493E-007  0.1648907E+04  0.7818608E-02  0.8791053E-01
         -1   -1    0    0    0  501 -0.00000000000E+00  0.00000000000E+00  0.10557185538E+04  0.10557185538E+04  0.00000000000E+00 0.  1.
          2   -1    0    0  501    0  0.00000000000E+00 -0.00000000000E+00 -0.64384957029E+03  0.64384957029E+03  0.00000000000E+00 0. -1.
         24    2    1    2    0    0 -0.52873367522E+03 -0.18579990754E+03  0.80767565166E+01  0.56612717962E+03  0.79711006535E+02 0.  0.
        254    2    1    2    0    0  0.52873367522E+03  0.18579990754E+03  0.40379222702E+03  0.11334409445E+04  0.89864303653E+03 0.  0.
         23    2    4    4    0    0  0.12785107020E+03  0.50534254813E+03  0.13142203547E+03  0.54574073677E+03  0.94043677438E+02 0.  0.
         23    2    4    4    0    0  0.40088260502E+03 -0.31954264059E+03  0.27237019155E+03  0.58770020772E+03  0.91605953700E+02 0.  0.
          2    1    3    3  502    0 -0.52557496574E+03 -0.17464454413E+03  0.11776957916E+02  0.55395709053E+03  0.00000000000E+00 0. -1.
         -1    1    3    3    0  502 -0.31587094797E+01 -0.11155363404E+02 -0.37002013997E+01  0.12170089098E+02  0.00000000000E+00 0.  1.
         11    1    5    5    0    0  0.99169040889E+02  0.22726472355E+03  0.37188275885E+02  0.25073236948E+03  0.00000000000E+00 0. -1.
        -11    1    5    5    0    0  0.28682029309E+02  0.27807782458E+03  0.94233759588E+02  0.29500836730E+03  0.00000000000E+00 0.  1.
          1    1    6    6  503    0  0.30048682357E+03 -0.28623327014E+03  0.21657934842E+03  0.46811155747E+03  0.00000000000E+00 0. -1.
         -1    1    6    6    0  503  0.10039578145E+03 -0.33309370448E+02  0.55790843125E+02  0.11958865025E+03  0.00000000000E+00 0.  1.
<mgrwt>
<rscale>  0 0.16489074E+04</rscale>
<asrwt>0</asrwt>
<pdfrwt beam="1">  1        2 0.99053780E-01 0.16489074E+04</pdfrwt>
<pdfrwt beam="2">  1       -1 0.16241824E+00 0.16489074E+04</pdfrwt>
<totfact> 0.13910742E+01</totfact>
</mgrwt>
</event>
<event>
12    6  0.1586493E-007  0.1705005E+04  0.7818608E-02  0.8758515E-01
          2   -1    0    0  501    0  0.00000000000E+00  0.00000000000E+00  0.14462485012E+04  0.14462485012E+04  0.00000000000E+00 0. -1.
         -1   -1    0    0    0  501 -0.00000000000E+00 -0.00000000000E+00 -0.50251443538E+03  0.50251443538E+03  0.00000000000E+00 0.  1.
         24    2    1    2    0    0  0.42982972645E+03 -0.42380937829E+03  0.22818092351E+03  0.65047574560E+03  0.81756827844E+02 0.  0.
        254    2    1    2    0    0 -0.42982972645E+03  0.42380937829E+03  0.71555314230E+03  0.12982871910E+04  0.89953618489E+03 0.  0.
         23    2    4    4    0    0  0.67736455183E+02 -0.18497782683E+03 -0.19990380624E+02  0.21787656310E+03  0.90915112356E+02 0.  0.
         23    2    4    4    0    0 -0.49756618163E+03  0.60878720512E+03  0.73554352292E+03  0.10804106279E+04  0.89826969650E+02 0.  0.
          4    1    3    3  502    0  0.69829313824E+01 -0.45771682376E+01 -0.63679144251E+01  0.10500577789E+02  0.00000000000E+00 0. -1.
         -3    1    3    3    0  502  0.42284679506E+03 -0.41923221005E+03  0.23454883793E+03  0.63997516781E+03  0.00000000000E+00 0.  1.
         11    1    5    5    0    0  0.90424920540E+01 -0.13226971068E+03 -0.36005277295E+02  0.13738057730E+03  0.00000000000E+00 0.  1.
        -11    1    5    5    0    0  0.58693963129E+02 -0.52708116147E+02  0.16014896671E+02  0.80495985806E+02  0.00000000000E+00 0. -1.
          2    1    6    6  503    0 -0.11909959948E+03  0.14609237463E+03  0.12631808687E+03  0.22690076155E+03  0.00000000000E+00 0. -1.
         -2    1    6    6    0  503 -0.37846658214E+03  0.46269483049E+03  0.60922543605E+03  0.85350986631E+03  0.00000000000E+00 0.  1.
<mgrwt>
<rscale>  0 0.17050053E+04</rscale>
<asrwt>0</asrwt>
<pdfrwt beam="1">  1        2 0.22249977E+00 0.17050053E+04</pdfrwt>
<pdfrwt beam="2">  1       -1 0.77309914E-01 0.17050053E+04</pdfrwt>
<totfact> 0.24758916E+01</totfact>
</mgrwt>
</event>
<event>
12    6  0.1586493E-007  0.1918550E+04  0.7818608E-02  0.8645678E-01
         -1   -1    0    0    0  501 -0.00000000000E+00  0.00000000000E+00  0.77803709808E+03  0.77803709808E+03  0.00000000000E+00 0.  1.
          2   -1    0    0  501    0  0.00000000000E+00 -0.00000000000E+00 -0.11827308097E+04  0.11827308097E+04  0.00000000000E+00 0. -1.
         24    2    1    2    0    0 -0.14399780699E+03 -0.39226427616E+02 -0.88729260887E+03  0.90321552525E+03  0.78968539727E+02 0.  0.
        254    2    1    2    0    0  0.14399780699E+03  0.39226427616E+02  0.48259889729E+03  0.10575523825E+04  0.92910777898E+03 0.  0.
         23    2    4    4    0    0 -0.33248029005E+02 -0.36612200574E+03 -0.23002658293E+02  0.37962939957E+03  0.91861875719E+02 0.  0.
         23    2    4    4    0    0  0.17724583599E+03  0.40534843336E+03  0.50560155559E+03  0.67792298290E+03  0.90681855618E+02 0.  0.
          4    1    3    3  502    0 -0.15100180638E+03 -0.41929285733E+02 -0.87409117537E+03  0.88802871203E+03  0.00000000000E+00 0. -1.
         -3    1    3    3    0  502  0.70039993904E+01  0.27028581172E+01 -0.13201433498E+02  0.15186813223E+02  0.00000000000E+00 0.  1.
         11    1    5    5    0    0 -0.11120431254E+02 -0.17179129113E+03  0.34898273126E+02  0.17565250117E+03  0.00000000000E+00 0. -1.
        -11    1    5    5    0    0 -0.22127597751E+02 -0.19433071461E+03 -0.57900931419E+02  0.20397689840E+03  0.00000000000E+00 0.  1.
          4    1    6    6  503    0  0.64277991422E+01 -0.82651952372E+00  0.25315746184E+02  0.26132101737E+02  0.00000000000E+00 0. -1.
         -4    1    6    6    0  503  0.17081803685E+03  0.40617495288E+03  0.48028580940E+03  0.65179088117E+03  0.00000000000E+00 0.  1.
<mgrwt>
<rscale>  0 0.19185499E+04</rscale>
<asrwt>0</asrwt>
<pdfrwt beam="1">  1        2 0.18195859E+00 0.19185499E+04</pdfrwt>
<pdfrwt beam="2">  1       -1 0.11969802E+00 0.19185499E+04</pdfrwt>
<totfact> 0.12886391E+01</totfact>
</mgrwt>
</event>
<event>
12    6  0.1586493E-007  0.1098779E+04  0.7818608E-02  0.9206383E-01
          2   -1    0    0  501    0  0.00000000000E+00  0.00000000000E+00  0.44350625633E+04  0.44350625633E+04  0.00000000000E+00 0. -1.
         -1   -1    0    0    0  501 -0.00000000000E+00 -0.00000000000E+00 -0.68055136767E+02  0.68055136767E+02  0.00000000000E+00 0.  1.
         24    2    1    2    0    0  0.12655046305E+03  0.83277851399E+02  0.50614196965E+03  0.53397074021E+03  0.77426337378E+02 0.  0.
        254    2    1    2    0    0 -0.12655046305E+03 -0.83277851399E+02  0.38608654569E+04  0.39691469599E+04  0.90823746488E+03 0.  0.
         23    2    4    4    0    0  0.38020356138E+03 -0.10167172408E+03  0.15712026902E+04  0.16223034540E+04  0.91097287076E+02 0.  0.
         23    2    4    4    0    0 -0.50675402443E+03  0.18393872676E+02  0.22896627667E+04  0.23468435059E+04  0.89335770515E+02 0.  0.
          4    1    3    3  502    0  0.13224805699E+03  0.65121017884E+02  0.47618873838E+03  0.49848371097E+03  0.00000000000E+00 0. -1.
         -3    1    3    3    0  502 -0.56975939370E+01  0.18156833515E+02  0.29953231275E+02  0.35487029233E+02  0.00000000000E+00 0.  1.
         11    1    5    5    0    0  0.10329987714E+03 -0.69172968502E+02  0.53420095837E+03  0.54847646086E+03  0.00000000000E+00 0.  1.
        -11    1    5    5    0    0  0.27690368424E+03 -0.32498755574E+02  0.10370017318E+04  0.10738269932E+04  0.00000000000E+00 0. -1.
          3    1    6    6  503    0 -0.50868081003E+03  0.21349709124E+02  0.22434196281E+04  0.23004659537E+04  0.00000000000E+00 0. -1.
         -3    1    6    6    0  503  0.19267855958E+01 -0.29558364481E+01  0.46243138628E+02  0.46377552135E+02  0.00000000000E+00 0.  1.
<mgrwt>
<rscale>  0 0.10987789E+04</rscale>
<asrwt>0</asrwt>
<pdfrwt beam="1">  1        2 0.68231709E+00 0.10987789E+04</pdfrwt>
<pdfrwt beam="2">  1       -1 0.10470025E-01 0.10987789E+04</pdfrwt>
<totfact> 0.10063864E+01</totfact>
</mgrwt>
</event>
<event>
12    6  0.1586493E-007  0.1843871E+04  0.7818608E-02  0.8683311E-01
          2   -1    0    0  501    0  0.00000000000E+00  0.00000000000E+00  0.10811913575E+04  0.10811913575E+04  0.00000000000E+00 0. -1.
         -1   -1    0    0    0  501 -0.00000000000E+00 -0.00000000000E+00 -0.78613738544E+03  0.78613738544E+03  0.00000000000E+00 0.  1.
         24    2    1    2    0    0  0.41162242019E+03  0.97419841106E+02 -0.44557384760E+03  0.61942703724E+03  0.78931353408E+02 0.  0.
        254    2    1    2    0    0 -0.41162242019E+03 -0.97419841106E+02  0.74062781962E+03  0.12479017057E+04  0.91093658261E+03 0.  0.
         23    2    4    4    0    0 -0.67078554752E+03 -0.57603699578E+02  0.33911084441E+03  0.75951042076E+03  0.92674038836E+02 0.  0.
         23    2    4    4    0    0  0.25916312733E+03 -0.39816141528E+02  0.40151697522E+03  0.48839128490E+03  0.92516561145E+02 0.  0.
          2    1    3    3  502    0  0.31061024379E+03  0.51006245507E+02 -0.28839521910E+03  0.42691001748E+03  0.00000000000E+00 0. -1.
         -1    1    3    3    0  502  0.10101217640E+03  0.46413595598E+02 -0.15717862851E+03  0.19251701976E+03  0.00000000000E+00 0.  1.
         11    1    5    5    0    0 -0.49199977151E+03 -0.21573774378E+02  0.20649692752E+03  0.53401328072E+03  0.00000000000E+00 0. -1.
        -11    1    5    5    0    0 -0.17878577601E+03 -0.36029925199E+02  0.13261391689E+03  0.22549714004E+03  0.00000000000E+00 0.  1.
          1    1    6    6  503    0  0.11199245847E+03 -0.52406155524E+01  0.25176254561E+03  0.27559781236E+03  0.00000000000E+00 0. -1.
         -1    1    6    6    0  503  0.14717066886E+03 -0.34575525976E+02  0.14975442961E+03  0.21279347254E+03  0.00000000000E+00 0.  1.
<mgrwt>
<rscale>  0 0.18438709E+04</rscale>
<asrwt>0</asrwt>
<pdfrwt beam="1">  1        2 0.16633713E+00 0.18438709E+04</pdfrwt>
<pdfrwt beam="2">  1       -1 0.12094421E+00 0.18438709E+04</pdfrwt>
<totfact> 0.14584371E+01</totfact>
</mgrwt>
</event>
<event>
12    6  0.1586493E-007  0.2606465E+04  0.7818608E-02  0.8366009E-01
          2   -1    0    0  501    0  0.00000000000E+00  0.00000000000E+00  0.13106216820E+04  0.13106216820E+04  0.00000000000E+00 0. -1.
         -1   -1    0    0    0  501 -0.00000000000E+00 -0.00000000000E+00 -0.12958847437E+04  0.12958847437E+04  0.00000000000E+00 0.  1.
         24    2    1    2    0    0  0.68397520169E+03 -0.85697459113E+03  0.35459942887E+03  0.11550047571E+04  0.77895492256E+02 0.  0.
        254    2    1    2    0    0 -0.68397520169E+03  0.85697459113E+03 -0.33986249058E+03  0.14515016686E+04  0.88832598462E+03 0.  0.
         23    2    4    4    0    0 -0.70122999355E+03  0.92027557058E+03 -0.75484381104E+02  0.11629984862E+04  0.90757684846E+02 0.  0.
         23    2    4    4    0    0  0.17254791860E+02 -0.63300979448E+02 -0.26437810948E+03  0.28850318240E+03  0.95045040077E+02 0.  0.
          2    1    3    3  502    0  0.49185915736E+03 -0.65923496100E+03  0.28699798301E+03  0.87113948753E+03  0.00000000000E+00 0. -1.
         -1    1    3    3    0  502  0.19211604433E+03 -0.19773963012E+03  0.67601445857E+02  0.28386526961E+03  0.00000000000E+00 0.  1.
         11    1    5    5    0    0 -0.28614424334E+03  0.44999409974E+03 -0.37643868649E+02  0.53459356397E+03  0.00000000000E+00 0. -1.
        -11    1    5    5    0    0 -0.41508575021E+03  0.47028147084E+03 -0.37840512455E+02  0.62840492218E+03  0.00000000000E+00 0.  1.
          1    1    6    6  503    0 -0.46134708221E+01 -0.74952688018E+02 -0.24719462210E+03  0.25834931924E+03  0.00000000000E+00 0.  1.
         -1    1    6    6    0  503  0.21868262682E+02  0.11651708570E+02 -0.17183487377E+02  0.30153863164E+02  0.00000000000E+00 0. -1.
<mgrwt>
<rscale>  0 0.26064648E+04</rscale>
<asrwt>0</asrwt>
<pdfrwt beam="1">  1        2 0.20163411E+00 0.26064648E+04</pdfrwt>
<pdfrwt beam="2">  1       -1 0.19936688E+00 0.26064648E+04</pdfrwt>
<totfact> 0.24957295E+00</totfact>
</mgrwt>
</event>
<event>
12    6  0.1586493E-007  0.1362838E+04  0.7818608E-02  0.8981167E-01
         -1   -1    0    0    0  501 -0.00000000000E+00  0.00000000000E+00  0.13673769763E+04  0.13673769763E+04  0.00000000000E+00 0.  1.
          2   -1    0    0  501    0  0.00000000000E+00 -0.00000000000E+00 -0.33957834302E+03  0.33957834302E+03  0.00000000000E+00 0. -1.
         24    2    1    2    0    0  0.36024267272E+03  0.10915715446E+03  0.25135388742E+03  0.45947237465E+03  0.79031757741E+02 0.  0.
        254    2    1    2    0    0 -0.36024267272E+03 -0.10915715446E+03  0.77644474588E+03  0.12474829447E+04  0.90092018862E+03 0.  0.
         23    2    4    4    0    0  0.10297567863E+03  0.10504444513E+03 -0.12076991596E+03  0.21126592046E+03  0.91703820559E+02 0.  0.
         23    2    4    4    0    0 -0.46321835135E+03 -0.21420159959E+03  0.89721466184E+03  0.10362170242E+04  0.91093389391E+02 0.  0.
          4    1    3    3  502    0  0.10056306950E+03  0.32136251882E+02  0.30237245414E+02  0.10981785212E+03  0.00000000000E+00 0. -1.
         -3    1    3    3    0  502  0.25967960322E+03  0.77020902580E+02  0.22111664200E+03  0.34965452254E+03  0.00000000000E+00 0.  1.
         11    1    5    5    0    0  0.27385916799E+02  0.79877113763E+02 -0.95960250196E+02  0.12782296883E+03  0.00000000000E+00 0.  1.
        -11    1    5    5    0    0  0.75589761831E+02  0.25167331363E+02 -0.24809665762E+02  0.83442951630E+02  0.00000000000E+00 0. -1.
          2    1    6    6  503    0 -0.33381815747E+03 -0.14904831008E+03  0.55485652411E+03  0.66446649527E+03  0.00000000000E+00 0. -1.
         -2    1    6    6    0  503 -0.12940019389E+03 -0.65153289506E+02  0.34235813773E+03  0.37175052896E+03  0.00000000000E+00 0.  1.
<mgrwt>
<rscale>  0 0.13628376E+04</rscale>
<asrwt>0</asrwt>
<pdfrwt beam="1">  1        2 0.52242823E-01 0.13628376E+04</pdfrwt>
<pdfrwt beam="2">  1       -1 0.21036569E+00 0.13628376E+04</pdfrwt>
<totfact> 0.13654462E+01</totfact>
</mgrwt>
</event>
<event>
12    6  0.1586493E-007  0.1507386E+04  0.7818608E-02  0.8879556E-01
          2   -1    0    0  501    0  0.00000000000E+00  0.00000000000E+00  0.44459947394E+03  0.44459947394E+03  0.00000000000E+00 0. -1.
         -1   -1    0    0    0  501 -0.00000000000E+00 -0.00000000000E+00 -0.12776731638E+04  0.12776731638E+04  0.00000000000E+00 0.  1.
         24    2    1    2    0    0  0.27961471167E+03  0.46135824960E+02 -0.71282176941E+03  0.77100485198E+03  0.77593205309E+02 0.  0.
        254    2    1    2    0    0 -0.27961471167E+03 -0.46135824960E+02 -0.12025192042E+03  0.95126778572E+03  0.90007609370E+03 0.  0.
         23    2    4    4    0    0 -0.18869325701E+03 -0.45318649243E+03 -0.15538971188E+03  0.52285036455E+03  0.90793166000E+02 0.  0.
         23    2    4    4    0    0 -0.90921454665E+02  0.40705066747E+03  0.35137791464E+02  0.42841742116E+03  0.91377598782E+02 0.  0.
          2    1    3    3  502    0  0.12649861304E+03  0.38242799906E+01 -0.22731225974E+03  0.26016799889E+03  0.00000000000E+00 0. -1.
         -1    1    3    3    0  502  0.15311609863E+03  0.42311544969E+02 -0.48550950967E+03  0.51083685309E+03  0.00000000000E+00 0.  1.
         11    1    5    5    0    0 -0.17399382444E+03 -0.37425434783E+03 -0.98111470932E+02  0.42422403108E+03  0.00000000000E+00 0.  1.
        -11    1    5    5    0    0 -0.14699432568E+02 -0.78932144600E+02 -0.57278240948E+02  0.98626333477E+02  0.00000000000E+00 0. -1.
          3    1    6    6  503    0 -0.58397327448E+02  0.20675471362E+03  0.62285537590E+02  0.22369007052E+03  0.00000000000E+00 0. -1.
         -3    1    6    6    0  503 -0.32524127217E+02  0.20029595386E+03 -0.27147746126E+02  0.20472735065E+03  0.00000000000E+00 0.  1.
<mgrwt>
<rscale>  0 0.15073856E+04</rscale>
<asrwt>0</asrwt>
<pdfrwt beam="1">  1        2 0.68399920E-01 0.15073856E+04</pdfrwt>
<pdfrwt beam="2">  1       -1 0.19656510E+00 0.15073856E+04</pdfrwt>
<totfact> 0.12378906E+01</totfact>
</mgrwt>
</event>
<event>
12    6  0.1650289E-007  0.1839838E+04  0.7818608E-02  0.8685396E-01
         -1   -1    0    0    0  501 -0.00000000000E+00  0.00000000000E+00  0.85477201386E+03  0.85477201386E+03  0.00000000000E+00 0.  1.
          2   -1    0    0  501    0  0.00000000000E+00 -0.00000000000E+00 -0.99003122602E+03  0.99003122602E+03  0.00000000000E+00 0. -1.
         24    2    1    2    0    0 -0.18870973482E+03 -0.27707063233E+03 -0.66414309571E+03  0.74832178860E+03  0.80746197453E+02 0.  0.
        254    2    1    2    0    0  0.18870973482E+03  0.27707063233E+03  0.52888388355E+03  0.10964814513E+04  0.90009661227E+03 0.  0.
         23    2    4    4    0    0  0.31697680962E+02  0.49095267916E+03  0.53246605799E+01  0.50197674469E+03  0.99564170455E+02 0.  0.
         23    2    4    4    0    0  0.15701205386E+03 -0.21388204684E+03  0.52355922297E+03  0.59450470660E+03  0.94463067916E+02 0.  0.
          4    1    3    3  502    0 -0.17359012220E+03 -0.26267337031E+03 -0.65231969380E+03  0.72432852555E+03  0.00000000000E+00 0. -1.
         -3    1    3    3    0  502 -0.15119612621E+02 -0.14397262017E+02 -0.11823401904E+02  0.23993263055E+02  0.00000000000E+00 0.  1.
         11    1    5    5    0    0 -0.19712459125E+01  0.37126181499E+03  0.38590667913E+02  0.37326727787E+03  0.00000000000E+00 0. -1.
        -11    1    5    5    0    0  0.33668926874E+02  0.11969086418E+03 -0.33266007333E+02  0.12870946682E+03  0.00000000000E+00 0.  1.
          3    1    6    6  503    0  0.14441703620E+03 -0.18886232500E+03  0.38006435445E+03  0.44830142948E+03  0.00000000000E+00 0. -1.
         -3    1    6    6    0  503  0.12595017662E+02 -0.25019721834E+02  0.14349486851E+03  0.14620327712E+03  0.00000000000E+00 0.  1.
<mgrwt>
<rscale>  0 0.18398380E+04</rscale>
<asrwt>0</asrwt>
<pdfrwt beam="1">  1        2 0.15231250E+00 0.18398380E+04</pdfrwt>
<pdfrwt beam="2">  1       -1 0.13150339E+00 0.18398380E+04</pdfrwt>
<totfact> 0.13520926E+01</totfact>
</mgrwt>
</event>
<event>
12    6  0.1586493E-007  0.1486352E+04  0.7818608E-02  0.8893580E-01
          2   -1    0    0  501    0  0.00000000000E+00  0.00000000000E+00  0.68709705913E+03  0.68709705913E+03  0.00000000000E+00 0. -1.
         -1   -1    0    0    0  501 -0.00000000000E+00 -0.00000000000E+00 -0.80383187102E+03  0.80383187102E+03  0.00000000000E+00 0.  1.
         24    2    1    2    0    0 -0.38245892735E+03 -0.18205230551E+03 -0.22248212564E+03  0.48510119190E+03  0.80043719995E+02 0.  0.
        254    2    1    2    0    0  0.38245892735E+03  0.18205230551E+03  0.10574731375E+03  0.10058277383E+04  0.90613965349E+03 0.  0.
         23    2    4    4    0    0  0.89062312881E+02  0.11853965418E+03  0.48387216316E+03  0.51458902492E+03  0.93197902821E+02 0.  0.
         23    2    4    4    0    0  0.29339661447E+03  0.63512651333E+02 -0.37812484941E+03  0.49123871334E+03  0.90673267704E+02 0.  0.
          2    1    3    3  502    0 -0.36550156218E+03 -0.17068500368E+03 -0.18804617934E+03  0.44506867785E+03  0.00000000000E+00 0. -1.
         -1    1    3    3    0  502 -0.16957365164E+02 -0.11367301830E+02 -0.34435946295E+02  0.40032514054E+02  0.00000000000E+00 0.  1.
         11    1    5    5    0    0  0.34045899492E+02  0.10222145318E+03  0.38961050250E+03  0.40423346276E+03  0.00000000000E+00 0. -1.
        -11    1    5    5    0    0  0.55016413389E+02  0.16318200996E+02  0.94261660668E+02  0.11035556215E+03  0.00000000000E+00 0.  1.
          2    1    6    6  503    0  0.24988291067E+03  0.81499681732E+02 -0.34479151962E+03  0.43354914273E+03  0.00000000000E+00 0. -1.
         -2    1    6    6    0  503  0.43513703799E+02 -0.17987030399E+02 -0.33333329798E+02  0.57689570603E+02  0.00000000000E+00 0.  1.
<mgrwt>
<rscale>  0 0.14863519E+04</rscale>
<asrwt>0</asrwt>
<pdfrwt beam="1">  1        2 0.10570724E+00 0.14863519E+04</pdfrwt>
<pdfrwt beam="2">  1       -1 0.12366644E+00 0.14863519E+04</pdfrwt>
<totfact> 0.26643510E+01</totfact>
</mgrwt>
</event>
<event>
12    6  0.1586493E-007  0.2029657E+04  0.7818608E-02  0.8592879E-01
         -1   -1    0    0    0  501 -0.00000000000E+00  0.00000000000E+00  0.46285419755E+03  0.46285419755E+03  0.00000000000E+00 0.  1.
          2   -1    0    0  501    0  0.00000000000E+00 -0.00000000000E+00 -0.22250570473E+04  0.22250570473E+04  0.00000000000E+00 0. -1.
         24    2    1    2    0    0 -0.15393728084E+03 -0.13026373750E+03  0.32570346747E+03  0.39119020843E+03  0.79257193412E+02 0.  0.
        254    2    1    2    0    0  0.15393728084E+03  0.13026373750E+03 -0.20879063172E+04  0.22967210364E+04  0.93536591873E+03 0.  0.
         23    2    4    4    0    0 -0.14634302659E+03  0.31246462082E+03 -0.17956738681E+04  0.18308921580E+04  0.93118381191E+02 0.  0.
         23    2    4    4    0    0  0.30028030743E+03 -0.18220088332E+03 -0.29223244913E+03  0.46582887844E+03  0.90726593453E+02 0.  0.
          4    1    3    3  502    0 -0.19721611560E+01 -0.38750662741E+02  0.48919660207E+02  0.62439061790E+02  0.00000000000E+00 0. -1.
         -1    1    3    3    0  502 -0.15196511968E+03 -0.91513074761E+02  0.27678380726E+03  0.32875114664E+03  0.00000000000E+00 0.  1.
         11    1    5    5    0    0 -0.52183317147E+02  0.20874767721E+03 -0.11828591547E+04  0.12022705482E+04  0.00000000000E+00 0. -1.
        -11    1    5    5    0    0 -0.94159709442E+02  0.10371694361E+03 -0.61281471342E+03  0.62862160976E+03  0.00000000000E+00 0.  1.
          1    1    6    6  503    0  0.22205347043E+03 -0.13164255098E+03 -0.15870913421E+03  0.30302820700E+03  0.00000000000E+00 0. -1.
         -1    1    6    6    0  503  0.78226837000E+02 -0.50558332338E+02 -0.13352331492E+03  0.16280067144E+03  0.00000000000E+00 0.  1.
<mgrwt>
<rscale>  0 0.20296571E+04</rscale>
<asrwt>0</asrwt>
<pdfrwt beam="1">  1        2 0.34231646E+00 0.20296571E+04</pdfrwt>
<pdfrwt beam="2">  1       -1 0.71208340E-01 0.20296571E+04</pdfrwt>
<totfact> 0.10504605E+01</totfact>
</mgrwt>
</event>
<event>
12    6  0.1586493E-007  0.2376513E+04  0.7818608E-02  0.8448350E-01
          2   -1    0    0  501    0  0.00000000000E+00  0.00000000000E+00  0.18552882735E+04  0.18552882735E+04  0.00000000000E+00 0. -1.
         -1   -1    0    0    0  501 -0.00000000000E+00 -0.00000000000E+00 -0.76104248089E+03  0.76104248089E+03  0.00000000000E+00 0.  1.
         24    2    1    2    0    0 -0.97269188745E+03  0.17896672955E+03  0.22429205552E+03  0.10173979686E+04  0.81443859316E+02 0.  0.
        254    2    1    2    0    0  0.97269188745E+03 -0.17896672955E+03  0.86995373712E+03  0.15989327858E+04  0.90642592117E+03 0.  0.
         23    2    4    4    0    0  0.78063011557E+03  0.29221349351E+02  0.12433663077E+03  0.79625935053E+03  0.91280287951E+02 0.  0.
         23    2    4    4    0    0  0.19206177188E+03 -0.20818807890E+03  0.74561710635E+03  0.80267343526E+03  0.90054283540E+02 0.  0.
          2    1    3    3  502    0 -0.86651498864E+02 -0.57976525842E+01  0.28106208529E+02  0.91280085390E+02  0.00000000000E+00 0. -1.
         -1    1    3    3    0  502 -0.88604038858E+03  0.18476438213E+03  0.19618584699E+03  0.92611788324E+03  0.00000000000E+00 0.  1.
         11    1    5    5    0    0  0.71257778282E+03  0.40559690981E+02  0.90588967443E+02  0.71945711903E+03  0.00000000000E+00 0.  1.
        -11    1    5    5    0    0  0.68052332751E+02 -0.11338341630E+02  0.33747663332E+02  0.76802231505E+02  0.00000000000E+00 0. -1.
          4    1    6    6  503    0  0.74064491423E+02 -0.98250719431E+02  0.21092500900E+03  0.24418868152E+03  0.00000000000E+00 0. -1.
         -4    1    6    6    0  503  0.11799728045E+03 -0.10993735947E+03  0.53469209734E+03  0.55848475374E+03  0.00000000000E+00 0.  1.
<mgrwt>
<rscale>  0 0.23765127E+04</rscale>
<asrwt>0</asrwt>
<pdfrwt beam="1">  1        2 0.28542896E+00 0.23765127E+04</pdfrwt>
<pdfrwt beam="2">  1       -1 0.11708346E+00 0.23765127E+04</pdfrwt>
<totfact> 0.54198592E+00</totfact>
</mgrwt>
</event>
<event>
12    6  0.1586493E-007  0.1834384E+04  0.7818608E-02  0.8688225E-01
          2   -1    0    0  501    0  0.00000000000E+00  0.00000000000E+00  0.17790995564E+04  0.17790995564E+04  0.00000000000E+00 0. -1.
         -1   -1    0    0    0  501 -0.00000000000E+00 -0.00000000000E+00 -0.47284668603E+03  0.47284668603E+03  0.00000000000E+00 0.  1.
         24    2    1    2    0    0 -0.64199575879E+03  0.11227254679E+02  0.84276451232E+03  0.10628458031E+04  0.84288625388E+02 0.  0.
        254    2    1    2    0    0  0.64199575879E+03 -0.11227254679E+02  0.46348835801E+03  0.11891004393E+04  0.88704779532E+03 0.  0.
         23    2    4    4    0    0  0.30842915078E+03 -0.22656687030E+01 -0.24244279454E+03  0.40291990987E+03  0.91827397006E+02 0.  0.
         23    2    4    4    0    0  0.33356660801E+03 -0.89615859758E+01  0.70593115255E+03  0.78618052943E+03  0.91618997592E+02 0.  0.
          2    1    3    3  502    0 -0.63238733488E+03  0.11342820934E+02  0.84215460626E+03  0.10532173478E+04  0.00000000000E+00 0. -1.
         -1    1    3    3    0  502 -0.96084239055E+01 -0.11556625554E+00  0.60990606382E+00  0.96284552714E+01  0.00000000000E+00 0.  1.
         11    1    5    5    0    0  0.12233225359E+03  0.23764113108E+02 -0.50954296511E+02  0.13463377612E+03  0.00000000000E+00 0. -1.
        -11    1    5    5    0    0  0.18609689719E+03 -0.26029781811E+02 -0.19148849803E+03  0.26828613375E+03  0.00000000000E+00 0.  1.
          2    1    6    6  503    0  0.23775765025E+03  0.18660253720E+02  0.41511775102E+03  0.47874800526E+03  0.00000000000E+00 0.  1.
         -2    1    6    6    0  503  0.95808957752E+02 -0.27621839696E+02  0.29081340153E+03  0.30743252418E+03  0.00000000000E+00 0. -1.
<mgrwt>
<rscale>  0 0.18343842E+04</rscale>
<asrwt>0</asrwt>
<pdfrwt beam="1">  1        2 0.27370762E+00 0.18343842E+04</pdfrwt>
<pdfrwt beam="2">  1       -1 0.72745645E-01 0.18343842E+04</pdfrwt>
<totfact> 0.18107272E+01</totfact>
</mgrwt>
</event>
<event>
12    6  0.1586493E-007  0.3130373E+04  0.7818608E-02  0.8207451E-01
         -1   -1    0    0    0  501 -0.00000000000E+00  0.00000000000E+00  0.12874778623E+04  0.12874778623E+04  0.00000000000E+00 0.  1.
          2   -1    0    0  501    0  0.00000000000E+00 -0.00000000000E+00 -0.19027970072E+04  0.19027970072E+04  0.00000000000E+00 0. -1.
         24    2    1    2    0    0  0.13335992351E+04  0.52206903085E+03 -0.20522295228E+03  0.14488486314E+04  0.77478407965E+02 0.  0.
        254    2    1    2    0    0 -0.13335992351E+04 -0.52206903085E+03 -0.41009619255E+03  0.17414262381E+04  0.90185556657E+03 0.  0.
         23    2    4    4    0    0 -0.27042865437E+03  0.34752599573E+02 -0.45370363867E+03  0.53704421454E+03  0.90719878425E+02 0.  0.
         23    2    4    4    0    0 -0.10631705807E+04 -0.55682163043E+03  0.43607446125E+02  0.12043820236E+04  0.90842928344E+02 0.  0.
          4    1    3    3  502    0  0.86105309622E+03  0.31067613975E+03 -0.10281682504E+03  0.92114244166E+03  0.00000000000E+00 0. -1.
         -3    1    3    3    0  502  0.47254613886E+03  0.21139289111E+03 -0.10240612724E+03  0.52770618971E+03  0.00000000000E+00 0.  1.
         11    1    5    5    0    0 -0.15484894675E+02 -0.66973495600E+01 -0.86303055710E+02  0.87936646963E+02  0.00000000000E+00 0.  1.
        -11    1    5    5    0    0 -0.25494375970E+03  0.41449949133E+02 -0.36740058296E+03  0.44910756757E+03  0.00000000000E+00 0. -1.
          3    1    6    6  503    0 -0.79077848468E+03 -0.38334123306E+03  0.61484313570E+02  0.88094349059E+03  0.00000000000E+00 0. -1.
         -3    1    6    6    0  503 -0.27239209603E+03 -0.17348039737E+03 -0.17876867445E+02  0.32343853301E+03  0.00000000000E+00 0.  1.
<mgrwt>
<rscale>  0 0.31303732E+04</rscale>
<asrwt>0</asrwt>
<pdfrwt beam="1">  1        2 0.29273800E+00 0.31303732E+04</pdfrwt>
<pdfrwt beam="2">  1       -1 0.19807352E+00 0.31303732E+04</pdfrwt>
<totfact> 0.11314387E+00</totfact>
</mgrwt>
</event>
<event>
12    6  0.1586493E-007  0.3578573E+04  0.7818608E-02  0.8095418E-01
         -1   -1    0    0    0  501 -0.00000000000E+00  0.00000000000E+00  0.96926138778E+03  0.96926138778E+03  0.00000000000E+00 0.  1.
          2   -1    0    0  501    0  0.00000000000E+00 -0.00000000000E+00 -0.33030779048E+04  0.33030779048E+04  0.00000000000E+00 0. -1.
         24    2    1    2    0    0  0.12170947936E+04  0.11268538162E+04 -0.13410974345E+04  0.21342983674E+04  0.74618577988E+02 0.  0.
        254    2    1    2    0    0 -0.12170947936E+04 -0.11268538162E+04 -0.99271908254E+03  0.21380409253E+04  0.91356913337E+03 0.  0.
         23    2    4    4    0    0 -0.88420944156E+03 -0.50858257465E+03 -0.14611934247E+03  0.10343128301E+04  0.89272597063E+02 0.  0.
         23    2    4    4    0    0 -0.33288535207E+03 -0.61827124157E+03 -0.84659974007E+03  0.11037280951E+04  0.91720239238E+02 0.  0.
          4    1    3    3  502    0  0.65689679619E+03  0.57663208140E+03 -0.66890051539E+03  0.11006570118E+04  0.00000000000E+00 0. -1.
         -3    1    3    3    0  502  0.56019799744E+03  0.55022173482E+03 -0.67219691913E+03  0.10336413555E+04  0.00000000000E+00 0.  1.
         11    1    5    5    0    0 -0.28568170637E+03 -0.18855490896E+03 -0.86040074787E+02  0.35294459270E+03  0.00000000000E+00 0. -1.
        -11    1    5    5    0    0 -0.59852773519E+03 -0.32002766569E+03 -0.60079267682E+02  0.68136823745E+03  0.00000000000E+00 0.  1.
          2    1    6    6  503    0 -0.23593227071E+02 -0.16135326228E+02 -0.18028548780E+02  0.33793752192E+02  0.00000000000E+00 0. -1.
         -2    1    6    6    0  503 -0.30929212500E+03 -0.60213591534E+03 -0.82857119129E+03  0.10699343429E+04  0.00000000000E+00 0.  1.
<mgrwt>
<rscale>  0 0.35785728E+04</rscale>
<asrwt>0</asrwt>
<pdfrwt beam="1">  1        2 0.50816583E+00 0.35785728E+04</pdfrwt>
<pdfrwt beam="2">  1       -1 0.14911714E+00 0.35785728E+04</pdfrwt>
<totfact> 0.36380637E-01</totfact>
</mgrwt>
</event>
<event>
12    6  0.1586493E-007  0.1442714E+04  0.7818608E-02  0.8923468E-01
          2   -1    0    0  501    0  0.00000000000E+00  0.00000000000E+00  0.36266106589E+04  0.36266106589E+04  0.00000000000E+00 0. -1.
         -1   -1    0    0    0  501 -0.00000000000E+00 -0.00000000000E+00 -0.14348265753E+03  0.14348265753E+03  0.00000000000E+00 0.  1.
         24    2    1    2    0    0  0.22063385350E+03 -0.36285900494E+03  0.88579776664E+03  0.98556870069E+03  0.79762307052E+02 0.  0.
        254    2    1    2    0    0 -0.22063385350E+03  0.36285900494E+03  0.25973302348E+04  0.27845246158E+04  0.90945424988E+03 0.  0.
         23    2    4    4    0    0 -0.57728752829E+02  0.13999347352E+03  0.24542087441E+04  0.24606033792E+04  0.92182690722E+02 0.  0.
         23    2    4    4    0    0 -0.16290510067E+03  0.22286553142E+03  0.14312149063E+03  0.32392123655E+03  0.90741883880E+02 0.  0.
          2    1    3    3  502    0  0.36954800218E+02 -0.17925310681E+02  0.75111897404E+02  0.85608242324E+02  0.00000000000E+00 0. -1.
         -1    1    3    3    0  502  0.18367905328E+03 -0.34493369426E+03  0.81068586924E+03  0.89996045837E+03  0.00000000000E+00 0.  1.
         11    1    5    5    0    0 -0.30078024872E+02  0.59819061458E+02  0.17539836347E+04  0.17552611198E+04  0.00000000000E+00 0. -1.
        -11    1    5    5    0    0 -0.27650727957E+02  0.80174412061E+02  0.70022510941E+03  0.70534225944E+03  0.00000000000E+00 0.  1.
          2    1    6    6  503    0 -0.11253263749E+03  0.20122549059E+03  0.89746187576E+02  0.24740588260E+03  0.00000000000E+00 0. -1.
         -2    1    6    6    0  503 -0.50372463179E+02  0.21640040834E+02  0.53375303049E+02  0.76515353947E+02  0.00000000000E+00 0.  1.
<mgrwt>
<rscale>  0 0.14427137E+04</rscale>
<asrwt>0</asrwt>
<pdfrwt beam="1">  1        2 0.55794003E+00 0.14427137E+04</pdfrwt>
<pdfrwt beam="2">  1       -1 0.22074258E-01 0.14427137E+04</pdfrwt>
<totfact> 0.12873854E+01</totfact>
</mgrwt>
</event>
<event>
12    6  0.1586493E-007  0.1526033E+04  0.7818608E-02  0.8867324E-01
          2   -1    0    0  501    0  0.00000000000E+00  0.00000000000E+00  0.91501579562E+03  0.91501579562E+03  0.00000000000E+00 0. -1.
         -1   -1    0    0    0  501 -0.00000000000E+00 -0.00000000000E+00 -0.63626653828E+03  0.63626653828E+03  0.00000000000E+00 0.  1.
         24    2    1    2    0    0 -0.31119300534E+02 -0.23007950527E+03  0.53597939773E+03  0.58967242040E+03  0.80837237555E+02 0.  0.
        254    2    1    2    0    0  0.31119300534E+02  0.23007950527E+03 -0.25723014039E+03  0.96160991350E+03  0.89700685114E+03 0.  0.
         23    2    4    4    0    0 -0.34187590657E+03  0.11136862871E+03 -0.39043382428E+03  0.53873475869E+03  0.92273843097E+02 0.  0.
         23    2    4    4    0    0  0.37299520710E+03  0.11871087656E+03  0.13320368389E+03  0.42287515481E+03  0.88670617563E+02 0.  0.
          2    1    3    3  502    0 -0.99822050003E+01 -0.22114738427E+03  0.50230716033E+03  0.54892466998E+03  0.00000000000E+00 0. -1.
         -1    1    3    3    0  502 -0.21137095534E+02 -0.89321210027E+01  0.33672237398E+02  0.40747750423E+02  0.00000000000E+00 0.  1.
         11    1    5    5    0    0 -0.32345807632E+03  0.77431762480E+02 -0.34977795611E+03  0.48266491851E+03  0.00000000000E+00 0. -1.
        -11    1    5    5    0    0 -0.18417830248E+02  0.33936866234E+02 -0.40655868168E+02  0.56069840176E+02  0.00000000000E+00 0.  1.
          1    1    6    6  503    0  0.25286065285E+03  0.12246770847E+03  0.99345912001E+02  0.29800412683E+03  0.00000000000E+00 0. -1.
         -1    1    6    6    0  503  0.12013455425E+03 -0.37568319081E+01  0.33857771892E+02  0.12487102798E+03  0.00000000000E+00 0.  1.
<mgrwt>
<rscale>  0 0.15260327E+04</rscale>
<asrwt>0</asrwt>
<pdfrwt beam="1">  1        2 0.14077166E+00 0.15260327E+04</pdfrwt>
<pdfrwt beam="2">  1       -1 0.97887159E-01 0.15260327E+04</pdfrwt>
<totfact> 0.31555308E+01</totfact>
</mgrwt>
</event>
<event>
12    6  0.1586493E-007  0.1920768E+04  0.7818608E-02  0.8644588E-01
         -1   -1    0    0    0  501 -0.00000000000E+00  0.00000000000E+00  0.98130937972E+03  0.98130937972E+03  0.00000000000E+00 0.  1.
          2   -1    0    0  501    0  0.00000000000E+00 -0.00000000000E+00 -0.93990444040E+03  0.93990444040E+03  0.00000000000E+00 0. -1.
         24    2    1    2    0    0 -0.52479584564E+03  0.81318790862E+02  0.54275425645E+03  0.76311945391E+03  0.75800347523E+02 0.  0.
        254    2    1    2    0    0  0.52479584564E+03 -0.81318790862E+02 -0.50134931712E+03  0.11580943662E+04  0.89878139607E+03 0.  0.
         23    2    4    4    0    0  0.54326135174E+03 -0.11287535685E+03 -0.72341770108E+03  0.91605403615E+03  0.89152029862E+02 0.  0.
         23    2    4    4    0    0 -0.18465506099E+02  0.31556565983E+02  0.22206838396E+03  0.24204033006E+03  0.89063811104E+02 0.  0.
          2    1    3    3  502    0 -0.38676188562E+02  0.78250683133E+01  0.16013632477E+02  0.42585392811E+02  0.00000000000E+00 0. -1.
         -1    1    3    3    0  502 -0.48611965708E+03  0.73493722549E+02  0.52674062397E+03  0.72053406109E+03  0.00000000000E+00 0.  1.
         11    1    5    5    0    0  0.25973843590E+03 -0.39083633418E+02 -0.27386669524E+03  0.37946614111E+03  0.00000000000E+00 0. -1.
        -11    1    5    5    0    0  0.28352291585E+03 -0.73791723427E+02 -0.44955100584E+03  0.53658789505E+03  0.00000000000E+00 0.  1.
          3    1    6    6  503    0 -0.40744781871E+02  0.55031802077E+01  0.19227705334E+03  0.19662372055E+03  0.00000000000E+00 0. -1.
         -3    1    6    6    0  503  0.22279275772E+02  0.26053385775E+02  0.29791330626E+02  0.45416609514E+02  0.00000000000E+00 0.  1.
<mgrwt>
<rscale>  0 0.19207676E+04</rscale>
<asrwt>0</asrwt>
<pdfrwt beam="1">  1        2 0.14460068E+00 0.19207676E+04</pdfrwt>
<pdfrwt beam="2">  1       -1 0.15097067E+00 0.19207676E+04</pdfrwt>
<totfact> 0.10084965E+01</totfact>
</mgrwt>
</event>
<event>
12    6  0.1586493E-007  0.1445558E+04  0.7818608E-02  0.8921486E-01
          2   -1    0    0  501    0  0.00000000000E+00  0.00000000000E+00  0.13026699831E+04  0.13026699831E+04  0.00000000000E+00 0. -1.
         -1   -1    0    0    0  501 -0.00000000000E+00 -0.00000000000E+00 -0.40102982381E+03  0.40102982381E+03  0.00000000000E+00 0.  1.
         24    2    1    2    0    0 -0.34710986873E+03  0.18040590482E+03  0.48369893643E+03  0.63137561834E+03  0.10788400656E+03 0.  0.
        254    2    1    2    0    0  0.34710986873E+03 -0.18040590482E+03  0.41794122282E+03  0.10723241885E+04  0.90673741961E+03 0.  0.
         23    2    4    4    0    0  0.14725861605E+03  0.17014906711E+03  0.57905501353E+03  0.62797682938E+03  0.91729954216E+02 0.  0.
         23    2    4    4    0    0  0.19985125268E+03 -0.35055497193E+03 -0.16111379071E+03  0.44434735916E+03  0.93046281445E+02 0.  0.
          2    1    3    3  502    0 -0.34809186989E+03  0.18094838777E+03  0.48845042322E+03  0.62649348349E+03  0.00000000000E+00 0. -1.
         -1    1    3    3    0  502  0.98200115750E+00 -0.54248295022E+00 -0.47514867860E+01  0.48821348509E+01  0.00000000000E+00 0.  1.
         11    1    5    5    0    0  0.19447524863E+02  0.88394728203E+02  0.19262327885E+03  0.21282753993E+03  0.00000000000E+00 0.  1.
        -11    1    5    5    0    0  0.12781109119E+03  0.81754338903E+02  0.38643173468E+03  0.41514928945E+03  0.00000000000E+00 0. -1.
          3    1    6    6  503    0  0.11496309474E+03 -0.14716191527E+03 -0.33665052176E+02  0.18975373038E+03  0.00000000000E+00 0.  1.
         -3    1    6    6    0  503  0.84888157939E+02 -0.20339305666E+03 -0.12744873854E+03  0.25459362877E+03  0.00000000000E+00 0. -1.
<mgrwt>
<rscale>  0 0.14455580E+04</rscale>
<asrwt>0</asrwt>
<pdfrwt beam="1">  1        2 0.20041076E+00 0.14455580E+04</pdfrwt>
<pdfrwt beam="2">  1       -1 0.61696897E-01 0.14455580E+04</pdfrwt>
<totfact> 0.48535553E+01</totfact>
</mgrwt>
</event>
<event>
12    6  0.1586493E-007  0.1521110E+04  0.7818608E-02  0.8870535E-01
          2   -1    0    0  501    0  0.00000000000E+00  0.00000000000E+00  0.27007845015E+04  0.27007845015E+04  0.00000000000E+00 0. -1.
         -1   -1    0    0    0  501 -0.00000000000E+00 -0.00000000000E+00 -0.21417619475E+03  0.21417619475E+03  0.00000000000E+00 0.  1.
         24    2    1    2    0    0 -0.25023196177E+03  0.28528674096E+03  0.13984930998E+04  0.14513461025E+04  0.81351089731E+02 0.  0.
        254    2    1    2    0    0  0.25023196177E+03 -0.28528674096E+03  0.10881152069E+04  0.14636145937E+04  0.90231281504E+03 0.  0.
         23    2    4    4    0    0  0.52753071692E+03  0.41860532209E+02  0.65306999703E+03  0.84610269476E+03  0.96687060172E+02 0.  0.
         23    2    4    4    0    0 -0.27729875515E+03 -0.32714727317E+03  0.43504520990E+03  0.61751189898E+03  0.90203507544E+02 0.  0.
          4    1    3    3  502    0 -0.24484266679E+03  0.26671054096E+03  0.13690768761E+04  0.14161405075E+04  0.00000000000E+00 0. -1.
         -3    1    3    3    0  502 -0.53892949853E+01  0.18576200006E+02  0.29416223704E+02  0.35205595068E+02  0.00000000000E+00 0.  1.
         11    1    5    5    0    0  0.37206960570E+03  0.33992908007E+02  0.38754466875E+03  0.53831420152E+03  0.00000000000E+00 0. -1.
        -11    1    5    5    0    0  0.15546111122E+03  0.78676242019E+01  0.26552532828E+03  0.30778849324E+03  0.00000000000E+00 0.  1.
          4    1    6    6  503    0 -0.25482228361E+03 -0.29918482254E+03  0.35418038351E+03  0.52904602666E+03  0.00000000000E+00 0.  1.
         -4    1    6    6    0  503 -0.22476471539E+02 -0.27962450632E+02  0.80864826386E+02  0.88465872316E+02  0.00000000000E+00 0. -1.
<mgrwt>
<rscale>  0 0.15211098E+04</rscale>
<asrwt>0</asrwt>
<pdfrwt beam="1">  1        2 0.41550528E+00 0.15211098E+04</pdfrwt>
<pdfrwt beam="2">  1       -1 0.32950186E-01 0.15211098E+04</pdfrwt>
<totfact> 0.25293006E+01</totfact>
</mgrwt>
</event>
<event>
12    6  0.1586493E-007  0.1403139E+04  0.7818608E-02  0.8951550E-01
         -1   -1    0    0    0  501 -0.00000000000E+00  0.00000000000E+00  0.93680892022E+03  0.93680892022E+03  0.00000000000E+00 0.  1.
          2   -1    0    0  501    0  0.00000000000E+00 -0.00000000000E+00 -0.52540016099E+03  0.52540016099E+03  0.00000000000E+00 0. -1.
         24    2    1    2    0    0  0.32757453081E+03 -0.23859228614E+03  0.39663859282E+02  0.41459336082E+03  0.77994107899E+02 0.  0.
        254    2    1    2    0    0 -0.32757453081E+03  0.23859228614E+03  0.37174489995E+03  0.10476157204E+04  0.89166870233E+03 0.  0.
         23    2    4    4    0    0  0.37886150749E+02  0.41543082169E+03  0.45409292544E+03  0.62329654509E+03  0.90994890827E+02 0.  0.
         23    2    4    4    0    0 -0.36546068155E+03 -0.17683853555E+03 -0.82348025491E+02  0.42431917529E+03  0.91826944840E+02 0.  0.
          4    1    3    3  502    0  0.25996734161E+03 -0.15316645931E+03  0.10953854054E+02  0.30193206169E+03  0.00000000000E+00 0. -1.
         -3    1    3    3    0  502  0.67607189195E+02 -0.85425826832E+02  0.28710005228E+02  0.11266129913E+03  0.00000000000E+00 0.  1.
         11    1    5    5    0    0 -0.21691913317E+01  0.78894369306E+02  0.14259219083E+03  0.16297717566E+03  0.00000000000E+00 0.  1.
        -11    1    5    5    0    0  0.40055342081E+02  0.33653645239E+03  0.31150073461E+03  0.46031936944E+03  0.00000000000E+00 0. -1.
          2    1    6    6  503    0 -0.57554861316E+02 -0.62953559792E+02  0.21577030189E+01  0.85325075060E+02  0.00000000000E+00 0. -1.
         -2    1    6    6    0  503 -0.30790582024E+03 -0.11388497576E+03 -0.84505728510E+02  0.33899410023E+03  0.00000000000E+00 0.  1.
<mgrwt>
<rscale>  0 0.14031387E+04</rscale>
<asrwt>0</asrwt>
<pdfrwt beam="1">  1        2 0.80830794E-01 0.14031387E+04</pdfrwt>
<pdfrwt beam="2">  1       -1 0.14412445E+00 0.14031387E+04</pdfrwt>
<totfact> 0.25103914E+01</totfact>
</mgrwt>
</event>
<event>
12    6  0.1586493E-007  0.1611694E+04  0.7818608E-02  0.8813396E-01
          2   -1    0    0  501    0  0.00000000000E+00  0.00000000000E+00  0.28192815950E+03  0.28192815950E+03  0.00000000000E+00 0. -1.
         -1   -1    0    0    0  501 -0.00000000000E+00 -0.00000000000E+00 -0.23033863574E+04  0.23033863574E+04  0.00000000000E+00 0.  1.
         24    2    1    2    0    0 -0.43902949654E+02 -0.31714363346E+03  0.34489311489E+02  0.33174662824E+03  0.79741830359E+02 0.  0.
        254    2    1    2    0    0  0.43902949654E+02  0.31714363346E+03 -0.20559475094E+04  0.22535678887E+04  0.86552903718E+03 0.  0.
         23    2    4    4    0    0  0.21473422534E+02  0.58345639779E+03 -0.16950192517E+04  0.17950404309E+04  0.90539543085E+02 0.  0.
         23    2    4    4    0    0  0.22429527119E+02 -0.26631276433E+03 -0.36092825766E+03  0.45852745775E+03  0.92480539596E+02 0.  0.
          2    1    3    3  502    0  0.10054430066E+02 -0.13800008205E+03  0.41705147586E+02  0.14451447521E+03  0.00000000000E+00 0. -1.
         -1    1    3    3    0  502 -0.53957379720E+02 -0.17914355141E+03 -0.72158360970E+01  0.18723215303E+03  0.00000000000E+00 0.  1.
         11    1    5    5    0    0  0.17810267025E+02  0.28217071181E+03 -0.95677808964E+03  0.99767821919E+03  0.00000000000E+00 0. -1.
        -11    1    5    5    0    0  0.36631555095E+01  0.30128568598E+03 -0.73824116208E+03  0.79736221171E+03  0.00000000000E+00 0.  1.
          2    1    6    6  503    0 -0.95879835941E+01 -0.44296213495E+02 -0.18029968642E+02  0.48776671971E+02  0.00000000000E+00 0. -1.
         -2    1    6    6    0  503  0.32017510713E+02 -0.22201655084E+03 -0.34289828902E+03  0.40975078578E+03  0.00000000000E+00 0.  1.
<mgrwt>
<rscale>  0 0.16116941E+04</rscale>
<asrwt>0</asrwt>
<pdfrwt beam="1">  1        2 0.43373564E-01 0.16116941E+04</pdfrwt>
<pdfrwt beam="2">  1       -1 0.35436712E+00 0.16116941E+04</pdfrwt>
<totfact> 0.18837173E+00</totfact>
</mgrwt>
</event>
<event>
12    6  0.1586493E-007  0.2050648E+04  0.7818608E-02  0.8583300E-01
         -1   -1    0    0    0  501 -0.00000000000E+00  0.00000000000E+00  0.89132936143E+03  0.89132936143E+03  0.00000000000E+00 0.  1.
          2   -1    0    0  501    0  0.00000000000E+00 -0.00000000000E+00 -0.11794625089E+04  0.11794625089E+04  0.00000000000E+00 0. -1.
         24    2    1    2    0    0  0.78784737199E+03  0.69972522009E+02 -0.32047232738E+03  0.85711566562E+03  0.79656237952E+02 0.  0.
        254    2    1    2    0    0 -0.78784737199E+03 -0.69972522009E+02  0.32339179867E+02  0.12136762047E+04  0.91998069111E+03 0.  0.
         23    2    4    4    0    0 -0.61619408321E+03  0.16951099308E+03 -0.33998727506E+03  0.72958367512E+03  0.90949803974E+02 0.  0.
         23    2    4    4    0    0 -0.17165328878E+03 -0.23948351509E+03  0.37232645492E+03  0.48409252962E+03  0.94347139043E+02 0.  0.
          4    1    3    3  502    0  0.18634635719E+03 -0.12220969711E+02 -0.94860241780E+02  0.20945830709E+03  0.00000000000E+00 0. -1.
         -3    1    3    3    0  502  0.60150101481E+03  0.82193491720E+02 -0.22561208560E+03  0.64765735853E+03  0.00000000000E+00 0.  1.
         11    1    5    5    0    0 -0.58479167514E+02  0.34664160792E+02 -0.61988794871E+02  0.92000150903E+02  0.00000000000E+00 0.  1.
        -11    1    5    5    0    0 -0.55771491570E+03  0.13484683229E+03 -0.27799848019E+03  0.63758352422E+03  0.00000000000E+00 0. -1.
          3    1    6    6  503    0 -0.86859399921E+02 -0.18730227101E+03  0.28316492162E+03  0.35044124888E+03  0.00000000000E+00 0. -1.
         -3    1    6    6    0  503 -0.84793888861E+02 -0.52181244082E+02  0.89161533306E+02  0.13365128074E+03  0.00000000000E+00 0.  1.
<mgrwt>
<rscale>  0 0.20506483E+04</rscale>
<asrwt>0</asrwt>
<pdfrwt beam="1">  1        2 0.18145577E+00 0.20506483E+04</pdfrwt>
<pdfrwt beam="2">  1       -1 0.13712759E+00 0.20506483E+04</pdfrwt>
<totfact> 0.90960435E+00</totfact>
</mgrwt>
</event>
<event>
12    6  0.1586493E-007  0.1570796E+04  0.7818608E-02  0.8838693E-01
          2   -1    0    0  501    0  0.00000000000E+00  0.00000000000E+00  0.18515396383E+04  0.18515396383E+04  0.00000000000E+00 0. -1.
         -1   -1    0    0    0  501 -0.00000000000E+00 -0.00000000000E+00 -0.33315521458E+03  0.33315521458E+03  0.00000000000E+00 0.  1.
         24    2    1    2    0    0  0.27053909477E+03 -0.11893628788E+03  0.11124602974E+04  0.11538319288E+04  0.80143399270E+02 0.  0.
        254    2    1    2    0    0 -0.27053909477E+03  0.11893628788E+03  0.40592412631E+03  0.10308629240E+04  0.90031479458E+03 0.  0.
         23    2    4    4    0    0  0.30108276853E+03  0.15733104433E+03  0.64561136469E+02  0.35787805286E+03  0.92220764227E+02 0.  0.
         23    2    4    4    0    0 -0.57162186330E+03 -0.38394756454E+02  0.34136298984E+03  0.67298487113E+03  0.90300797364E+02 0.  0.
          4    1    3    3  502    0  0.23072773727E+03 -0.74569400503E+02  0.95955443432E+03  0.98971743274E+03  0.00000000000E+00 0. -1.
         -3    1    3    3    0  502  0.39811357498E+02 -0.44366887375E+02  0.15290586304E+03  0.16411449611E+03  0.00000000000E+00 0.  1.
         11    1    5    5    0    0  0.24243185646E+03  0.15606831910E+03  0.75857857558E+02  0.29813577411E+03  0.00000000000E+00 0.  1.
        -11    1    5    5    0    0  0.58650912074E+02  0.12627252364E+01 -0.11296721088E+02  0.59742278743E+02  0.00000000000E+00 0. -1.
          1    1    6    6  503    0 -0.26363087221E+03 -0.11672320975E+02  0.20928297112E+03  0.33680386259E+03  0.00000000000E+00 0. -1.
         -1    1    6    6    0  503 -0.30799099109E+03 -0.26722435479E+02  0.13208001872E+03  0.33618100853E+03  0.00000000000E+00 0.  1.
<mgrwt>
<rscale>  0 0.15707961E+04</rscale>
<asrwt>0</asrwt>
<pdfrwt beam="1">  1        2 0.28485225E+00 0.15707961E+04</pdfrwt>
<pdfrwt beam="2">  1       -1 0.51254650E-01 0.15707961E+04</pdfrwt>
<totfact> 0.33858875E+01</totfact>
</mgrwt>
</event>
<event>
12    6  0.1586493E-007  0.1574747E+04  0.7818608E-02  0.8836214E-01
         -1   -1    0    0    0  501 -0.00000000000E+00  0.00000000000E+00  0.20223755792E+03  0.20223755792E+03  0.00000000000E+00 0.  1.
          2   -1    0    0  501    0  0.00000000000E+00 -0.00000000000E+00 -0.30654908367E+04  0.30654908367E+04  0.00000000000E+00 0. -1.
         24    2    1    2    0    0  0.28294595444E+03  0.68482917385E+02 -0.61714249195E+02  0.31045914351E+03  0.88475466256E+02 0.  0.
        254    2    1    2    0    0 -0.28294595444E+03 -0.68482917385E+02 -0.28015390295E+04  0.29572692511E+04  0.90115046811E+03 0.  0.
         23    2    4    4    0    0  0.24430142880E+03  0.34296756766E+01 -0.18070268313E+04  0.18256331264E+04  0.88856021045E+02 0.  0.
         23    2    4    4    0    0 -0.52724738324E+03 -0.71912593061E+02 -0.99451219828E+03  0.11316361247E+04  0.91567363061E+02 0.  0.
          2    1    3    3  502    0  0.53378318658E+01  0.13501811405E+02 -0.19524897567E+02  0.24331316965E+02  0.00000000000E+00 0. -1.
         -3    1    3    3    0  502  0.27760812258E+03  0.54981105979E+02 -0.42189351629E+02  0.28612782655E+03  0.00000000000E+00 0.  1.
         11    1    5    5    0    0  0.28224227815E+01  0.17004317188E+02 -0.87661850175E+02  0.89340432333E+02  0.00000000000E+00 0.  1.
        -11    1    5    5    0    0  0.24147900602E+03 -0.13574641512E+02 -0.17193649811E+04  0.17362926941E+04  0.00000000000E+00 0. -1.
          3    1    6    6  503    0 -0.47338838597E+03 -0.47775431583E+02 -0.92692476970E+03  0.10419062264E+04  0.00000000000E+00 0. -1.
         -3    1    6    6    0  503 -0.53858997274E+02 -0.24137161478E+02 -0.67587428580E+02  0.89729898326E+02  0.00000000000E+00 0.  1.
<mgrwt>
<rscale>  0 0.15747474E+04</rscale>
<asrwt>0</asrwt>
<pdfrwt beam="1">  1        2 0.47161398E+00 0.15747474E+04</pdfrwt>
<pdfrwt beam="2">  1       -1 0.31113470E-01 0.15747474E+04</pdfrwt>
<totfact> 0.16688555E+01</totfact>
</mgrwt>
</event>
<event>
12    6  0.1586493E-007  0.2174663E+04  0.7818608E-02  0.8529048E-01
          4   -1    0    0  501    0  0.00000000000E+00  0.00000000000E+00  0.89202862522E+03  0.89202862522E+03  0.00000000000E+00 0. -1.
         -3   -1    0    0    0  501 -0.00000000000E+00 -0.00000000000E+00 -0.13253949810E+04  0.13253949810E+04  0.00000000000E+00 0.  1.
         24    2    1    2    0    0  0.97171048302E+02  0.75212546518E+03 -0.67682507590E+03  0.10197378040E+04  0.81474397573E+02 0.  0.
        254    2    1    2    0    0 -0.97171048302E+02 -0.75212546518E+03  0.24345872017E+03  0.11976858022E+04  0.89445190167E+03 0.  0.
         23    2    4    4    0    0  0.22330306104E+03 -0.79832570109E+03  0.20743801671E+03  0.85939582981E+03  0.91337174435E+02 0.  0.
         23    2    4    4    0    0 -0.32047410934E+03  0.46200235903E+02  0.36020703462E+02  0.33828997241E+03  0.91129017316E+02 0.  0.
          4    1    3    3  502    0  0.36754812818E+02  0.10355132115E+03 -0.12096516063E+03  0.16342081405E+03  0.00000000000E+00 0. -1.
         -3    1    3    3    0  502  0.60416235483E+02  0.64857414403E+03 -0.55585991528E+03  0.85631698992E+03  0.00000000000E+00 0.  1.
         11    1    5    5    0    0 -0.83536376264E+01 -0.28950262743E+02  0.12298737153E+02  0.32544737056E+02  0.00000000000E+00 0.  1.
        -11    1    5    5    0    0  0.23165669867E+03 -0.76937543834E+03  0.19513927955E+03  0.82685109275E+03  0.00000000000E+00 0. -1.
          1    1    6    6  503    0 -0.22698591586E+03 -0.31171265304E+01  0.47646538347E+02  0.23195369170E+03  0.00000000000E+00 0. -1.
         -1    1    6    6    0  503 -0.93488193484E+02  0.49317362433E+02 -0.11625834885E+02  0.10633628071E+03  0.00000000000E+00 0.  1.
<mgrwt>
<rscale>  0 0.21746634E+04</rscale>
<asrwt>0</asrwt>
<pdfrwt beam="1">  1        4 0.13723517E+00 0.21746634E+04</pdfrwt>
<pdfrwt beam="2">  1       -3 0.20390692E+00 0.21746634E+04</pdfrwt>
<totfact> 0.10900985E-01</totfact>
</mgrwt>
</event>
<event>
12    6  0.1586493E-007  0.1562276E+04  0.7818608E-02  0.8844065E-01
         -1   -1    0    0    0  501 -0.00000000000E+00  0.00000000000E+00  0.52371272258E+03  0.52371272258E+03  0.00000000000E+00 0.  1.
          2   -1    0    0  501    0  0.00000000000E+00 -0.00000000000E+00 -0.11650971608E+04  0.11650971608E+04  0.00000000000E+00 0. -1.
         24    2    1    2    0    0  0.13711629820E+03 -0.34378540282E+03  0.17905143599E+03  0.41860591903E+03  0.78627070996E+02 0.  0.
        254    2    1    2    0    0 -0.13711629820E+03  0.34378540282E+03 -0.82043587423E+03  0.12702039644E+04  0.89627774989E+03 0.  0.
         23    2    4    4    0    0 -0.39329878179E+03  0.44323073828E+03 -0.76944627756E+03  0.97642555522E+03  0.10110327263E+03 0.  0.
         23    2    4    4    0    0  0.25618248359E+03 -0.99445335455E+02 -0.50989596675E+02  0.29377840914E+03  0.90481904650E+02 0.  0.
          4    1    3    3  502    0 -0.87845654154E+01 -0.84728383719E+01  0.98235086056E+01  0.15667128037E+02  0.00000000000E+00 0. -1.
         -3    1    3    3    0  502  0.14590086362E+03 -0.33531256445E+03  0.16922792738E+03  0.40293879100E+03  0.00000000000E+00 0.  1.
         11    1    5    5    0    0 -0.36930803273E+03  0.43505234249E+03 -0.70399803630E+03  0.90624069587E+03  0.00000000000E+00 0. -1.
        -11    1    5    5    0    0 -0.23990749063E+02  0.81783957850E+01 -0.65448241256E+02  0.70184859348E+02  0.00000000000E+00 0.  1.
          1    1    6    6  503    0  0.21413970975E+03 -0.11198782448E+03 -0.25397001000E+02  0.24298579338E+03  0.00000000000E+00 0. -1.
         -1    1    6    6    0  503  0.42042773836E+02  0.12542489026E+02 -0.25592595675E+02  0.50792615764E+02  0.00000000000E+00 0.  1.
<mgrwt>
<rscale>  0 0.15622755E+04</rscale>
<asrwt>0</asrwt>
<pdfrwt beam="1">  1        2 0.17924571E+00 0.15622755E+04</pdfrwt>
<pdfrwt beam="2">  1       -1 0.80571189E-01 0.15622755E+04</pdfrwt>
<totfact> 0.33499058E+01</totfact>
</mgrwt>
</event>
<event>
12    6  0.1586493E-007  0.2128461E+04  0.7818608E-02  0.8548809E-01
          2   -1    0    0  501    0  0.00000000000E+00  0.00000000000E+00  0.30079497889E+04  0.30079497889E+04  0.00000000000E+00 0. -1.
         -1   -1    0    0    0  501 -0.00000000000E+00 -0.00000000000E+00 -0.37653120458E+03  0.37653120458E+03  0.00000000000E+00 0.  1.
         24    2    1    2    0    0 -0.32239593281E+03 -0.50921888949E+03  0.20819681788E+04  0.21689051784E+04  0.79467985791E+02 0.  0.
        254    2    1    2    0    0  0.32239593281E+03  0.50921888949E+03  0.54945040559E+03  0.12155758151E+04  0.90137994158E+03 0.  0.
         23    2    4    4    0    0  0.20444918959E+03  0.29110747368E+02  0.66269883816E+03  0.70018251438E+03  0.91863467190E+02 0.  0.
         23    2    4    4    0    0  0.11794674321E+03  0.48010814212E+03 -0.11324843258E+03  0.51539330069E+03  0.91595767098E+02 0.  0.
          2    1    3    3  502    0 -0.19646607707E+03 -0.33953571090E+03  0.14719639548E+04  0.15233388666E+04  0.00000000000E+00 0. -1.
         -1    1    3    3    0  502 -0.12592985573E+03 -0.16968317859E+03  0.61000422398E+03  0.64556631181E+03  0.00000000000E+00 0.  1.
         11    1    5    5    0    0  0.22151167988E+02  0.23986948779E+02  0.20336953492E+03  0.20597382282E+03  0.00000000000E+00 0. -1.
        -11    1    5    5    0    0  0.18229802161E+03  0.51237985896E+01  0.45932930325E+03  0.49420869156E+03  0.00000000000E+00 0.  1.
          4    1    6    6  503    0  0.17605398982E+02  0.18001162405E+03 -0.78126937734E+02  0.19702272272E+03  0.00000000000E+00 0. -1.
         -4    1    6    6    0  503  0.10034134423E+03  0.30009651807E+03 -0.35121494843E+02  0.31837057798E+03  0.00000000000E+00 0.  1.
<mgrwt>
<rscale>  0 0.21284614E+04</rscale>
<asrwt>0</asrwt>
<pdfrwt beam="1">  1        2 0.46276149E+00 0.21284614E+04</pdfrwt>
<pdfrwt beam="2">  1       -1 0.57927880E-01 0.21284614E+04</pdfrwt>
<totfact> 0.54459532E+00</totfact>
</mgrwt>
</event>
<event>
12    6  0.1586493E-007  0.2083667E+04  0.7818608E-02  0.8568472E-01
         -1   -1    0    0    0  501 -0.00000000000E+00  0.00000000000E+00  0.91737725807E+03  0.91737725807E+03  0.00000000000E+00 0.  1.
          2   -1    0    0  501    0  0.00000000000E+00 -0.00000000000E+00 -0.11831744623E+04  0.11831744623E+04  0.00000000000E+00 0. -1.
         24    2    1    2    0    0  0.39789668638E+03 -0.85804901996E+02 -0.85284271028E+03  0.94836033180E+03  0.79764504800E+02 0.  0.
        254    2    1    2    0    0 -0.39789668638E+03  0.85804901996E+02  0.58704550610E+03  0.11521913885E+04  0.90401234246E+03 0.  0.
         23    2    4    4    0    0 -0.53858538637E+03  0.15341885471E+03  0.72756972822E+03  0.92287590190E+03  0.93437987436E+02 0.  0.
         23    2    4    4    0    0  0.14068869999E+03 -0.67613952711E+02 -0.14052422212E+03  0.22931548662E+03  0.92052042320E+02 0.  0.
          4    1    3    3  502    0  0.27932912010E+03 -0.83844043921E+02 -0.66610225834E+03  0.72714977797E+03  0.00000000000E+00 0. -1.
         -3    1    3    3    0  502  0.11856756627E+03 -0.19608580757E+01 -0.18674045194E+03  0.22121055384E+03  0.00000000000E+00 0.  1.
         11    1    5    5    0    0 -0.86793390167E+02  0.54968220490E+02  0.10012489104E+03  0.14345588746E+03  0.00000000000E+00 0. -1.
        -11    1    5    5    0    0 -0.45179199620E+03  0.98450634217E+02  0.62744483718E+03  0.77942001444E+03  0.00000000000E+00 0.  1.
          4    1    6    6  503    0  0.13026391361E+03 -0.79687635720E+02 -0.92093866255E+02  0.17832578804E+03  0.00000000000E+00 0. -1.
         -4    1    6    6    0  503  0.10424786377E+02  0.12073683009E+02 -0.48430355869E+02  0.50989698587E+02  0.00000000000E+00 0.  1.
<mgrwt>
<rscale>  0 0.20836673E+04</rscale>
<asrwt>0</asrwt>
<pdfrwt beam="1">  1        2 0.18202684E+00 0.20836673E+04</pdfrwt>
<pdfrwt beam="2">  1       -1 0.14113496E+00 0.20836673E+04</pdfrwt>
<totfact> 0.83706479E+00</totfact>
</mgrwt>
</event>
<event>
12    6  0.1586493E-007  0.1970274E+04  0.7818608E-02  0.8620646E-01
          2   -1    0    0  501    0  0.00000000000E+00  0.00000000000E+00  0.24780893580E+04  0.24780893580E+04  0.00000000000E+00 0. -1.
         -1   -1    0    0    0  501 -0.00000000000E+00 -0.00000000000E+00 -0.39163031637E+03  0.39163031637E+03  0.00000000000E+00 0.  1.
         24    2    1    2    0    0  0.22339005233E+03  0.63315722690E+03  0.27656451477E+03  0.73051942081E+03  0.79871796550E+02 0.  0.
        254    2    1    2    0    0 -0.22339005233E+03 -0.63315722690E+03  0.18098945269E+04  0.21392002536E+04  0.92177455869E+03 0.  0.
         23    2    4    4    0    0 -0.57115147234E+03 -0.34967459097E+03  0.96779181778E+03  0.11804961813E+04  0.91999497122E+02 0.  0.
         23    2    4    4    0    0  0.34776142001E+03 -0.28348263594E+03  0.84210270910E+03  0.95870407233E+03  0.93145668167E+02 0.  0.
          4    1    3    3  502    0  0.71447147622E+02  0.27449708173E+03  0.15057826855E+03  0.32113417405E+03  0.00000000000E+00 0. -1.
         -3    1    3    3    0  502  0.15194290471E+03  0.35866014518E+03  0.12598624622E+03  0.40938524676E+03  0.00000000000E+00 0.  1.
         11    1    5    5    0    0 -0.65659539041E+02 -0.31587564368E+02  0.16077774729E+03  0.17651751560E+03  0.00000000000E+00 0. -1.
        -11    1    5    5    0    0 -0.50549193330E+03 -0.31808702660E+03  0.80701407048E+03  0.10039786656E+04  0.00000000000E+00 0.  1.
          3    1    6    6  503    0  0.18901484117E+03 -0.17427374480E+03  0.38840764822E+03  0.46578798772E+03  0.00000000000E+00 0. -1.
         -3    1    6    6    0  503  0.15874657885E+03 -0.10920889113E+03  0.45369506088E+03  0.49291608461E+03  0.00000000000E+00 0.  1.
<mgrwt>
<rscale>  0 0.19702740E+04</rscale>
<asrwt>0</asrwt>
<pdfrwt beam="1">  1        2 0.38124451E+00 0.19702740E+04</pdfrwt>
<pdfrwt beam="2">  1       -1 0.60250819E-01 0.19702740E+04</pdfrwt>
<totfact> 0.10620765E+01</totfact>
</mgrwt>
</event>
<event>
12    6  0.1586493E-007  0.1998466E+04  0.7818608E-02  0.8607338E-01
          2   -1    0    0  501    0  0.00000000000E+00  0.00000000000E+00  0.36609600046E+03  0.36609600046E+03  0.00000000000E+00 0. -1.
         -1   -1    0    0    0  501 -0.00000000000E+00 -0.00000000000E+00 -0.27273349149E+04  0.27273349149E+04  0.00000000000E+00 0.  1.
         24    2    1    2    0    0 -0.37901879240E+03 -0.11134364747E+03 -0.20008054515E+04  0.20409550956E+04  0.78883425326E+02 0.  0.
        254    2    1    2    0    0  0.37901879240E+03  0.11134364747E+03 -0.36043346297E+03  0.10524758198E+04  0.90649898904E+03 0.  0.
         23    2    4    4    0    0  0.24914900878E+02  0.42689961473E+03 -0.36546882728E+03  0.56938935750E+03  0.88163163410E+02 0.  0.
         23    2    4    4    0    0  0.35410389152E+03 -0.31555596726E+03  0.50353643093E+01  0.48308646226E+03  0.91553485249E+02 0.  0.
          2    1    3    3  502    0 -0.34956414310E+01  0.76452935121E+01 -0.58997163820E+02  0.59593081484E+02  0.00000000000E+00 0. -1.
         -1    1    3    3    0  502 -0.37552315096E+03 -0.11898894098E+03 -0.19418082877E+04  0.19813620141E+04  0.00000000000E+00 0.  1.
         11    1    5    5    0    0 -0.11715457070E+02  0.29590999442E+03 -0.21129338165E+03  0.36379234442E+03  0.00000000000E+00 0.  1.
        -11    1    5    5    0    0  0.36630357948E+02  0.13098962031E+03 -0.15417544563E+03  0.20559701308E+03  0.00000000000E+00 0. -1.
          1    1    6    6  503    0  0.31134878225E+02 -0.49501500051E+02  0.26264065676E+02  0.64106008261E+02  0.00000000000E+00 0. -1.
         -1    1    6    6    0  503  0.32296901329E+03 -0.26605446721E+03 -0.21228701366E+02  0.41898045400E+03  0.00000000000E+00 0.  1.
<mgrwt>
<rscale>  0 0.19984658E+04</rscale>
<asrwt>0</asrwt>
<pdfrwt beam="1">  1        2 0.56322462E-01 0.19984658E+04</pdfrwt>
<pdfrwt beam="2">  1       -1 0.41958998E+00 0.19984658E+04</pdfrwt>
<totfact> 0.49055563E-01</totfact>
</mgrwt>
</event>
<event>
12    6  0.1586493E-007  0.3178400E+04  0.7818608E-02  0.8194545E-01
          2   -1    0    0  501    0  0.00000000000E+00  0.00000000000E+00  0.33246473731E+04  0.33246473731E+04  0.00000000000E+00 0. -1.
         -1   -1    0    0    0  501 -0.00000000000E+00 -0.00000000000E+00 -0.75964650559E+03  0.75964650559E+03  0.00000000000E+00 0.  1.
         24    2    1    2    0    0  0.13138094308E+04 -0.62579312834E+03  0.10641472707E+04  0.18047287366E+04  0.83211410116E+02 0.  0.
        254    2    1    2    0    0 -0.13138094308E+04  0.62579312834E+03  0.15008535967E+04  0.22795651421E+04  0.90892434124E+03 0.  0.
         23    2    4    4    0    0 -0.77781223273E+03  0.21748916587E+03  0.24192411477E+03  0.84810775135E+03  0.92011270678E+02 0.  0.
         23    2    4    4    0    0 -0.53599719811E+03  0.40830396247E+03  0.12589294820E+04  0.14314573907E+04  0.10080525164E+03 0.  0.
          2    1    3    3  502    0  0.76747915423E+03 -0.38675152725E+03  0.58319251663E+03  0.10386118175E+04  0.00000000000E+00 0. -1.
         -1    1    3    3    0  502  0.54633027662E+03 -0.23904160109E+03  0.48095475411E+03  0.76611691908E+03  0.00000000000E+00 0.  1.
         11    1    5    5    0    0 -0.16690060336E+03  0.50410845645E+02  0.92529411218E+02  0.19737972718E+03  0.00000000000E+00 0. -1.
        -11    1    5    5    0    0 -0.61091162937E+03  0.16707832023E+03  0.14939470355E+03  0.65072802417E+03  0.00000000000E+00 0.  1.
          3    1    6    6  503    0 -0.21681717331E+03  0.22809452147E+03  0.59081338252E+03  0.66940066502E+03  0.00000000000E+00 0. -1.
         -3    1    6    6    0  503 -0.31918002480E+03  0.18020944100E+03  0.66811609946E+03  0.76205672572E+03  0.00000000000E+00 0.  1.
<mgrwt>
<rscale>  0 0.31784001E+04</rscale>
<asrwt>0</asrwt>
<pdfrwt beam="1">  1        2 0.51148420E+00 0.31784001E+04</pdfrwt>
<pdfrwt beam="2">  1       -1 0.11686869E+00 0.31784001E+04</pdfrwt>
<totfact> 0.67758490E-01</totfact>
</mgrwt>
</event>
<event>
12    6  0.1586493E-007  0.1455131E+04  0.7818608E-02  0.8914851E-01
          2   -1    0    0  501    0  0.00000000000E+00  0.00000000000E+00  0.28678421330E+04  0.28678421330E+04  0.00000000000E+00 0. -1.
         -1   -1    0    0    0  501 -0.00000000000E+00 -0.00000000000E+00 -0.18458187041E+03  0.18458187041E+03  0.00000000000E+00 0.  1.
         24    2    1    2    0    0 -0.14183730214E+03  0.69248585760E+02 -0.43360578117E+02  0.18210063270E+03  0.79795449655E+02 0.  0.
        254    2    1    2    0    0  0.14183730214E+03 -0.69248585760E+02  0.27266208407E+04  0.28703233707E+04  0.88282606248E+03 0.  0.
         23    2    4    4    0    0  0.12435666765E+03 -0.23370816406E+03  0.26544527856E+04  0.26688313710E+04  0.80356759641E+02 0.  0.
         23    2    4    4    0    0  0.17480634494E+02  0.16445957830E+03  0.72168055031E+02  0.20149199970E+03  0.89656412469E+02 0.  0.
          4    1    3    3  502    0 -0.34979314713E+02 -0.17602922270E+02 -0.99773444505E+01  0.40409933587E+02  0.00000000000E+00 0. -1.
         -1    1    3    3    0  502 -0.10685798743E+03  0.86851508030E+02 -0.33383233666E+02  0.14169069911E+03  0.00000000000E+00 0.  1.
         11    1    5    5    0    0  0.16101134673E+02 -0.11092283421E+03  0.11850565304E+04  0.11903453709E+04  0.00000000000E+00 0.  1.
        -11    1    5    5    0    0  0.10825553297E+03 -0.12278532985E+03  0.14693962552E+04  0.14784860001E+04  0.00000000000E+00 0. -1.
          1    1    6    6  503    0  0.15668463701E+02  0.13248608356E+03  0.12780701744E+02  0.13402018292E+03  0.00000000000E+00 0. -1.
         -1    1    6    6    0  503  0.18121707935E+01  0.31973494741E+02  0.59387353287E+02  0.67471816778E+02  0.00000000000E+00 0.  1.
<mgrwt>
<rscale>  0 0.14551311E+04</rscale>
<asrwt>0</asrwt>
<pdfrwt beam="1">  1        2 0.44120645E+00 0.14551311E+04</pdfrwt>
<pdfrwt beam="2">  1       -1 0.28397213E-01 0.14551311E+04</pdfrwt>
<totfact> 0.26248252E+01</totfact>
</mgrwt>
</event>
<event>
12    6  0.1586493E-007  0.1616597E+04  0.7818608E-02  0.8810416E-01
         -1   -1    0    0    0  501 -0.00000000000E+00  0.00000000000E+00  0.20638595266E+03  0.20638595266E+03  0.00000000000E+00 0.  1.
          2   -1    0    0  501    0  0.00000000000E+00 -0.00000000000E+00 -0.31656552054E+04  0.31656552054E+04  0.00000000000E+00 0. -1.
         24    2    1    2    0    0  0.20466157237E+03  0.21742830521E+03 -0.51757483484E+02  0.31340772417E+03  0.79900796998E+02 0.  0.
        254    2    1    2    0    0 -0.20466157237E+03 -0.21742830521E+03 -0.29075117692E+04  0.30586334338E+04  0.90136139665E+03 0.  0.
         23    2    4    4    0    0  0.16149679993E+03 -0.76316461189E+02 -0.10325038809E+03  0.22558110393E+03  0.91218272147E+02 0.  0.
         23    2    4    4    0    0 -0.36615837231E+03 -0.14111184402E+03 -0.28042613811E+04  0.28330523299E+04  0.91209123371E+02 0.  0.
          4    1    3    3  502    0  0.94547758856E+02  0.82858857822E+02  0.16125461542E+02  0.12674738472E+03  0.00000000000E+00 0. -1.
         -3    1    3    3    0  502  0.11011381352E+03  0.13456944738E+03 -0.67882945025E+02  0.18666033945E+03  0.00000000000E+00 0.  1.
         11    1    5    5    0    0  0.14682972469E+02 -0.35227778207E+02 -0.52488577088E+02  0.64897124456E+02  0.00000000000E+00 0. -1.
        -11    1    5    5    0    0  0.14681382747E+03 -0.41088682982E+02 -0.50761810999E+02  0.16068397948E+03  0.00000000000E+00 0.  1.
          4    1    6    6  503    0 -0.71114328508E+02  0.69305212283E+01 -0.59257035491E+03  0.59686255148E+03  0.00000000000E+00 0. -1.
         -4    1    6    6    0  503 -0.29504404380E+03 -0.14804236525E+03 -0.22116910262E+04  0.22361897784E+04  0.00000000000E+00 0.  1.
<mgrwt>
<rscale>  0 0.16165974E+04</rscale>
<asrwt>0</asrwt>
<pdfrwt beam="1">  1        2 0.48702383E+00 0.16165974E+04</pdfrwt>
<pdfrwt beam="2">  1       -1 0.31751688E-01 0.16165974E+04</pdfrwt>
<totfact> 0.13846699E+01</totfact>
</mgrwt>
</event>
<event>
12    6  0.1586493E-007  0.4359930E+04  0.7818608E-02  0.7935629E-01
         -1   -1    0    0    0  501 -0.00000000000E+00  0.00000000000E+00  0.19074356809E+04  0.19074356809E+04  0.00000000000E+00 0.  1.
          2   -1    0    0  501    0  0.00000000000E+00 -0.00000000000E+00 -0.24914322664E+04  0.24914322664E+04  0.00000000000E+00 0. -1.
         24    2    1    2    0    0  0.20085838391E+04  0.37682661357E+03 -0.67413212167E+03  0.21533576650E+04  0.78024229941E+02 0.  0.
        254    2    1    2    0    0 -0.20085838391E+04 -0.37682661357E+03  0.90135536219E+02  0.22455102824E+04  0.92616665775E+03 0.  0.
         23    2    4    4    0    0 -0.16017951560E+04 -0.65916605570E+03  0.52776627415E+01  0.17343863479E+04  0.88433813155E+02 0.  0.
         23    2    4    4    0    0 -0.40678868309E+03  0.28233944213E+03  0.84857873478E+02  0.51112393445E+03  0.94096888394E+02 0.  0.
          4    1    3    3  502    0  0.17811333063E+04  0.31520387644E+03 -0.57884312179E+03  0.18991705290E+04  0.00000000000E+00 0. -1.
         -3    1    3    3    0  502  0.22745053275E+03  0.61622737139E+02 -0.95288999882E+02  0.25418713594E+03  0.00000000000E+00 0.  1.
         11    1    5    5    0    0 -0.97796395793E+03 -0.38609378989E+03 -0.37260272075E+02  0.10520790110E+04  0.00000000000E+00 0.  1.
        -11    1    5    5    0    0 -0.62383119808E+03 -0.27307226581E+03  0.42537934816E+02  0.68230733687E+03  0.00000000000E+00 0. -1.
          1    1    6    6  503    0 -0.33188050333E+03  0.19689743499E+03  0.36440713368E+02  0.38760958965E+03  0.00000000000E+00 0. -1.
         -1    1    6    6    0  503 -0.74908179753E+02  0.85442007133E+02  0.48417160110E+02  0.12351434479E+03  0.00000000000E+00 0.  1.
<mgrwt>
<rscale>  0 0.43599297E+04</rscale>
<asrwt>0</asrwt>
<pdfrwt beam="1">  1        2 0.38329727E+00 0.43599297E+04</pdfrwt>
<pdfrwt beam="2">  1       -1 0.29345164E+00 0.43599297E+04</pdfrwt>
<totfact> 0.11172110E-01</totfact>
</mgrwt>
</event>
<event>
12    6  0.1586493E-007  0.1739340E+04  0.7818608E-02  0.8739240E-01
          2   -1    0    0  501    0  0.00000000000E+00  0.00000000000E+00  0.50850393915E+03  0.50850393915E+03  0.00000000000E+00 0. -1.
         -1   -1    0    0    0  501 -0.00000000000E+00 -0.00000000000E+00 -0.14873544930E+04  0.14873544930E+04  0.00000000000E+00 0.  1.
         24    2    1    2    0    0 -0.19916560537E+03  0.14054641178E+03  0.31108535482E+03  0.40349037061E+03  0.81302822595E+02 0.  0.
        254    2    1    2    0    0  0.19916560537E+03 -0.14054641178E+03 -0.12899359087E+04  0.15923680616E+04  0.90126642163E+03 0.  0.
         23    2    4    4    0    0  0.40607337032E+03 -0.37768942475E+03 -0.10354465792E+04  0.11780470688E+04  0.90002190374E+02 0.  0.
         23    2    4    4    0    0 -0.20690776495E+03  0.23714301296E+03 -0.25448932954E+03  0.41432099282E+03  0.88597034058E+02 0.  0.
          2    1    3    3  502    0 -0.10825767108E+03  0.29719190864E+02  0.15739817130E+03  0.19333167868E+03  0.00000000000E+00 0. -1.
         -1    1    3    3    0  502 -0.90907934288E+02  0.11082722092E+03  0.15368718352E+03  0.21015869193E+03  0.00000000000E+00 0.  1.
         11    1    5    5    0    0 -0.45648562052E+01 -0.26329718448E+01 -0.60254476257E+01  0.80047780731E+01  0.00000000000E+00 0. -1.
        -11    1    5    5    0    0  0.41063822653E+03 -0.37505645290E+03 -0.10294211315E+04  0.11700422907E+04  0.00000000000E+00 0.  1.
          4    1    6    6  503    0 -0.22215278968E+02  0.15331075538E+02 -0.61348750737E+02  0.67024098007E+02  0.00000000000E+00 0. -1.
         -4    1    6    6    0  503 -0.18469248599E+03  0.22181193742E+03 -0.19314057880E+03  0.34729689481E+03  0.00000000000E+00 0.  1.
<mgrwt>
<rscale>  0 0.17393397E+04</rscale>
<asrwt>0</asrwt>
<pdfrwt beam="1">  1        2 0.78231375E-01 0.17393397E+04</pdfrwt>
<pdfrwt beam="2">  1       -1 0.22882377E+00 0.17393397E+04</pdfrwt>
<totfact> 0.62904435E+00</totfact>
</mgrwt>
</event>
<event>
12    6  0.1586493E-007  0.1450204E+04  0.7818608E-02  0.8918259E-01
         -1   -1    0    0    0  501 -0.00000000000E+00  0.00000000000E+00  0.33455126906E+03  0.33455126906E+03  0.00000000000E+00 0.  1.
          2   -1    0    0  501    0  0.00000000000E+00 -0.00000000000E+00 -0.15715768482E+04  0.15715768482E+04  0.00000000000E+00 0. -1.
         24    2    1    2    0    0  0.42987068693E+03  0.41674893735E+02 -0.26776878256E+03  0.51439059310E+03  0.79824539530E+02 0.  0.
        254    2    1    2    0    0 -0.42987068693E+03 -0.41674893735E+02 -0.96925679657E+03  0.13917375241E+04  0.90052706465E+03 0.  0.
         23    2    4    4    0    0  0.44257768242E+02 -0.25034216953E+02  0.14412242917E+03  0.17732133127E+03  0.89922843950E+02 0.  0.
         23    2    4    4    0    0 -0.47412845517E+03 -0.16640676782E+02 -0.11133792257E+04  0.12144161929E+04  0.10059167502E+03 0.  0.
          2    1    3    3  502    0  0.41798418197E+03  0.47429944846E+02 -0.27149388523E+03  0.50066885840E+03  0.00000000000E+00 0. -1.
         -1    1    3    3    0  502  0.11886504955E+02 -0.57550511114E+01  0.37251026786E+01  0.13721734704E+02  0.00000000000E+00 0.  1.
         11    1    5    5    0    0  0.70713866764E+01 -0.47161209611E+02  0.11676267351E+03  0.12612575521E+03  0.00000000000E+00 0. -1.
        -11    1    5    5    0    0  0.37186381566E+02  0.22126992658E+02  0.27359755656E+02  0.51195576055E+02  0.00000000000E+00 0.  1.
          1    1    6    6  503    0 -0.44774363462E+03 -0.17507768158E+02 -0.10922946491E+04  0.11806305454E+04  0.00000000000E+00 0. -1.
         -1    1    6    6    0  503 -0.26384820552E+02  0.86709137569E+00 -0.21084576640E+02  0.33785647472E+02  0.00000000000E+00 0.  1.
<mgrwt>
<rscale>  0 0.14502042E+04</rscale>
<asrwt>0</asrwt>
<pdfrwt beam="1">  1        2 0.24178105E+00 0.14502042E+04</pdfrwt>
<pdfrwt beam="2">  1       -1 0.51469426E-01 0.14502042E+04</pdfrwt>
<totfact> 0.48539191E+01</totfact>
</mgrwt>
</event>
<event>
12    6  0.1586493E-007  0.1173354E+04  0.7818608E-02  0.9136504E-01
          2   -1    0    0  501    0  0.00000000000E+00  0.00000000000E+00  0.23910131823E+04  0.23910131823E+04  0.00000000000E+00 0. -1.
         -1   -1    0    0    0  501 -0.00000000000E+00 -0.00000000000E+00 -0.14395158559E+03  0.14395158559E+03  0.00000000000E+00 0.  1.
         24    2    1    2    0    0 -0.68785592709E+02 -0.36769670970E+02  0.44035884558E+01  0.11188393737E+03  0.80094677617E+02 0.  0.
        254    2    1    2    0    0  0.68785592709E+02  0.36769670970E+02  0.22426580082E+04  0.24230808305E+04  0.91417848520E+03 0.  0.
         23    2    4    4    0    0 -0.11593132767E+03 -0.41083981318E+02  0.21918691782E+04  0.21971797119E+04  0.90444600282E+02 0.  0.
         23    2    4    4    0    0  0.18471692038E+03  0.77853652288E+02  0.50788829999E+02  0.22590111859E+03  0.90941070343E+02 0.  0.
          4    1    3    3  502    0  0.24929083296E+01 -0.14192541281E+02  0.29651499091E+02  0.32967472125E+02  0.00000000000E+00 0. -1.
         -3    1    3    3    0  502 -0.71278501039E+02 -0.22577129689E+02 -0.25247910635E+02  0.78916465245E+02  0.00000000000E+00 0.  1.
         11    1    5    5    0    0 -0.10558010387E+03 -0.64726378608E+02  0.19524110485E+04  0.19563347272E+04  0.00000000000E+00 0. -1.
        -11    1    5    5    0    0 -0.10351223800E+02  0.23642397290E+02  0.23945812975E+03  0.24084498477E+03  0.00000000000E+00 0.  1.
          2    1    6    6  503    0  0.14293690380E+03  0.97883934848E+02  0.46483358992E+02  0.17936812937E+03  0.00000000000E+00 0. -1.
         -2    1    6    6    0  503  0.41780016578E+02 -0.20030282560E+02  0.43054710072E+01  0.46532989215E+02  0.00000000000E+00 0.  1.
<mgrwt>
<rscale>  0 0.11733544E+04</rscale>
<asrwt>0</asrwt>
<pdfrwt beam="1">  1        2 0.36784815E+00 0.11733544E+04</pdfrwt>
<pdfrwt beam="2">  1       -1 0.22146400E-01 0.11733544E+04</pdfrwt>
<totfact> 0.78448195E+01</totfact>
</mgrwt>
</event>
<event>
12    6  0.1586493E-007  0.1301161E+04  0.7818608E-02  0.9028645E-01
         -1   -1    0    0    0  501 -0.00000000000E+00  0.00000000000E+00  0.26236308648E+03  0.26236308648E+03  0.00000000000E+00 0.  1.
          2   -1    0    0  501    0  0.00000000000E+00 -0.00000000000E+00 -0.16132415593E+04  0.16132415593E+04  0.00000000000E+00 0. -1.
         24    2    1    2    0    0  0.16624466828E+03  0.41263746569E+02 -0.74614977899E+03  0.76914674050E+03  0.74210708260E+02 0.  0.
        254    2    1    2    0    0 -0.16624466828E+03 -0.41263746569E+02 -0.60472869385E+03  0.11064579053E+04  0.91061095783E+03 0.  0.
         23    2    4    4    0    0  0.17554768051E+02 -0.43092963756E+03 -0.13169994725E+03  0.46032416104E+03  0.92438816121E+02 0.  0.
         23    2    4    4    0    0 -0.18379943633E+03  0.38966589099E+03 -0.47302874660E+03  0.64613374425E+03  0.90060429476E+02 0.  0.
          2    1    3    3  502    0  0.15600854117E+03  0.19375172425E+02 -0.69525733892E+03  0.71280911158E+03  0.00000000000E+00 0. -1.
         -1    1    3    3    0  502  0.10236127106E+02  0.21888574144E+02 -0.50892440069E+02  0.56337628920E+02  0.00000000000E+00 0.  1.
         11    1    5    5    0    0 -0.35465556774E+02 -0.23224383061E+03 -0.81231679099E+02  0.24858316166E+03  0.00000000000E+00 0.  1.
        -11    1    5    5    0    0  0.53020324825E+02 -0.19868580695E+03 -0.50468268149E+02  0.21174099938E+03  0.00000000000E+00 0. -1.
          2    1    6    6  503    0 -0.70978713882E+02  0.10974690932E+03 -0.20143124294E+03  0.24011852815E+03  0.00000000000E+00 0. -1.
         -2    1    6    6    0  503 -0.11282072245E+03  0.27991898167E+03 -0.27159750366E+03  0.40601521610E+03  0.00000000000E+00 0.  1.
<mgrwt>
<rscale>  0 0.13011611E+04</rscale>
<asrwt>0</asrwt>
<pdfrwt beam="1">  1        2 0.24819101E+00 0.13011611E+04</pdfrwt>
<pdfrwt beam="2">  1       -1 0.40363552E-01 0.13011611E+04</pdfrwt>
<totfact> 0.73322973E+01</totfact>
</mgrwt>
</event>
<event>
12    6  0.1586493E-007  0.1944050E+04  0.7818608E-02  0.8633235E-01
          2   -1    0    0  501    0  0.00000000000E+00  0.00000000000E+00  0.29158790932E+04  0.29158790932E+04  0.00000000000E+00 0. -1.
         -1   -1    0    0    0  501 -0.00000000000E+00 -0.00000000000E+00 -0.32403018840E+03  0.32403018840E+03  0.00000000000E+00 0.  1.
         24    2    1    2    0    0 -0.43136152163E+03 -0.19090720580E+03  0.20257134583E+04  0.20814656856E+04  0.80411826289E+02 0.  0.
        254    2    1    2    0    0  0.43136152163E+03  0.19090720580E+03  0.56613544650E+03  0.11584435960E+04  0.89384780453E+03 0.  0.
         23    2    4    4    0    0  0.50253207842E+03  0.35342777340E+03  0.68623776927E+03  0.92548153875E+03  0.90244787940E+02 0.  0.
         23    2    4    4    0    0 -0.71170556791E+02 -0.16252056760E+03 -0.12010232277E+03  0.23296205721E+03  0.91479883667E+02 0.  0.
          4    1    3    3  502    0 -0.21333203756E+03 -0.12736656196E+03  0.11733036406E+04  0.11993224055E+04  0.00000000000E+00 0. -1.
         -3    1    3    3    0  502 -0.21802948407E+03 -0.63540643839E+02  0.85240981770E+03  0.88214328011E+03  0.00000000000E+00 0.  1.
         11    1    5    5    0    0  0.20826778380E+02  0.70610051247E+01  0.58768315656E+01  0.22762900525E+02  0.00000000000E+00 0. -1.
        -11    1    5    5    0    0  0.48170530004E+03  0.34636676827E+03  0.68036093770E+03  0.90271863823E+03  0.00000000000E+00 0.  1.
          3    1    6    6  503    0 -0.41288484728E+02 -0.80626255059E+01 -0.20891817180E+02  0.46970340922E+02  0.00000000000E+00 0. -1.
         -3    1    6    6    0  503 -0.29882072063E+02 -0.15445794209E+03 -0.99210505592E+02  0.18599171629E+03  0.00000000000E+00 0.  1.
<mgrwt>
<rscale>  0 0.19440503E+04</rscale>
<asrwt>0</asrwt>
<pdfrwt beam="1">  1        2 0.44859677E+00 0.19440503E+04</pdfrwt>
<pdfrwt beam="2">  1       -1 0.49850800E-01 0.19440503E+04</pdfrwt>
<totfact> 0.84432454E+00</totfact>
</mgrwt>
</event>
<event>
12    6  0.1586493E-007  0.1468543E+04  0.7818608E-02  0.8905646E-01
         -1   -1    0    0    0  501 -0.00000000000E+00  0.00000000000E+00  0.35507962150E+03  0.35507962150E+03  0.00000000000E+00 0.  1.
          2   -1    0    0  501    0  0.00000000000E+00 -0.00000000000E+00 -0.15184038654E+04  0.15184038654E+04  0.00000000000E+00 0. -1.
         24    2    1    2    0    0  0.12085450940E+03 -0.27370255701E+03 -0.82538038110E+03  0.88128572084E+03  0.76764875421E+02 0.  0.
        254    2    1    2    0    0 -0.12085450940E+03  0.27370255701E+03 -0.33794386281E+03  0.99219776606E+03  0.88359009185E+03 0.  0.
         23    2    4    4    0    0 -0.42283619912E+03  0.26548161797E+03  0.29126750937E+02  0.50834314303E+03  0.91068340714E+02 0.  0.
         23    2    4    4    0    0  0.30198168972E+03  0.82209390389E+01 -0.36707061375E+03  0.48385462303E+03  0.90077388864E+02 0.  0.
          4    1    3    3  502    0  0.97366275495E+02 -0.13403989891E+03 -0.48920962629E+03  0.51650067237E+03  0.00000000000E+00 0. -1.
         -3    1    3    3    0  502  0.23488233904E+02 -0.13966265809E+03 -0.33617075481E+03  0.36478504847E+03  0.00000000000E+00 0.  1.
         11    1    5    5    0    0 -0.33808135904E+03  0.17336864712E+03  0.51452356151E+00  0.37994204541E+03  0.00000000000E+00 0. -1.
        -11    1    5    5    0    0 -0.84754840085E+02  0.92112970847E+02  0.28612227376E+02  0.12840109763E+03  0.00000000000E+00 0.  1.
          1    1    6    6  503    0  0.13498569391E+03 -0.12840644200E+02 -0.10125610597E+03  0.16923007623E+03  0.00000000000E+00 0. -1.
         -1    1    6    6    0  503  0.16699599581E+03  0.21061583238E+02 -0.26581450778E+03  0.31462454680E+03  0.00000000000E+00 0.  1.
<mgrwt>
<rscale>  0 0.14685425E+04</rscale>
<asrwt>0</asrwt>
<pdfrwt beam="1">  1        2 0.23360059E+00 0.14685425E+04</pdfrwt>
<pdfrwt beam="2">  1       -1 0.54627635E-01 0.14685425E+04</pdfrwt>
<totfact> 0.46298223E+01</totfact>
</mgrwt>
</event>
<event>
12    6  0.1586493E-007  0.1217367E+04  0.7818608E-02  0.9097790E-01
         -1   -1    0    0    0  501 -0.00000000000E+00  0.00000000000E+00  0.75291864974E+03  0.75291864974E+03  0.00000000000E+00 0.  1.
          2   -1    0    0  501    0  0.00000000000E+00 -0.00000000000E+00 -0.49207880804E+03  0.49207880804E+03  0.00000000000E+00 0. -1.
         24    2    1    2    0    0 -0.65478797780E+02  0.16795869317E+03  0.25442395537E+03  0.32198501142E+03  0.80282021303E+02 0.  0.
        254    2    1    2    0    0  0.65478797780E+02 -0.16795869317E+03  0.64158863356E+01  0.92301244636E+03  0.90521445910E+03 0.  0.
         23    2    4    4    0    0 -0.27314488690E+03  0.11929287877E+03 -0.25227839851E+03  0.40094066666E+03  0.90940132283E+02 0.  0.
         23    2    4    4    0    0  0.33862368468E+03 -0.28725157194E+03  0.25869428484E+03  0.52207177970E+03  0.91960560785E+02 0.  0.
          4    1    3    3  502    0 -0.23845124356E+02  0.59682660403E+00  0.42686933453E+02  0.48899084298E+02  0.00000000000E+00 0. -1.
         -3    1    3    3    0  502 -0.41633673424E+02  0.16736186656E+03  0.21173702191E+03  0.27308592712E+03  0.00000000000E+00 0.  1.
         11    1    5    5    0    0 -0.18362736631E+03  0.98363050263E+02 -0.22132149465E+03  0.30393667648E+03  0.00000000000E+00 0. -1.
        -11    1    5    5    0    0 -0.89517520589E+02  0.20929828507E+02 -0.30956903859E+02  0.97003990177E+02  0.00000000000E+00 0.  1.
          1    1    6    6  503    0  0.27384345677E+03 -0.18451670398E+03  0.16796481501E+03  0.37047109461E+03  0.00000000000E+00 0. -1.
         -1    1    6    6    0  503  0.64780227916E+02 -0.10273486796E+03  0.90729469831E+02  0.15160068509E+03  0.00000000000E+00 0.  1.
<mgrwt>
<rscale>  0 0.12173665E+04</rscale>
<asrwt>0</asrwt>
<pdfrwt beam="1">  1        2 0.75704432E-01 0.12173665E+04</pdfrwt>
<pdfrwt beam="2">  1       -1 0.11583364E+00 0.12173665E+04</pdfrwt>
<totfact> 0.47724330E+01</totfact>
</mgrwt>
</event>
<event>
12    6  0.1586493E-007  0.1185880E+04  0.7818608E-02  0.9125306E-01
          2   -1    0    0  501    0  0.00000000000E+00  0.00000000000E+00  0.72911374832E+03  0.72911374832E+03  0.00000000000E+00 0. -1.
         -1   -1    0    0    0  501 -0.00000000000E+00 -0.00000000000E+00 -0.48219918809E+03  0.48219918809E+03  0.00000000000E+00 0.  1.
         24    2    1    2    0    0 -0.14968879256E+03  0.17355396121E+02  0.10708648908E+03  0.20170777513E+03  0.80688078491E+02 0.  0.
        254    2    1    2    0    0  0.14968879256E+03 -0.17355396121E+02  0.13982807115E+03  0.10096051613E+04  0.98845472724E+03 0.  0.
         23    2    4    4    0    0  0.55734906191E+03 -0.91463172964E+02  0.12511729906E+03  0.58549863330E+03  0.90281904357E+02 0.  0.
         23    2    4    4    0    0 -0.40766026935E+03  0.74107776843E+02  0.14710772084E+02  0.42410652798E+03  0.89280918826E+02 0.  0.
          4    1    3    3  502    0 -0.91359322186E+02  0.42281706164E+02  0.37188971683E+02  0.10731862858E+03  0.00000000000E+00 0. -1.
         -3    1    3    3    0  502 -0.58329470370E+02 -0.24926310043E+02  0.69897517401E+02  0.94389146541E+02  0.00000000000E+00 0.  1.
         11    1    5    5    0    0  0.52372841133E+03 -0.97495494627E+02  0.13570331255E+03  0.54973830988E+03  0.00000000000E+00 0. -1.
        -11    1    5    5    0    0  0.33620650575E+02  0.60323216626E+01 -0.10586013489E+02  0.35760323423E+02  0.00000000000E+00 0.  1.
          3    1    6    6  503    0 -0.21906625803E+03  0.54764767966E+00 -0.14649613195E+02  0.21955622627E+03  0.00000000000E+00 0. -1.
         -3    1    6    6    0  503 -0.18859401131E+03  0.73560129163E+02  0.29360385280E+02  0.20455030171E+03  0.00000000000E+00 0.  1.
<mgrwt>
<rscale>  0 0.11858804E+04</rscale>
<asrwt>0</asrwt>
<pdfrwt beam="1">  1        2 0.11217135E+00 0.11858804E+04</pdfrwt>
<pdfrwt beam="2">  1       -1 0.74184491E-01 0.11858804E+04</pdfrwt>
<totfact> 0.80281264E+01</totfact>
</mgrwt>
</event>
<event>
12    6  0.1586493E-007  0.2028554E+04  0.7818608E-02  0.8593386E-01
         -1   -1    0    0    0  501 -0.00000000000E+00  0.00000000000E+00  0.27577236029E+03  0.27577236029E+03  0.00000000000E+00 0.  1.
          2   -1    0    0  501    0  0.00000000000E+00 -0.00000000000E+00 -0.37304596630E+04  0.37304596630E+04  0.00000000000E+00 0. -1.
         24    2    1    2    0    0 -0.15487620385E+03  0.76337598668E+03 -0.10654161853E+04  0.13219908755E+04  0.76280348173E+02 0.  0.
        254    2    1    2    0    0  0.15487620385E+03 -0.76337598668E+03 -0.23892711174E+04  0.26842411477E+04  0.94329450930E+03 0.  0.
         23    2    4    4    0    0 -0.28430751001E+03 -0.66219078466E+03 -0.17657853416E+04  0.19094027470E+04  0.92160632263E+02 0.  0.
         23    2    4    4    0    0  0.43918371386E+03 -0.10118520202E+03 -0.62348577584E+03  0.77483840078E+03  0.92299810506E+02 0.  0.
          2    1    3    3  502    0  0.31931053899E+01  0.62093952740E+02 -0.10964776652E+03  0.12604954419E+03  0.00000000000E+00 0. -1.
         -1    1    3    3    0  502 -0.15806930924E+03  0.70128203394E+03 -0.95576841879E+03  0.11959413313E+04  0.00000000000E+00 0.  1.
         11    1    5    5    0    0 -0.76042416059E+02 -0.10210331429E+03 -0.26372331865E+03  0.29284385708E+03  0.00000000000E+00 0. -1.
        -11    1    5    5    0    0 -0.20826509395E+03 -0.56008747037E+03 -0.15020620229E+04  0.16165588899E+04  0.00000000000E+00 0.  1.
          1    1    6    6  503    0  0.12779642509E+03 -0.58060943726E+02 -0.24957046795E+03  0.28633619737E+03  0.00000000000E+00 0. -1.
         -1    1    6    6    0  503  0.31138728877E+03 -0.43124258298E+02 -0.37391530790E+03  0.48850220341E+03  0.00000000000E+00 0.  1.
<mgrwt>
<rscale>  0 0.20285538E+04</rscale>
<asrwt>0</asrwt>
<pdfrwt beam="1">  1        2 0.57391691E+00 0.20285538E+04</pdfrwt>
<pdfrwt beam="2">  1       -1 0.42426514E-01 0.20285538E+04</pdfrwt>
<totfact> 0.32176061E+00</totfact>
</mgrwt>
</event>
<event>
12    6  0.1586493E-007  0.2222133E+04  0.7818608E-02  0.8509272E-01
         -1   -1    0    0    0  501 -0.00000000000E+00  0.00000000000E+00  0.23512171602E+03  0.23512171602E+03  0.00000000000E+00 0.  1.
          2   -1    0    0  501    0  0.00000000000E+00 -0.00000000000E+00 -0.52503375083E+04  0.52503375083E+04  0.00000000000E+00 0. -1.
         24    2    1    2    0    0 -0.62319621152E+03  0.41749389439E+03 -0.75886579206E+03  0.10700174986E+04  0.79909242424E+02 0.  0.
        254    2    1    2    0    0  0.62319621152E+03 -0.41749389439E+03 -0.42563500002E+04  0.44154417257E+04  0.90384491975E+03 0.  0.
         23    2    4    4    0    0  0.58449228662E+03  0.11484851415E+03 -0.27407271381E+04  0.28060291560E+04  0.85982350503E+02 0.  0.
         23    2    4    4    0    0  0.38703924899E+02 -0.53234240853E+03 -0.15156228622E+04  0.16094125697E+04  0.90607536143E+02 0.  0.
          2    1    3    3  502    0 -0.33490097736E+03  0.17775710090E+03 -0.36754756084E+03  0.52806009226E+03  0.00000000000E+00 0. -1.
         -1    1    3    3    0  502 -0.28829523416E+03  0.23973679349E+03 -0.39131823122E+03  0.54195740633E+03  0.00000000000E+00 0.  1.
         11    1    5    5    0    0  0.33878394710E+03  0.10346635023E+03 -0.15143980924E+04  0.15552753552E+04  0.00000000000E+00 0. -1.
        -11    1    5    5    0    0  0.24570833952E+03  0.11382163911E+02 -0.12263290457E+04  0.12507538008E+04  0.00000000000E+00 0.  1.
          2    1    6    6  503    0  0.62632486248E+02 -0.23914945229E+03 -0.69338640750E+03  0.73613857322E+03  0.00000000000E+00 0. -1.
         -2    1    6    6    0  503 -0.23928561349E+02 -0.29319295624E+03 -0.82223645465E+03  0.87327399652E+03  0.00000000000E+00 0.  1.
<mgrwt>
<rscale>  0 0.22221326E+04</rscale>
<asrwt>0</asrwt>
<pdfrwt beam="1">  1        2 0.80774427E+00 0.22221326E+04</pdfrwt>
<pdfrwt beam="2">  1       -1 0.36172570E-01 0.22221326E+04</pdfrwt>
<totfact> 0.12057775E-01</totfact>
</mgrwt>
</event>
<event>
12    6  0.1586493E-007  0.3298525E+04  0.7818608E-02  0.8163271E-01
          2   -1    0    0  501    0  0.00000000000E+00  0.00000000000E+00  0.24271452789E+04  0.24271452789E+04  0.00000000000E+00 0. -1.
         -1   -1    0    0    0  501 -0.00000000000E+00 -0.00000000000E+00 -0.11206857253E+04  0.11206857253E+04  0.00000000000E+00 0.  1.
         24    2    1    2    0    0  0.33851510994E+02  0.15166779242E+04  0.43003524591E+03  0.15789534200E+04  0.81888577817E+02 0.  0.
        254    2    1    2    0    0 -0.33851510994E+02 -0.15166779242E+04  0.87642430767E+03  0.19688775843E+04  0.89827697524E+03 0.  0.
         23    2    4    4    0    0 -0.11862934723E+03 -0.13887458258E+03 -0.14369304861E+03  0.25003983375E+03  0.92266757454E+02 0.  0.
         23    2    4    4    0    0  0.84777836235E+02 -0.13778033416E+04  0.10201173563E+04  0.17188377505E+04  0.90743938451E+02 0.  0.
          4    1    3    3  502    0  0.28590720488E+01  0.12659039142E+04  0.37588853695E+03  0.13205351516E+04  0.00000000000E+00 0. -1.
         -3    1    3    3    0  502  0.30992438945E+02  0.25077400997E+03  0.54146708963E+02  0.25841826839E+03  0.00000000000E+00 0.  1.
         11    1    5    5    0    0 -0.55761375985E+02 -0.32915093224E+02 -0.56293506819E+01  0.64995569101E+02  0.00000000000E+00 0.  1.
        -11    1    5    5    0    0 -0.62867971244E+02 -0.10595948935E+03 -0.13806369793E+03  0.18504426465E+03  0.00000000000E+00 0. -1.
          3    1    6    6  503    0  0.98315033246E+02 -0.12436772157E+04  0.90038748348E+03  0.15385371244E+04  0.00000000000E+00 0. -1.
         -3    1    6    6    0  503 -0.13537197011E+02 -0.13412612590E+03  0.11972987281E+03  0.18030062616E+03  0.00000000000E+00 0.  1.
<mgrwt>
<rscale>  0 0.32985252E+04</rscale>
<asrwt>0</asrwt>
<pdfrwt beam="1">  1        2 0.37340696E+00 0.32985252E+04</pdfrwt>
<pdfrwt beam="2">  1       -1 0.17241319E+00 0.32985252E+04</pdfrwt>
<totfact> 0.86005933E-01</totfact>
</mgrwt>
</event>
<event>
12    6  0.1586493E-007  0.2832263E+04  0.7818608E-02  0.8293321E-01
         -1   -1    0    0    0  501 -0.00000000000E+00  0.00000000000E+00  0.64563572868E+03  0.64563572868E+03  0.00000000000E+00 0.  1.
          2   -1    0    0  501    0  0.00000000000E+00 -0.00000000000E+00 -0.31061304419E+04  0.31061304419E+04  0.00000000000E+00 0. -1.
         24    2    1    2    0    0 -0.50307696670E+03 -0.10032705733E+04 -0.31273390612E+03  0.11678530805E+04  0.80249884131E+02 0.  0.
        254    2    1    2    0    0  0.50307696670E+03  0.10032705733E+04 -0.21477608071E+04  0.25839130900E+04  0.89671182379E+03 0.  0.
         23    2    4    4    0    0  0.17857261339E+03  0.38330342065E+03 -0.13824543906E+03  0.45405588448E+03  0.90803382510E+02 0.  0.
         23    2    4    4    0    0  0.32450435331E+03  0.61996715265E+03 -0.20095153680E+04  0.21298572056E+04  0.92072559645E+02 0.  0.
          4    1    3    3  502    0 -0.30594091615E+03 -0.61988631601E+03 -0.15216986298E+03  0.70782381717E+03  0.00000000000E+00 0. -1.
         -3    1    3    3    0  502 -0.19713605054E+03 -0.38338425729E+03 -0.16056404314E+03  0.46002926332E+03  0.00000000000E+00 0.  1.
         11    1    5    5    0    0  0.99092917210E+02  0.20968042988E+03 -0.28092767545E+02  0.23361184153E+03  0.00000000000E+00 0. -1.
        -11    1    5    5    0    0  0.79479696178E+02  0.17362299077E+03 -0.11015267152E+03  0.22044404294E+03  0.00000000000E+00 0.  1.
          2    1    6    6  503    0  0.29189368960E+03  0.49233967625E+03 -0.15728554124E+04  0.16737605656E+04  0.00000000000E+00 0. -1.
         -2    1    6    6    0  503  0.32610663708E+02  0.12762747640E+03 -0.43665995563E+03  0.45609663994E+03  0.00000000000E+00 0.  1.
<mgrwt>
<rscale>  0 0.28322633E+04</rscale>
<asrwt>0</asrwt>
<pdfrwt beam="1">  1        2 0.47786622E+00 0.28322633E+04</pdfrwt>
<pdfrwt beam="2">  1       -1 0.99328573E-01 0.28322633E+04</pdfrwt>
<totfact> 0.14230536E+00</totfact>
</mgrwt>
</event>
<event>
12    6  0.1586493E-007  0.1301550E+04  0.7818608E-02  0.9028337E-01
          2   -1    0    0  501    0  0.00000000000E+00  0.00000000000E+00  0.30332799532E+04  0.30332799532E+04  0.00000000000E+00 0. -1.
         -1   -1    0    0    0  501 -0.00000000000E+00 -0.00000000000E+00 -0.13962058607E+03  0.13962058607E+03  0.00000000000E+00 0.  1.
         24    2    1    2    0    0  0.91538042475E+02 -0.85983378941E+02  0.15223636516E+04  0.15296394354E+04  0.80208229839E+02 0.  0.
        254    2    1    2    0    0 -0.91538042475E+02  0.85983378941E+02  0.13712957156E+04  0.16432611038E+04  0.89670661935E+03 0.  0.
         23    2    4    4    0    0 -0.34028247578E+03 -0.74528266964E+02  0.12684308405E+04  0.13187060096E+04  0.93392273923E+02 0.  0.
         23    2    4    4    0    0  0.24874443331E+03  0.16051164591E+03  0.10286487507E+03  0.32455509420E+03  0.84362581020E+02 0.  0.
          2    1    3    3  502    0  0.46808909173E+02 -0.49645149217E+02  0.39851237237E+03  0.40431154540E+03  0.00000000000E+00 0. -1.
         -1    1    3    3    0  502  0.44729133302E+02 -0.36338229724E+02  0.11238512792E+04  0.11253278900E+04  0.00000000000E+00 0.  1.
         11    1    5    5    0    0 -0.16087651116E+03  0.11711296267E+02  0.59421384005E+03  0.61571786884E+03  0.00000000000E+00 0. -1.
        -11    1    5    5    0    0 -0.17940596462E+03 -0.86239563231E+02  0.67421700044E+03  0.70298814079E+03  0.00000000000E+00 0.  1.
          3    1    6    6  503    0  0.24179714594E+03  0.12887275550E+03  0.10130619277E+03  0.29212495886E+03  0.00000000000E+00 0. -1.
         -3    1    6    6    0  503  0.69472873676E+01  0.31638890405E+02  0.15586823019E+01  0.32430135343E+02  0.00000000000E+00 0.  1.
<mgrwt>
<rscale>  0 0.13015503E+04</rscale>
<asrwt>0</asrwt>
<pdfrwt beam="1">  1        2 0.46665841E+00 0.13015503E+04</pdfrwt>
<pdfrwt beam="2">  1       -1 0.21480092E-01 0.13015503E+04</pdfrwt>
<totfact> 0.33996054E+01</totfact>
</mgrwt>
</event>
<event>
12    6  0.1586493E-007  0.2042043E+04  0.7818608E-02  0.8587213E-01
          2   -1    0    0  501    0  0.00000000000E+00  0.00000000000E+00  0.13169813867E+04  0.13169813867E+04  0.00000000000E+00 0. -1.
         -1   -1    0    0    0  501 -0.00000000000E+00 -0.00000000000E+00 -0.79157141301E+03  0.79157141301E+03  0.00000000000E+00 0.  1.
         24    2    1    2    0    0  0.39748674011E+03 -0.71884721723E+03  0.19890953392E+03  0.84902579369E+03  0.80887362268E+02 0.  0.
        254    2    1    2    0    0 -0.39748674011E+03  0.71884721723E+03  0.32650043973E+03  0.12595270060E+04  0.89725621278E+03 0.  0.
         23    2    4    4    0    0 -0.43654723559E+03  0.27530615098E+03  0.54406112588E+03  0.75543312302E+03  0.91157714917E+02 0.  0.
         23    2    4    4    0    0  0.39060495481E+02  0.44354106625E+03 -0.21756068615E+03  0.50409388296E+03  0.92323295676E+02 0.  0.
          2    1    3    3  502    0  0.24995623679E+03 -0.45018818732E+03  0.16469034849E+03  0.54062041692E+03  0.00000000000E+00 0. -1.
         -1    1    3    3    0  502  0.14753050332E+03 -0.26865902991E+03  0.34219185437E+02  0.30840537676E+03  0.00000000000E+00 0.  1.
         11    1    5    5    0    0 -0.23165624264E+03  0.19726927601E+03  0.29861289684E+03  0.42632082306E+03  0.00000000000E+00 0. -1.
        -11    1    5    5    0    0 -0.20489099295E+03  0.78036874972E+02  0.24544822904E+03  0.32911229996E+03  0.00000000000E+00 0.  1.
          3    1    6    6  503    0  0.51218302209E+02  0.12629971024E+03 -0.50481531525E+02  0.14533862636E+03  0.00000000000E+00 0. -1.
         -3    1    6    6    0  503 -0.12157806728E+02  0.31724135601E+03 -0.16707915463E+03  0.35875525660E+03  0.00000000000E+00 0.  1.
<mgrwt>
<rscale>  0 0.20420429E+04</rscale>
<asrwt>0</asrwt>
<pdfrwt beam="1">  1        2 0.20261252E+00 0.20420429E+04</pdfrwt>
<pdfrwt beam="2">  1       -1 0.12178022E+00 0.20420429E+04</pdfrwt>
<totfact> 0.10182387E+01</totfact>
</mgrwt>
</event>
<event>
12    6  0.1586493E-007  0.1705677E+04  0.7818608E-02  0.8758133E-01
         -1   -1    0    0    0  501 -0.00000000000E+00  0.00000000000E+00  0.33192252231E+03  0.33192252231E+03  0.00000000000E+00 0.  1.
          2   -1    0    0  501    0  0.00000000000E+00 -0.00000000000E+00 -0.21912738575E+04  0.21912738575E+04  0.00000000000E+00 0. -1.
         24    2    1    2    0    0 -0.22453018319E+02 -0.64844380776E+03 -0.67263222576E+03  0.93797377384E+03  0.79857244020E+02 0.  0.
        254    2    1    2    0    0  0.22453018319E+02  0.64844380776E+03 -0.11867191095E+04  0.15852226060E+04  0.82682825057E+03 0.  0.
         23    2    4    4    0    0  0.33037070998E+03  0.14362195534E+03 -0.17627387002E+03  0.41119723730E+03  0.90766836691E+02 0.  0.
         23    2    4    4    0    0 -0.30791769166E+03  0.50482185243E+03 -0.10104452394E+04  0.11740253687E+04  0.87621783390E+02 0.  0.
          2    1    3    3  502    0 -0.30239926653E+01 -0.57181268472E+02 -0.96457204607E+02  0.11217323351E+03  0.00000000000E+00 0. -1.
         -1    1    3    3    0  502 -0.19429025654E+02 -0.59126253929E+03 -0.57617502115E+03  0.82580054033E+03  0.00000000000E+00 0.  1.
         11    1    5    5    0    0  0.56796027822E+02  0.11781076933E+02  0.38128027852E+01  0.58130198823E+02  0.00000000000E+00 0. -1.
        -11    1    5    5    0    0  0.27357468215E+03  0.13184087840E+03 -0.18008667281E+03  0.35306703847E+03  0.00000000000E+00 0.  1.
          1    1    6    6  503    0 -0.11335322244E+03  0.11984954586E+03 -0.24384232467E+03  0.29440099521E+03  0.00000000000E+00 0. -1.
         -1    1    6    6    0  503 -0.19456446921E+03  0.38497230657E+03 -0.76660291476E+03  0.87962437348E+03  0.00000000000E+00 0.  1.
<mgrwt>
<rscale>  0 0.17056766E+04</rscale>
<asrwt>0</asrwt>
<pdfrwt beam="1">  1        2 0.33711907E+00 0.17056766E+04</pdfrwt>
<pdfrwt beam="2">  1       -1 0.51065001E-01 0.17056766E+04</pdfrwt>
<totfact> 0.21820461E+01</totfact>
</mgrwt>
</event>
<event>
12    6  0.1586493E-007  0.1909466E+04  0.7818608E-02  0.8650159E-01
         -1   -1    0    0    0  501 -0.00000000000E+00  0.00000000000E+00  0.52242131878E+03  0.52242131878E+03  0.00000000000E+00 0.  1.
          2   -1    0    0  501    0  0.00000000000E+00 -0.00000000000E+00 -0.17447885405E+04  0.17447885405E+04  0.00000000000E+00 0. -1.
         24    2    1    2    0    0  0.21645390518E+03  0.64309615032E+03 -0.12066923059E+03  0.69415226536E+03  0.82833282311E+02 0.  0.
        254    2    1    2    0    0 -0.21645390518E+03 -0.64309615032E+03 -0.11016979911E+04  0.15730575939E+04  0.89462102506E+03 0.  0.
         23    2    4    4    0    0 -0.11409881914E+03 -0.34264305737E+03  0.49096698692E+02  0.37570388800E+03  0.91214693658E+02 0.  0.
         23    2    4    4    0    0 -0.10235508604E+03 -0.30045309295E+03 -0.11507946898E+04  0.11973537059E+04  0.92622104655E+02 0.  0.
          2    1    3    3  502    0  0.18558281626E+03  0.58998949728E+03 -0.13004627323E+03  0.63201314999E+03  0.00000000000E+00 0. -1.
         -1    1    3    3    0  502  0.30871088924E+02  0.53106653049E+02  0.93770426370E+01  0.62139115363E+02  0.00000000000E+00 0.  1.
         11    1    5    5    0    0 -0.86491693801E+02 -0.15489428161E+03 -0.78376134956E+01  0.17757950264E+03  0.00000000000E+00 0.  1.
        -11    1    5    5    0    0 -0.27607125342E+02 -0.18774877576E+03  0.56934312187E+02  0.19812438536E+03  0.00000000000E+00 0. -1.
          2    1    6    6  503    0 -0.22563337128E+02 -0.76046870380E+02 -0.45659168056E+03  0.46343089392E+03  0.00000000000E+00 0.  1.
         -2    1    6    6    0  503 -0.79791748911E+02 -0.22440622257E+03 -0.69420300921E+03  0.73392281196E+03  0.00000000000E+00 0. -1.
<mgrwt>
<rscale>  0 0.19094656E+04</rscale>
<asrwt>0</asrwt>
<pdfrwt beam="1">  1        2 0.26842901E+00 0.19094656E+04</pdfrwt>
<pdfrwt beam="2">  1       -1 0.80372510E-01 0.19094656E+04</pdfrwt>
<totfact> 0.15244093E+01</totfact>
</mgrwt>
</event>
<event>
12    6  0.1586493E-007  0.1388382E+04  0.7818608E-02  0.8962272E-01
         -1   -1    0    0    0  501 -0.00000000000E+00  0.00000000000E+00  0.26945956208E+03  0.26945956208E+03  0.00000000000E+00 0.  1.
          2   -1    0    0  501    0  0.00000000000E+00 -0.00000000000E+00 -0.17883978692E+04  0.17883978692E+04  0.00000000000E+00 0. -1.
         24    2    1    2    0    0 -0.21939224522E+03 -0.19711895279E+03 -0.42348054970E+02  0.30783746995E+03  0.77341524006E+02 0.  0.
        254    2    1    2    0    0  0.21939224522E+03  0.19711895279E+03 -0.14765902521E+04  0.17500199613E+04  0.89177477733E+03 0.  0.
         23    2    4    4    0    0  0.45955651982E+02  0.38200202292E+03 -0.14206058322E+04  0.14746258235E+04  0.91449009847E+02 0.  0.
         23    2    4    4    0    0  0.17343659324E+03 -0.18488307013E+03 -0.55984419921E+02  0.27539413779E+03  0.91900350166E+02 0.  0.
          2    1    3    3  502    0 -0.14022112900E+03 -0.74513616927E+02 -0.27276891797E+02  0.16111571293E+03  0.00000000000E+00 0. -1.
         -1    1    3    3    0  502 -0.79171116221E+02 -0.12260533586E+03 -0.15071163173E+02  0.14672175703E+03  0.00000000000E+00 0.  1.
         11    1    5    5    0    0  0.27137012183E+01  0.47503935117E+02 -0.31943171072E+03  0.32295604320E+03  0.00000000000E+00 0.  1.
        -11    1    5    5    0    0  0.43241950764E+02  0.33449808781E+03 -0.11011741215E+04  0.11516697803E+04  0.00000000000E+00 0. -1.
          4    1    6    6  503    0  0.16095897465E+03 -0.18171842960E+03 -0.73518465226E+02  0.25364215719E+03  0.00000000000E+00 0. -1.
         -4    1    6    6    0  503  0.12477618587E+02 -0.31646405384E+01  0.17534045305E+02  0.21751980602E+02  0.00000000000E+00 0.  1.
<mgrwt>
<rscale>  0 0.13883817E+04</rscale>
<asrwt>0</asrwt>
<pdfrwt beam="1">  1        2 0.27513814E+00 0.13883817E+04</pdfrwt>
<pdfrwt beam="2">  1       -1 0.41455316E-01 0.13883817E+04</pdfrwt>
<totfact> 0.55434944E+01</totfact>
</mgrwt>
</event>
<event>
12    6  0.1586493E-007  0.1530761E+04  0.7818608E-02  0.8864251E-01
          2   -1    0    0  501    0  0.00000000000E+00  0.00000000000E+00  0.29229891175E+04  0.29229891175E+04  0.00000000000E+00 0. -1.
         -1   -1    0    0    0  501 -0.00000000000E+00 -0.00000000000E+00 -0.20041368651E+03  0.20041368651E+03  0.00000000000E+00 0.  1.
         24    2    1    2    0    0  0.16582717015E+02  0.38030195616E+03  0.25006606843E+03  0.46298290902E+03  0.83159912820E+02 0.  0.
        254    2    1    2    0    0 -0.16582717015E+02 -0.38030195616E+03  0.24725093625E+04  0.26604198950E+04  0.90533248333E+03 0.  0.
         23    2    4    4    0    0 -0.13036164725E+03 -0.63972131535E+03  0.19630046782E+04  0.20707598081E+04  0.91767617330E+02 0.  0.
         23    2    4    4    0    0  0.11377893024E+03  0.25941935919E+03  0.50950468432E+03  0.58966008692E+03  0.88656335736E+02 0.  0.
          4    1    3    3  502    0 -0.24261666519E+02  0.40523946862E+02  0.25752720990E+02  0.53796109245E+02  0.00000000000E+00 0. -1.
         -3    1    3    3    0  502  0.40844383534E+02  0.33977800930E+03  0.22431334744E+03  0.40918679978E+03  0.00000000000E+00 0.  1.
         11    1    5    5    0    0 -0.86458015236E+02 -0.42627794314E+03  0.11654025823E+04  0.12439256618E+04  0.00000000000E+00 0.  1.
        -11    1    5    5    0    0 -0.43903632015E+02 -0.21344337221E+03  0.79760209588E+03  0.82683414625E+03  0.00000000000E+00 0. -1.
          2    1    6    6  503    0  0.10722644042E+03  0.24070904201E+03  0.40423111521E+03  0.48253616128E+03  0.00000000000E+00 0. -1.
         -2    1    6    6    0  503  0.65524898115E+01  0.18710317182E+02  0.10527356911E+03  0.10712392564E+03  0.00000000000E+00 0.  1.
<mgrwt>
<rscale>  0 0.15307606E+04</rscale>
<asrwt>0</asrwt>
<pdfrwt beam="1">  1        2 0.44969060E+00 0.15307606E+04</pdfrwt>
<pdfrwt beam="2">  1       -1 0.30832877E-01 0.15307606E+04</pdfrwt>
<totfact> 0.20880613E+01</totfact>
</mgrwt>
</event>
<event>
12    6  0.1586493E-007  0.2375597E+04  0.7818608E-02  0.8448697E-01
          2   -1    0    0  501    0  0.00000000000E+00  0.00000000000E+00  0.17462224079E+04  0.17462224079E+04  0.00000000000E+00 0. -1.
         -1   -1    0    0    0  501 -0.00000000000E+00 -0.00000000000E+00 -0.80795282917E+03  0.80795282917E+03  0.00000000000E+00 0.  1.
         24    2    1    2    0    0  0.21003992625E+02 -0.18522698424E+03  0.14838277299E+04  0.14976079573E+04  0.79590566236E+02 0.  0.
        254    2    1    2    0    0 -0.21003992625E+02  0.18522698424E+03 -0.54555815122E+03  0.10565672798E+04  0.88540980167E+03 0.  0.
         23    2    4    4    0    0 -0.91034103896E+02 -0.33572287516E+03 -0.30117276676E+03  0.46964531490E+03  0.94152160819E+02 0.  0.
         23    2    4    4    0    0  0.70030111271E+02  0.52094985940E+03 -0.24438538446E+03  0.58692196485E+03  0.91979368330E+02 0.  0.
          4    1    3    3  502    0  0.23593117904E+02 -0.18732466963E+03  0.14816412179E+04  0.14936223973E+04  0.00000000000E+00 0. -1.
         -3    1    3    3    0  502 -0.25891252795E+01  0.20976853968E+01  0.21865120221E+01  0.39855600058E+01  0.00000000000E+00 0.  1.
         11    1    5    5    0    0 -0.48082121451E+02 -0.53325906126E+02 -0.85948139026E+02  0.11199386264E+03  0.00000000000E+00 0. -1.
        -11    1    5    5    0    0 -0.42951982445E+02 -0.28239696904E+03 -0.21522462774E+03  0.35765145226E+03  0.00000000000E+00 0.  1.
          2    1    6    6  503    0  0.49603145200E+02  0.11629519472E+03 -0.36849434932E+02  0.13169254035E+03  0.00000000000E+00 0. -1.
         -2    1    6    6    0  503  0.20426966071E+02  0.40465466468E+03 -0.20753594952E+03  0.45522942451E+03  0.00000000000E+00 0.  1.
<mgrwt>
<rscale>  0 0.23755970E+04</rscale>
<asrwt>0</asrwt>
<pdfrwt beam="1">  1        2 0.26864960E+00 0.23755970E+04</pdfrwt>
<pdfrwt beam="2">  1       -1 0.12430044E+00 0.23755970E+04</pdfrwt>
<totfact> 0.53810145E+00</totfact>
</mgrwt>
</event>
<event>
12    6  0.1586493E-007  0.1762250E+04  0.7818608E-02  0.8726636E-01
         -1   -1    0    0    0  501 -0.00000000000E+00  0.00000000000E+00  0.70099052644E+03  0.70099052644E+03  0.00000000000E+00 0.  1.
          2   -1    0    0  501    0  0.00000000000E+00 -0.00000000000E+00 -0.11075489255E+04  0.11075489255E+04  0.00000000000E+00 0. -1.
         24    2    1    2    0    0  0.85590509699E+02  0.35263077532E+03  0.39978186328E+03  0.54633879524E+03  0.83584340197E+02 0.  0.
        254    2    1    2    0    0 -0.85590509699E+02 -0.35263077532E+03 -0.80634026238E+03  0.12622006567E+04  0.90071731420E+03 0.  0.
         23    2    4    4    0    0 -0.31954628435E+03 -0.15744248032E+03 -0.86234440234E+03  0.93749087954E+03  0.91396490693E+02 0.  0.
         23    2    4    4    0    0  0.23395577466E+03 -0.19518829500E+03  0.56004139968E+02  0.32470977720E+03  0.97294402286E+02 0.  0.
          4    1    3    3  502    0  0.45115560746E+02  0.72761372706E+02  0.12895946579E+03  0.15479074583E+03  0.00000000000E+00 0. -1.
         -3    1    3    3    0  502  0.40474948952E+02  0.27986940262E+03  0.27082239749E+03  0.39154804941E+03  0.00000000000E+00 0.  1.
         11    1    5    5    0    0 -0.11775191180E+03 -0.79389903057E+02 -0.44928590173E+03  0.47119644622E+03  0.00000000000E+00 0.  1.
        -11    1    5    5    0    0 -0.20179437256E+03 -0.78052577262E+02 -0.41305850062E+03  0.46629443332E+03  0.00000000000E+00 0. -1.
          1    1    6    6  503    0  0.69149424174E+01 -0.38671793957E+00 -0.15629685408E+02  0.17095410067E+02  0.00000000000E+00 0. -1.
         -1    1    6    6    0  503  0.22704083224E+03 -0.19480157706E+03  0.71633825377E+02  0.30761436714E+03  0.00000000000E+00 0.  1.
<mgrwt>
<rscale>  0 0.17622500E+04</rscale>
<asrwt>0</asrwt>
<pdfrwt beam="1">  1        2 0.17039214E+00 0.17622500E+04</pdfrwt>
<pdfrwt beam="2">  1       -1 0.10784470E+00 0.17622500E+04</pdfrwt>
<totfact> 0.18617176E+01</totfact>
</mgrwt>
</event>
<event>
12    6  0.1586493E-007  0.2628135E+04  0.7818608E-02  0.8358707E-01
         -1   -1    0    0    0  501 -0.00000000000E+00  0.00000000000E+00  0.10903933791E+04  0.10903933791E+04  0.00000000000E+00 0.  1.
          2   -1    0    0  501    0  0.00000000000E+00 -0.00000000000E+00 -0.15836240404E+04  0.15836240404E+04  0.00000000000E+00 0. -1.
         24    2    1    2    0    0 -0.20034593684E+03 -0.11028717026E+04 -0.52723978694E+03  0.12413201188E+04  0.80183275051E+02 0.  0.
        254    2    1    2    0    0  0.20034593684E+03  0.11028717026E+04  0.34009125640E+02  0.14326973006E+04  0.89162797599E+03 0.  0.
         23    2    4    4    0    0 -0.97590924355E+02  0.11490499708E+03 -0.29685648330E+03  0.34522727254E+03  0.91274044265E+02 0.  0.
         23    2    4    4    0    0  0.29793686119E+03  0.98796670556E+03  0.33086560894E+03  0.10874700280E+04  0.90963872757E+02 0.  0.
          4    1    3    3  502    0 -0.20728076625E+03 -0.10353796409E+04 -0.49686232628E+03  0.11669826426E+04  0.00000000000E+00 0. -1.
         -1    1    3    3    0  502  0.69348294146E+01 -0.67492061766E+02 -0.30377460664E+02  0.74337476261E+02  0.00000000000E+00 0.  1.
         11    1    5    5    0    0 -0.11500823491E+03  0.10704088484E+03 -0.26574967564E+03  0.30871918506E+03  0.00000000000E+00 0.  1.
        -11    1    5    5    0    0  0.17417310553E+02  0.78641122400E+01 -0.31106807660E+02  0.36508087474E+02  0.00000000000E+00 0. -1.
          1    1    6    6  503    0  0.11721608505E+03  0.49984500551E+03  0.19813244802E+03  0.55031000998E+03  0.00000000000E+00 0. -1.
         -1    1    6    6    0  503  0.18072077614E+03  0.48812170005E+03  0.13273316092E+03  0.53716001806E+03  0.00000000000E+00 0.  1.
<mgrwt>
<rscale>  0 0.26281348E+04</rscale>
<asrwt>0</asrwt>
<pdfrwt beam="1">  1        2 0.24363447E+00 0.26281348E+04</pdfrwt>
<pdfrwt beam="2">  1       -1 0.16775283E+00 0.26281348E+04</pdfrwt>
<totfact> 0.29262342E+00</totfact>
</mgrwt>
</event>
<event>
12    6  0.1586493E-007  0.2298517E+04  0.7818608E-02  0.8478506E-01
         -1   -1    0    0    0  501 -0.00000000000E+00  0.00000000000E+00  0.75222383507E+03  0.75222383507E+03  0.00000000000E+00 0.  1.
          2   -1    0    0  501    0  0.00000000000E+00 -0.00000000000E+00 -0.17558535274E+04  0.17558535274E+04  0.00000000000E+00 0. -1.
         24    2    1    2    0    0  0.28761960782E+02 -0.25341605167E+03  0.57974877707E+03  0.63837783759E+03  0.79816498136E+02 0.  0.
        254    2    1    2    0    0 -0.28761960782E+02  0.25341605167E+03 -0.15833784694E+04  0.18696995248E+04  0.96106294818E+03 0.  0.
         23    2    4    4    0    0  0.25722409706E+03  0.95179884610E+01 -0.14269138563E+04  0.14528872838E+04  0.92430936227E+02 0.  0.
         23    2    4    4    0    0 -0.28598605785E+03  0.24389806321E+03 -0.15646461310E+03  0.41681224108E+03  0.89313933039E+02 0.  0.
          2    1    3    3  502    0  0.23966888565E+02 -0.14918054295E+02  0.50541862517E+02  0.57891622521E+02  0.00000000000E+00 0. -1.
         -1    1    3    3    0  502  0.47950722170E+01 -0.23849799738E+03  0.52920691455E+03  0.58048621506E+03  0.00000000000E+00 0.  1.
         11    1    5    5    0    0  0.10574585601E+03  0.49585022035E+02 -0.60293699914E+03  0.61414484074E+03  0.00000000000E+00 0.  1.
        -11    1    5    5    0    0  0.15147824106E+03 -0.40067033574E+02 -0.82397685711E+03  0.83874244304E+03  0.00000000000E+00 0. -1.
          1    1    6    6  503    0 -0.11394645733E+03  0.14782594250E+03 -0.51832445864E+02  0.19370830354E+03  0.00000000000E+00 0. -1.
         -1    1    6    6    0  503 -0.17203960052E+03  0.96072120708E+02 -0.10463216724E+03  0.22310393754E+03  0.00000000000E+00 0.  1.
<mgrwt>
<rscale>  0 0.22985168E+04</rscale>
<asrwt>0</asrwt>
<pdfrwt beam="1">  1        2 0.27013131E+00 0.22985168E+04</pdfrwt>
<pdfrwt beam="2">  1       -1 0.11572674E+00 0.22985168E+04</pdfrwt>
<totfact> 0.63721981E+00</totfact>
</mgrwt>
</event>
<event>
12    6  0.1586493E-007  0.1043456E+04  0.7818608E-02  0.9262126E-01
         -1   -1    0    0    0  501 -0.00000000000E+00  0.00000000000E+00  0.90411510447E+02  0.90411510447E+02  0.00000000000E+00 0.  1.
          2   -1    0    0  501    0  0.00000000000E+00 -0.00000000000E+00 -0.30106812148E+04  0.30106812148E+04  0.00000000000E+00 0. -1.
         24    2    1    2    0    0 -0.96366130676E+02 -0.59318059259E+02 -0.21777883824E+03  0.25817965327E+03  0.80150157083E+02 0.  0.
        254    2    1    2    0    0  0.96366130676E+02  0.59318059259E+02 -0.27024908661E+04  0.28429130720E+04  0.87515300955E+03 0.  0.
         23    2    4    4    0    0 -0.11704608955E+03 -0.28913709530E+03 -0.19903698594E+04  0.20167546000E+04  0.91798106194E+02 0.  0.
         23    2    4    4    0    0  0.21341222022E+03  0.34845515456E+03 -0.71212100667E+03  0.82615847198E+03  0.91955000945E+02 0.  0.
          2    1    3    3  502    0 -0.34126959635E+01 -0.91100205518E+00 -0.88531533421E+02  0.88601968535E+02  0.00000000000E+00 0. -1.
         -1    1    3    3    0  502 -0.92953434713E+02 -0.58407057204E+02 -0.12924730482E+03  0.16957768473E+03  0.00000000000E+00 0.  1.
         11    1    5    5    0    0 -0.52342918787E+02 -0.11169194938E+03 -0.52680972837E+03  0.54105763335E+03  0.00000000000E+00 0. -1.
        -11    1    5    5    0    0 -0.64703170761E+02 -0.17744514592E+03 -0.14635601311E+04  0.14756969667E+04  0.00000000000E+00 0.  1.
          1    1    6    6  503    0  0.11296276491E+03  0.19082938074E+03 -0.47510234505E+03  0.52430780757E+03  0.00000000000E+00 0. -1.
         -1    1    6    6    0  503  0.10044945532E+03  0.15762577382E+03 -0.23701866162E+03  0.30185066441E+03  0.00000000000E+00 0.  1.
<mgrwt>
<rscale>  0 0.10434562E+04</rscale>
<asrwt>0</asrwt>
<pdfrwt beam="1">  1        2 0.46318162E+00 0.10434562E+04</pdfrwt>
<pdfrwt beam="2">  1       -1 0.13909466E-01 0.10434562E+04</pdfrwt>
<totfact> 0.73962740E+01</totfact>
</mgrwt>
</event>
<event>
12    6  0.1586493E-007  0.1601626E+04  0.7818608E-02  0.8819550E-01
          2   -1    0    0  501    0  0.00000000000E+00  0.00000000000E+00  0.30702671747E+04  0.30702671747E+04  0.00000000000E+00 0. -1.
         -1   -1    0    0    0  501 -0.00000000000E+00 -0.00000000000E+00 -0.20887477043E+03  0.20887477043E+03  0.00000000000E+00 0.  1.
         24    2    1    2    0    0 -0.54173657870E+02 -0.31652438637E+03  0.10522845668E+03  0.34722304717E+03  0.79801904842E+02 0.  0.
        254    2    1    2    0    0  0.54173657870E+02  0.31652438637E+03  0.27561639476E+04  0.29319188980E+04  0.94688238226E+03 0.  0.
         23    2    4    4    0    0 -0.20247339901E+03  0.44531989015E+03  0.72955642781E+03  0.88303784880E+03  0.90542692557E+02 0.  0.
         23    2    4    4    0    0  0.25664705688E+03 -0.12879550378E+03  0.20266075198E+04  0.20488810492E+04  0.91211407186E+02 0.  0.
          4    1    3    3  502    0 -0.19126768138E+02 -0.86398420452E+01  0.78890757532E+01  0.22421365842E+02  0.00000000000E+00 0. -1.
         -3    1    3    3    0  502 -0.35046889732E+02 -0.30788454432E+03  0.97339380930E+02  0.32480168133E+03  0.00000000000E+00 0.  1.
         11    1    5    5    0    0 -0.16306212600E+02  0.16060633704E+02  0.75229537657E+02  0.78634088412E+02  0.00000000000E+00 0. -1.
        -11    1    5    5    0    0 -0.18616718641E+03  0.42925925645E+03  0.65432689016E+03  0.80440376038E+03  0.00000000000E+00 0.  1.
          3    1    6    6  503    0  0.80074501976E+02 -0.43257210986E+02  0.38604899192E+03  0.39663199106E+03  0.00000000000E+00 0. -1.
         -3    1    6    6    0  503  0.17657255490E+03 -0.85538292797E+02  0.16405585279E+04  0.16522490581E+04  0.00000000000E+00 0.  1.
<mgrwt>
<rscale>  0 0.16016259E+04</rscale>
<asrwt>0</asrwt>
<pdfrwt beam="1">  1        2 0.47234877E+00 0.16016259E+04</pdfrwt>
<pdfrwt beam="2">  1       -1 0.32134582E-01 0.16016259E+04</pdfrwt>
<totfact> 0.15614420E+01</totfact>
</mgrwt>
</event>
<event>
12    6  0.1586493E-007  0.1301136E+04  0.7818608E-02  0.9028665E-01
          2   -1    0    0  501    0  0.00000000000E+00  0.00000000000E+00  0.96330916936E+03  0.96330916936E+03  0.00000000000E+00 0. -1.
         -1   -1    0    0    0  501 -0.00000000000E+00 -0.00000000000E+00 -0.43935930710E+03  0.43935930710E+03  0.00000000000E+00 0.  1.
         24    2    1    2    0    0  0.12186264140E+03  0.18889315647E+03  0.39841104930E+03  0.46467716904E+03  0.81623399179E+02 0.  0.
        254    2    1    2    0    0 -0.12186264140E+03 -0.18889315647E+03  0.12553881297E+03  0.93799130742E+03  0.90196262190E+03 0.  0.
         23    2    4    4    0    0  0.46738338485E+02 -0.50664969781E+03  0.20920530840E+03  0.55752563588E+03  0.90496326038E+02 0.  0.
         23    2    4    4    0    0 -0.16860097989E+03  0.31775654134E+03 -0.83666495432E+02  0.38046567154E+03  0.91425022703E+02 0.  0.
          2    1    3    3  502    0  0.86677787851E+02  0.14401856775E+03  0.21683220293E+03  0.27435486326E+03  0.00000000000E+00 0. -1.
         -1    1    3    3    0  502  0.35184853550E+02  0.44874588726E+02  0.18157884637E+03  0.19032230579E+03  0.00000000000E+00 0.  1.
         11    1    5    5    0    0 -0.20322442164E+02 -0.38058966671E+02  0.12519142987E+02  0.44924553873E+02  0.00000000000E+00 0. -1.
        -11    1    5    5    0    0  0.67060780649E+02 -0.46859073114E+03  0.19668616541E+03  0.51260108201E+03  0.00000000000E+00 0.  1.
          3    1    6    6  503    0 -0.31124535349E+02  0.71308130259E+02 -0.58112402994E+02  0.97111469578E+02  0.00000000000E+00 0. -1.
         -3    1    6    6    0  503 -0.13747644454E+03  0.24644841108E+03 -0.25554092437E+02  0.28335420196E+03  0.00000000000E+00 0.  1.
<mgrwt>
<rscale>  0 0.13011362E+04</rscale>
<asrwt>0</asrwt>
<pdfrwt beam="1">  1        2 0.14820141E+00 0.13011362E+04</pdfrwt>
<pdfrwt beam="2">  1       -1 0.67593740E-01 0.13011362E+04</pdfrwt>
<totfact> 0.65963184E+01</totfact>
</mgrwt>
</event>
<event>
12    6  0.1586493E-007  0.2612618E+04  0.7818608E-02  0.8363928E-01
          2   -1    0    0  501    0  0.00000000000E+00  0.00000000000E+00  0.15612506563E+04  0.15612506563E+04  0.00000000000E+00 0. -1.
         -1   -1    0    0    0  501 -0.00000000000E+00 -0.00000000000E+00 -0.10929973097E+04  0.10929973097E+04  0.00000000000E+00 0.  1.
         24    2    1    2    0    0  0.87999454891E+02 -0.11308028603E+04  0.29770331490E+02  0.11374058100E+04  0.79666122529E+02 0.  0.
        254    2    1    2    0    0 -0.87999454891E+02  0.11308028603E+04  0.43848301510E+03  0.15168421561E+04  0.90668834726E+03 0.  0.
         23    2    4    4    0    0  0.19509174802E+03  0.10758822960E+04  0.16811892359E+03  0.11100676882E+04  0.91666760199E+02 0.  0.
         23    2    4    4    0    0 -0.28309120291E+03  0.54920564266E+02  0.27036409151E+03  0.40677446787E+03  0.95978269341E+02 0.  0.
          4    1    3    3  502    0  0.40474518315E+02 -0.23935429032E+03 -0.17963872849E+02  0.24341602999E+03  0.00000000000E+00 0. -1.
         -3    1    3    3    0  502  0.47524936575E+02 -0.89144856996E+03  0.47734204339E+02  0.89398978000E+03  0.00000000000E+00 0.  1.
         11    1    5    5    0    0  0.78484202987E+02  0.61768705782E+03  0.63956869427E+02  0.62592935117E+03  0.00000000000E+00 0.  1.
        -11    1    5    5    0    0  0.11660754504E+03  0.45819523819E+03  0.10416205416E+03  0.48413833704E+03  0.00000000000E+00 0. -1.
          4    1    6    6  503    0 -0.28636431953E+03  0.45832988201E+02  0.27122835154E+03  0.39707682504E+03  0.00000000000E+00 0.  1.
         -4    1    6    6    0  503  0.32731166132E+01  0.90875760659E+01 -0.86426002351E+00  0.96976428324E+01  0.00000000000E+00 0. -1.
<mgrwt>
<rscale>  0 0.26126177E+04</rscale>
<asrwt>0</asrwt>
<pdfrwt beam="1">  1        2 0.24019241E+00 0.26126177E+04</pdfrwt>
<pdfrwt beam="2">  1       -1 0.16815343E+00 0.26126177E+04</pdfrwt>
<totfact> 0.29955826E+00</totfact>
</mgrwt>
</event>
<event>
12    6  0.1586493E-007  0.2901252E+04  0.7818608E-02  0.8272505E-01
          2   -1    0    0  501    0  0.00000000000E+00  0.00000000000E+00  0.15262988983E+04  0.15262988983E+04  0.00000000000E+00 0. -1.
         -1   -1    0    0    0  501 -0.00000000000E+00 -0.00000000000E+00 -0.13787050308E+04  0.13787050308E+04  0.00000000000E+00 0.  1.
         24    2    1    2    0    0  0.12903114077E+04 -0.22639221803E+03  0.11814042289E+03  0.13179768655E+04  0.83360020844E+02 0.  0.
        254    2    1    2    0    0 -0.12903114077E+04  0.22639221803E+03  0.29453444625E+02  0.15870270637E+04  0.89533816529E+03 0.  0.
         23    2    4    4    0    0 -0.47803115916E+03  0.25088366532E+03 -0.38659856933E+03  0.67006411714E+03  0.89839104084E+02 0.  0.
         23    2    4    4    0    0 -0.81228024856E+03 -0.24491447283E+02  0.41605201396E+03  0.91696294655E+03  0.85572973781E+02 0.  0.
          2    1    3    3  502    0  0.97004518538E+03 -0.16077340461E+03  0.12357100436E+03  0.99101238258E+03  0.00000000000E+00 0. -1.
         -1    1    3    3    0  502  0.32026622234E+03 -0.65618813422E+02 -0.54305814624E+01  0.32696448288E+03  0.00000000000E+00 0.  1.
         11    1    5    5    0    0 -0.16270716902E+02 -0.44332970317E+01 -0.16960285806E+01  0.16948948758E+02  0.00000000000E+00 0. -1.
        -11    1    5    5    0    0 -0.46176044226E+03  0.25531696235E+03 -0.38490254075E+03  0.65311516839E+03  0.00000000000E+00 0.  1.
          1    1    6    6  503    0 -0.15818538321E+03 -0.38151464948E+01  0.12053396649E+03  0.19891105521E+03  0.00000000000E+00 0. -1.
         -1    1    6    6    0  503 -0.65409486535E+03 -0.20676300788E+02  0.29551804746E+03  0.71805189135E+03  0.00000000000E+00 0.  1.
<mgrwt>
<rscale>  0 0.29012521E+04</rscale>
<asrwt>0</asrwt>
<pdfrwt beam="1">  1        2 0.23481521E+00 0.29012521E+04</pdfrwt>
<pdfrwt beam="2">  1       -1 0.21210847E+00 0.29012521E+04</pdfrwt>
<totfact> 0.14994769E+00</totfact>
</mgrwt>
</event>
<event>
12    6  0.1586493E-007  0.2264041E+04  0.7818608E-02  0.8492236E-01
         -1   -1    0    0    0  501 -0.00000000000E+00  0.00000000000E+00  0.65672523475E+03  0.65672523475E+03  0.00000000000E+00 0.  1.
          2   -1    0    0  501    0  0.00000000000E+00 -0.00000000000E+00 -0.19513034605E+04  0.19513034605E+04  0.00000000000E+00 0. -1.
         24    2    1    2    0    0  0.53218533209E+03  0.12300341246E+03 -0.14402353698E+04  0.15424209709E+04  0.80208876799E+02 0.  0.
        254    2    1    2    0    0 -0.53218533209E+03 -0.12300341246E+03  0.14565714405E+03  0.10656077243E+04  0.90330103031E+03 0.  0.
         23    2    4    4    0    0  0.10974943097E+03  0.14558313651E+03  0.28495384988E+03  0.34996915031E+03  0.89667844693E+02 0.  0.
         23    2    4    4    0    0 -0.64193476306E+03 -0.26858654897E+03 -0.13929670583E+03  0.71563857402E+03  0.92282295435E+02 0.  0.
          4    1    3    3  502    0  0.31752148192E+03  0.33546690414E+02 -0.85502021555E+03  0.91269098873E+03  0.00000000000E+00 0. -1.
         -3    1    3    3    0  502  0.21466385017E+03  0.89456722049E+02 -0.58521515429E+03  0.62972998222E+03  0.00000000000E+00 0.  1.
         11    1    5    5    0    0  0.28006028852E+02 -0.79630592257E+01  0.36955845073E+02  0.47047661465E+02  0.00000000000E+00 0. -1.
        -11    1    5    5    0    0  0.81743402118E+02  0.15354619574E+03  0.24799800481E+03  0.30292148884E+03  0.00000000000E+00 0.  1.
          3    1    6    6  503    0 -0.42572025315E+02 -0.44118602244E+02 -0.20821575293E+02  0.64748485705E+02  0.00000000000E+00 0. -1.
         -3    1    6    6    0  503 -0.59936273775E+03 -0.22446794673E+03 -0.11847513054E+03  0.65089008832E+03  0.00000000000E+00 0.  1.
<mgrwt>
<rscale>  0 0.22640408E+04</rscale>
<asrwt>0</asrwt>
<pdfrwt beam="1">  1        2 0.30020053E+00 0.22640408E+04</pdfrwt>
<pdfrwt beam="2">  1       -1 0.10103465E+00 0.22640408E+04</pdfrwt>
<totfact> 0.68502991E+00</totfact>
</mgrwt>
</event>
<event>
12    6  0.1586493E-007  0.2020748E+04  0.7818608E-02  0.8596981E-01
          2   -1    0    0  501    0  0.00000000000E+00  0.00000000000E+00  0.21440088832E+04  0.21440088832E+04  0.00000000000E+00 0. -1.
         -1   -1    0    0    0  501 -0.00000000000E+00 -0.00000000000E+00 -0.47614348192E+03  0.47614348192E+03  0.00000000000E+00 0.  1.
         24    2    1    2    0    0  0.62651696329E+03  0.45963668166E+03  0.96249244657E+03  0.12395612965E+04  0.79568295331E+02 0.  0.
        254    2    1    2    0    0 -0.62651696329E+03 -0.45963668166E+03  0.70537295469E+03  0.13805910686E+04  0.89704587906E+03 0.  0.
         23    2    4    4    0    0 -0.13314436694E+03 -0.32504076548E+03 -0.13948947620E+03  0.38889176161E+03  0.91654604916E+02 0.  0.
         23    2    4    4    0    0 -0.49337259634E+03 -0.13459591618E+03  0.84486243089E+03  0.99169930701E+03  0.90235297572E+02 0.  0.
          4    1    3    3  502    0  0.34542265732E+02  0.55262251493E+01  0.45408452263E+02  0.57320457284E+02  0.00000000000E+00 0. -1.
         -3    1    3    3    0  502  0.59197469755E+03  0.45411045651E+03  0.91708399430E+03  0.11822408392E+04  0.00000000000E+00 0.  1.
         11    1    5    5    0    0 -0.84934490270E+02 -0.28526968916E+03 -0.95968906842E+02  0.31273422306E+03  0.00000000000E+00 0. -1.
        -11    1    5    5    0    0 -0.48209876673E+02 -0.39771076318E+02 -0.43520569357E+02  0.76157538547E+02  0.00000000000E+00 0.  1.
          2    1    6    6  503    0 -0.10862368665E+03 -0.39679334920E+02  0.12732346852E+03  0.17200238532E+03  0.00000000000E+00 0.  1.
         -2    1    6    6    0  503 -0.38474890969E+03 -0.94916581261E+02  0.71753896237E+03  0.81969692169E+03  0.00000000000E+00 0. -1.
<mgrwt>
<rscale>  0 0.20207482E+04</rscale>
<asrwt>0</asrwt>
<pdfrwt beam="1">  1        2 0.32984752E+00 0.20207482E+04</pdfrwt>
<pdfrwt beam="2">  1       -1 0.73252844E-01 0.20207482E+04</pdfrwt>
<totfact> 0.11009575E+01</totfact>
</mgrwt>
</event>
<event>
12    6  0.1586493E-007  0.2061837E+04  0.7818608E-02  0.8578243E-01
         -1   -1    0    0    0  501 -0.00000000000E+00  0.00000000000E+00  0.58622993776E+03  0.58622993776E+03  0.00000000000E+00 0.  1.
          2   -1    0    0  501    0  0.00000000000E+00 -0.00000000000E+00 -0.18129284434E+04  0.18129284434E+04  0.00000000000E+00 0. -1.
         24    2    1    2    0    0 -0.19978175722E+03 -0.79500253691E+03 -0.66856181620E+03  0.10609563893E+04  0.81925415415E+02 0.  0.
        254    2    1    2    0    0  0.19978175722E+03  0.79500253691E+03 -0.55813668947E+03  0.13382019919E+04  0.89851334032E+03 0.  0.
         23    2    4    4    0    0 -0.17146105554E+03  0.48427002359E+03  0.85070888683E+02  0.52820578144E+03  0.88588611743E+02 0.  0.
         23    2    4    4    0    0  0.37124281276E+03  0.31073251332E+03 -0.64320757815E+03  0.80999621045E+03  0.89453627552E+02 0.  0.
          4    1    3    3  502    0 -0.18088373897E+03 -0.72876535623E+03 -0.63911545879E+03  0.98604586157E+03  0.00000000000E+00 0. -1.
         -3    1    3    3    0  502 -0.18898018255E+02 -0.66237180686E+02 -0.29446357411E+02  0.74910527724E+02  0.00000000000E+00 0.  1.
         11    1    5    5    0    0 -0.12484405713E+03  0.30010382179E+03  0.13886076095E+02  0.32533239243E+03  0.00000000000E+00 0. -1.
        -11    1    5    5    0    0 -0.46616998413E+02  0.18416620180E+03  0.71184812587E+02  0.20287338901E+03  0.00000000000E+00 0.  1.
          1    1    6    6  503    0  0.29577949016E+03  0.20361333991E+03 -0.43602130727E+03  0.56485261739E+03  0.00000000000E+00 0. -1.
         -1    1    6    6    0  503  0.75463322606E+02  0.10711917341E+03 -0.20718627088E+03  0.24514359305E+03  0.00000000000E+00 0.  1.
<mgrwt>
<rscale>  0 0.20618370E+04</rscale>
<asrwt>0</asrwt>
<pdfrwt beam="1">  1        2 0.27891207E+00 0.20618370E+04</pdfrwt>
<pdfrwt beam="2">  1       -1 0.90189220E-01 0.20618370E+04</pdfrwt>
<totfact> 0.10741311E+01</totfact>
</mgrwt>
</event>
<event>
12    6  0.1586493E-007  0.1588953E+04  0.7818608E-02  0.8827363E-01
         -1   -1    0    0    0  501 -0.00000000000E+00  0.00000000000E+00  0.27481638623E+03  0.27481638623E+03  0.00000000000E+00 0.  1.
          2   -1    0    0  501    0  0.00000000000E+00 -0.00000000000E+00 -0.22967811354E+04  0.22967811354E+04  0.00000000000E+00 0. -1.
         24    2    1    2    0    0  0.29455943615E+03  0.16799291335E+03 -0.13647267954E+04  0.14084691561E+04  0.79493756074E+02 0.  0.
        254    2    1    2    0    0 -0.29455943615E+03 -0.16799291335E+03 -0.65723795381E+03  0.11631283656E+04  0.89772990732E+03 0.  0.
         23    2    4    4    0    0 -0.29250079356E+03  0.32266428649E+03 -0.41582048236E+03  0.60895281177E+03  0.90817935461E+02 0.  0.
         23    2    4    4    0    0 -0.20586425890E+01 -0.49065719984E+03 -0.24141747145E+03  0.55417555380E+03  0.89885611434E+02 0.  0.
          2    1    3    3  502    0  0.26052529424E+03  0.15374374640E+03 -0.12917110738E+04  0.13266604941E+04  0.00000000000E+00 0. -1.
         -1    1    3    3    0  502  0.34034141909E+02  0.14249166951E+02 -0.73015721618E+02  0.81808661997E+02  0.00000000000E+00 0.  1.
         11    1    5    5    0    0 -0.24511672654E+03  0.31109477950E+03 -0.37287376032E+03  0.54396416481E+03  0.00000000000E+00 0. -1.
        -11    1    5    5    0    0 -0.47384067025E+02  0.11569506989E+02 -0.42946722035E+02  0.64988646957E+02  0.00000000000E+00 0.  1.
          4    1    6    6  503    0 -0.33782232715E+02 -0.36753988015E+03 -0.20365457559E+03  0.42154713723E+03  0.00000000000E+00 0. -1.
         -4    1    6    6    0  503  0.31723590126E+02 -0.12311731968E+03 -0.37762895863E+02  0.13262841657E+03  0.00000000000E+00 0.  1.
<mgrwt>
<rscale>  0 0.15889532E+04</rscale>
<asrwt>0</asrwt>
<pdfrwt beam="1">  1        2 0.35335093E+00 0.15889532E+04</pdfrwt>
<pdfrwt beam="2">  1       -1 0.42279446E-01 0.15889532E+04</pdfrwt>
<totfact> 0.27400883E+01</totfact>
</mgrwt>
</event>
<event>
12    6  0.1586493E-007  0.2158780E+04  0.7818608E-02  0.8535783E-01
         -1   -1    0    0    0  501 -0.00000000000E+00  0.00000000000E+00  0.87093225002E+03  0.87093225002E+03  0.00000000000E+00 0.  1.
          2   -1    0    0  501    0  0.00000000000E+00 -0.00000000000E+00 -0.13377418474E+04  0.13377418474E+04  0.00000000000E+00 0. -1.
         24    2    1    2    0    0  0.62557854349E+03 -0.61153023014E+03 -0.33127106178E+02  0.87911367429E+03  0.80160530862E+02 0.  0.
        254    2    1    2    0    0 -0.62557854349E+03  0.61153023014E+03 -0.43368249123E+03  0.13295604232E+04  0.90240383375E+03 0.  0.
         23    2    4    4    0    0 -0.52763283960E+02  0.66606010430E+03 -0.25361788869E+03  0.72078130072E+03  0.93720986603E+02 0.  0.
         23    2    4    4    0    0 -0.57281525953E+03 -0.54529874151E+02 -0.18006460254E+03  0.60877912244E+03  0.84249214281E+02 0.  0.
          4    1    3    3  502    0  0.53601280544E+03 -0.48243245446E+03 -0.19673562584E+02  0.72141378541E+03  0.00000000000E+00 0. -1.
         -3    1    3    3    0  502  0.89565738052E+02 -0.12909777568E+03 -0.13453543594E+02  0.15769988888E+03  0.00000000000E+00 0.  1.
         11    1    5    5    0    0 -0.95429957664E+01  0.40654831587E+03 -0.19613636570E+03  0.45148873281E+03  0.00000000000E+00 0. -1.
        -11    1    5    5    0    0 -0.43220288194E+02  0.25951178843E+03 -0.57481522987E+02  0.26929256791E+03  0.00000000000E+00 0.  1.
          2    1    6    6  503    0 -0.55345727689E+03 -0.60926939812E+02 -0.15810125144E+03  0.57881176132E+03  0.00000000000E+00 0. -1.
         -2    1    6    6    0  503 -0.19357982641E+02  0.63970656604E+01 -0.21963351100E+02  0.29967361120E+02  0.00000000000E+00 0.  1.
<mgrwt>
<rscale>  0 0.21587798E+04</rscale>
<asrwt>0</asrwt>
<pdfrwt beam="1">  1        2 0.20580644E+00 0.21587798E+04</pdfrwt>
<pdfrwt beam="2">  1       -1 0.13398958E+00 0.21587798E+04</pdfrwt>
<totfact> 0.77148007E+00</totfact>
</mgrwt>
</event>
<event>
12    6  0.1586493E-007  0.2913877E+04  0.7818608E-02  0.8268761E-01
          2   -1    0    0  501    0  0.00000000000E+00  0.00000000000E+00  0.30793251977E+04  0.30793251977E+04  0.00000000000E+00 0. -1.
         -1   -1    0    0    0  501 -0.00000000000E+00 -0.00000000000E+00 -0.68932958377E+03  0.68932958377E+03  0.00000000000E+00 0.  1.
         24    2    1    2    0    0 -0.71227274556E+03  0.11917419336E+03  0.25046258642E+04  0.26080264949E+04  0.84359503550E+02 0.  0.
        254    2    1    2    0    0  0.71227274556E+03 -0.11917419336E+03 -0.11463025024E+03  0.11606282866E+04  0.90132290164E+03 0.  0.
         23    2    4    4    0    0  0.43769560801E+03  0.28219242548E+03  0.21024711718E+03  0.56884575183E+03  0.90397062001E+02 0.  0.
         23    2    4    4    0    0  0.27457713755E+03 -0.40136661884E+03 -0.32487736743E+03  0.59178253481E+03  0.90407397119E+02 0.  0.
          4    1    3    3  502    0 -0.70877352099E+03  0.12176212254E+03  0.25010592763E+04  0.26023995508E+04  0.00000000000E+00 0. -1.
         -3    1    3    3    0  502 -0.34992245710E+01 -0.25879291806E+01  0.35665879175E+01  0.56269440566E+01  0.00000000000E+00 0.  1.
         11    1    5    5    0    0  0.42670208691E+03  0.26277763784E+03  0.21616949466E+03  0.54576186047E+03  0.00000000000E+00 0.  1.
        -11    1    5    5    0    0  0.10993521100E+02  0.19414787639E+02 -0.59223774749E+01  0.23083891357E+02  0.00000000000E+00 0. -1.
          4    1    6    6  503    0  0.55835465424E+02 -0.10430548723E+03 -0.37370548137E+02  0.12407172012E+03  0.00000000000E+00 0. -1.
         -4    1    6    6    0  503  0.21874167213E+03 -0.29706113160E+03 -0.28750681929E+03  0.46771081468E+03  0.00000000000E+00 0.  1.
<mgrwt>
<rscale>  0 0.29138771E+04</rscale>
<asrwt>0</asrwt>
<pdfrwt beam="1">  1        2 0.47374233E+00 0.29138771E+04</pdfrwt>
<pdfrwt beam="2">  1       -1 0.10605071E+00 0.29138771E+04</pdfrwt>
<totfact> 0.12632791E+00</totfact>
</mgrwt>
</event>
<event>
12    6  0.1586493E-007  0.1634853E+04  0.7818608E-02  0.8799418E-01
          2   -1    0    0  501    0  0.00000000000E+00  0.00000000000E+00  0.81581493151E+03  0.81581493151E+03  0.00000000000E+00 0. -1.
         -1   -1    0    0    0  501 -0.00000000000E+00 -0.00000000000E+00 -0.81904167575E+03  0.81904167575E+03  0.00000000000E+00 0.  1.
         24    2    1    2    0    0 -0.26419964904E+02  0.53738564952E+03  0.17848113010E+03  0.57242417457E+03  0.79577452660E+02 0.  0.
        254    2    1    2    0    0  0.26419964904E+02 -0.53738564952E+03 -0.18170787434E+03  0.10624324327E+04  0.89792180705E+03 0.  0.
         23    2    4    4    0    0 -0.28568728569E+03 -0.86386724838E+02  0.21575615912E+03  0.37911024451E+03  0.89966470770E+02 0.  0.
         23    2    4    4    0    0  0.31210725059E+03 -0.45099892468E+03 -0.39746403345E+03  0.68332218818E+03  0.90225212818E+02 0.  0.
          4    1    3    3  502    0  0.23247613200E+01  0.47639471791E+03  0.15919117849E+03  0.50229390109E+03  0.00000000000E+00 0. -1.
         -3    1    3    3    0  502 -0.28744726224E+02  0.60990931615E+02  0.19289951615E+02  0.70130273479E+02  0.00000000000E+00 0.  1.
         11    1    5    5    0    0 -0.57522931867E+02 -0.28937825840E+02  0.73722797751E+01  0.64812313367E+02  0.00000000000E+00 0. -1.
        -11    1    5    5    0    0 -0.22816435382E+03 -0.57448898998E+02  0.20838387934E+03  0.31429793114E+03  0.00000000000E+00 0.  1.
          3    1    6    6  503    0  0.26331365182E+03 -0.37697914778E+03 -0.28848224555E+03  0.54283456328E+03  0.00000000000E+00 0. -1.
         -3    1    6    6    0  503  0.48793598776E+02 -0.74019776901E+02 -0.10898178790E+03  0.14048762490E+03  0.00000000000E+00 0.  1.
<mgrwt>
<rscale>  0 0.16348534E+04</rscale>
<asrwt>0</asrwt>
<pdfrwt beam="1">  1        2 0.12550999E+00 0.16348534E+04</pdfrwt>
<pdfrwt beam="2">  1       -1 0.12600641E+00 0.16348534E+04</pdfrwt>
<totfact> 0.20099864E+01</totfact>
</mgrwt>
</event>
<event>
12    6  0.1586493E-007  0.1643199E+04  0.7818608E-02  0.8794440E-01
          2   -1    0    0  501    0  0.00000000000E+00  0.00000000000E+00  0.69891472501E+03  0.69891472501E+03  0.00000000000E+00 0. -1.
         -1   -1    0    0    0  501 -0.00000000000E+00 -0.00000000000E+00 -0.96582041385E+03  0.96582041385E+03  0.00000000000E+00 0.  1.
         24    2    1    2    0    0  0.96082058598E+02  0.18832013834E+03  0.45324798391E+03  0.50665412926E+03  0.81045883860E+02 0.  0.
        254    2    1    2    0    0 -0.96082058598E+02 -0.18832013834E+03 -0.72015367275E+03  0.11580810096E+04  0.88194902117E+03 0.  0.
         23    2    4    4    0    0 -0.30317867103E+03 -0.44767721119E+03 -0.34001234085E+03  0.64507911627E+03  0.90479181750E+02 0.  0.
         23    2    4    4    0    0  0.20709661243E+03  0.25935707285E+03 -0.38014133190E+03  0.51300189333E+03  0.92241054995E+02 0.  0.
          4    1    3    3  502    0  0.10902070913E+03  0.14884009421E+03  0.38076363178E+03  0.42310735275E+03  0.00000000000E+00 0. -1.
         -3    1    3    3    0  502 -0.12938650531E+02  0.39480044129E+02  0.72484352125E+02  0.83546776508E+02  0.00000000000E+00 0.  1.
         11    1    5    5    0    0 -0.17750541527E+03 -0.18969321751E+03 -0.18492028251E+03  0.31888430520E+03  0.00000000000E+00 0. -1.
        -11    1    5    5    0    0 -0.12567325576E+03 -0.25798399368E+03 -0.15509205834E+03  0.32619481107E+03  0.00000000000E+00 0.  1.
          3    1    6    6  503    0  0.39886716609E+02  0.15246591393E+02 -0.84777232436E+02  0.94924116274E+02  0.00000000000E+00 0. -1.
         -3    1    6    6    0  503  0.16720989582E+03  0.24411048146E+03 -0.29536409946E+03  0.41807777706E+03  0.00000000000E+00 0.  1.
<mgrwt>
<rscale>  0 0.16431995E+04</rscale>
<asrwt>0</asrwt>
<pdfrwt beam="1">  1        2 0.10752534E+00 0.16431995E+04</pdfrwt>
<pdfrwt beam="2">  1       -1 0.14858776E+00 0.16431995E+04</pdfrwt>
<totfact> 0.16039398E+01</totfact>
</mgrwt>
</event>
<event>
12    6  0.1586493E-007  0.1694061E+04  0.7818608E-02  0.8764759E-01
          2   -1    0    0  501    0  0.00000000000E+00  0.00000000000E+00  0.56482102932E+03  0.56482102932E+03  0.00000000000E+00 0. -1.
         -1   -1    0    0    0  501 -0.00000000000E+00 -0.00000000000E+00 -0.12702438183E+04  0.12702438183E+04  0.00000000000E+00 0.  1.
         24    2    1    2    0    0  0.43723336407E+03  0.32174807063E+03 -0.54034060511E+03  0.76939298421E+03  0.72820045325E+02 0.  0.
        254    2    1    2    0    0 -0.43723336407E+03 -0.32174807063E+03 -0.16508218386E+03  0.10656718634E+04  0.90205851107E+03 0.  0.
         23    2    4    4    0    0  0.26167655379E+03 -0.15068384270E+03  0.26390720543E+02  0.31549162363E+03  0.87511457522E+02 0.  0.
         23    2    4    4    0    0 -0.69890991786E+03 -0.17106422793E+03 -0.19147290441E+03  0.75018023977E+03  0.91490303627E+02 0.  0.
          4    1    3    3  502    0  0.19300231547E+03  0.11397063755E+03 -0.26188894078E+03  0.34471004816E+03  0.00000000000E+00 0. -1.
         -3    1    3    3    0  502  0.24423104860E+03  0.20777743308E+03 -0.27845166433E+03  0.42468293604E+03  0.00000000000E+00 0.  1.
         11    1    5    5    0    0  0.37584258795E+02  0.33201934453E+01  0.21733735970E+02  0.43542570812E+02  0.00000000000E+00 0.  1.
        -11    1    5    5    0    0  0.22409229499E+03 -0.15400403615E+03  0.46569845736E+01  0.27194905282E+03  0.00000000000E+00 0. -1.
          2    1    6    6  503    0 -0.57332456001E+03 -0.15428496206E+03 -0.19030053246E+03  0.62347349044E+03  0.00000000000E+00 0. -1.
         -2    1    6    6    0  503 -0.12558535784E+03 -0.16779265874E+02 -0.11723719466E+01  0.12670674932E+03  0.00000000000E+00 0.  1.
<mgrwt>
<rscale>  0 0.16940607E+04</rscale>
<asrwt>0</asrwt>
<pdfrwt beam="1">  1        2 0.86895544E-01 0.16940607E+04</pdfrwt>
<pdfrwt beam="2">  1       -1 0.19542212E+00 0.16940607E+04</pdfrwt>
<totfact> 0.93921541E+00</totfact>
</mgrwt>
</event>
<event>
12    6  0.1586493E-007  0.2059959E+04  0.7818608E-02  0.8579090E-01
         -1   -1    0    0    0  501 -0.00000000000E+00  0.00000000000E+00  0.59563603266E+03  0.59563603266E+03  0.00000000000E+00 0.  1.
          2   -1    0    0  501    0  0.00000000000E+00 -0.00000000000E+00 -0.17810503046E+04  0.17810503046E+04  0.00000000000E+00 0. -1.
         24    2    1    2    0    0  0.52059043554E+03  0.53171103288E+03 -0.53178581641E+02  0.75029492480E+03  0.79896736939E+02 0.  0.
        254    2    1    2    0    0 -0.52059043554E+03 -0.53171103288E+03 -0.11322356903E+04  0.16263914125E+04  0.89970014123E+03 0.  0.
         23    2    4    4    0    0 -0.49343203407E+03 -0.29940981835E+03 -0.12261576798E+04  0.13581322656E+04  0.89102095557E+02 0.  0.
         23    2    4    4    0    0 -0.27158401471E+02 -0.23230121452E+03  0.93921989473E+02  0.26825914694E+03  0.91870543541E+02 0.  0.
          4    1    3    3  502    0  0.41491411023E+03  0.45412841711E+03 -0.65555618514E+02  0.61861448190E+03  0.00000000000E+00 0. -1.
         -3    1    3    3    0  502  0.10567632532E+03  0.77582615764E+02  0.12377036874E+02  0.13168044290E+03  0.00000000000E+00 0.  1.
         11    1    5    5    0    0 -0.30769999420E+03 -0.15594172168E+03 -0.80925388248E+03  0.87970958464E+03  0.00000000000E+00 0. -1.
        -11    1    5    5    0    0 -0.18573203987E+03 -0.14346809667E+03 -0.41690379732E+03  0.47842268092E+03  0.00000000000E+00 0.  1.
          1    1    6    6  503    0 -0.50137294517E+02 -0.96824686514E+02  0.67772126822E+02  0.12838157732E+03  0.00000000000E+00 0. -1.
         -1    1    6    6    0  503  0.22978893047E+02 -0.13547652801E+03  0.26149862650E+02  0.13987756962E+03  0.00000000000E+00 0.  1.
<mgrwt>
<rscale>  0 0.20599590E+04</rscale>
<asrwt>0</asrwt>
<pdfrwt beam="1">  1        2 0.27400774E+00 0.20599590E+04</pdfrwt>
<pdfrwt beam="2">  1       -1 0.91636313E-01 0.20599590E+04</pdfrwt>
<totfact> 0.10802322E+01</totfact>
</mgrwt>
</event>
<event>
12    6  0.1586493E-007  0.2336050E+04  0.7818608E-02  0.8463841E-01
         -1   -1    0    0    0  501 -0.00000000000E+00  0.00000000000E+00  0.21119211861E+04  0.21119211861E+04  0.00000000000E+00 0.  1.
          2   -1    0    0  501    0  0.00000000000E+00 -0.00000000000E+00 -0.64599090037E+03  0.64599090037E+03  0.00000000000E+00 0. -1.
         24    2    1    2    0    0  0.85408295792E+03 -0.18690290806E+03  0.11412542822E+04  0.14399384385E+04  0.81061543474E+02 0.  0.
        254    2    1    2    0    0 -0.85408295792E+03  0.18690290806E+03  0.32467600349E+03  0.13179736480E+04  0.93126238704E+03 0.  0.
         23    2    4    4    0    0  0.18248704717E+03  0.94683322545E+02  0.11489531123E+03  0.25236360786E+03  0.90664238139E+02 0.  0.
         23    2    4    4    0    0 -0.10365700051E+04  0.92219585516E+02  0.20978069226E+03  0.10656100401E+04  0.92385017142E+02 0.  0.
          4    1    3    3  502    0  0.33575437332E+03 -0.58662470625E+02  0.38524756505E+03  0.51438115347E+03  0.00000000000E+00 0. -1.
         -3    1    3    3    0  502  0.51832858460E+03 -0.12824043744E+03  0.75600671718E+03  0.92555728501E+03  0.00000000000E+00 0.  1.
         11    1    5    5    0    0  0.47425920688E+02 -0.16001889421E+02  0.24290518496E+02  0.55635489635E+02  0.00000000000E+00 0.  1.
        -11    1    5    5    0    0  0.13506112648E+03  0.11068521197E+03  0.90604792732E+02  0.19672811822E+03  0.00000000000E+00 0. -1.
          4    1    6    6  503    0 -0.73007757863E+03  0.27364714414E+02  0.12662200940E+03  0.74148178108E+03  0.00000000000E+00 0. -1.
         -4    1    6    6    0  503 -0.30649242646E+03  0.64854871101E+02  0.83158682864E+02  0.32412825906E+03  0.00000000000E+00 0.  1.
<mgrwt>
<rscale>  0 0.23360495E+04</rscale>
<asrwt>0</asrwt>
<pdfrwt beam="1">  1        2 0.99383216E-01 0.23360495E+04</pdfrwt>
<pdfrwt beam="2">  1       -1 0.32491095E+00 0.23360495E+04</pdfrwt>
<totfact> 0.10628899E+00</totfact>
</mgrwt>
</event>
<event>
12    6  0.1586493E-007  0.1341629E+04  0.7818608E-02  0.8997189E-01
         -1   -1    0    0    0  501 -0.00000000000E+00  0.00000000000E+00  0.59106975390E+03  0.59106975390E+03  0.00000000000E+00 0.  1.
          2   -1    0    0  501    0  0.00000000000E+00 -0.00000000000E+00 -0.76131776550E+03  0.76131776550E+03  0.00000000000E+00 0. -1.
         24    2    1    2    0    0  0.12638387426E+03 -0.28916849026E+03 -0.24045185535E+03  0.40586404889E+03  0.85540820674E+02 0.  0.
        254    2    1    2    0    0 -0.12638387426E+03  0.28916849026E+03  0.70203843748E+02  0.94652347052E+03  0.88959923625E+03 0.  0.
         23    2    4    4    0    0 -0.71627123097E+02  0.57239532794E+03  0.19881283942E+03  0.61715837311E+03  0.92687950501E+02 0.  0.
         23    2    4    4    0    0 -0.54756751167E+02 -0.28322683768E+03 -0.12860899567E+03  0.32936509741E+03  0.93409583252E+02 0.  0.
          2    1    3    3  502    0  0.46088912222E+02 -0.20305039641E+03 -0.16870145619E+03  0.26798103036E+03  0.00000000000E+00 0. -1.
         -1    1    3    3    0  502  0.80294962043E+02 -0.86118093855E+02 -0.71750399160E+02  0.13788301853E+03  0.00000000000E+00 0.  1.
         11    1    5    5    0    0 -0.92376372742E+02  0.50851780360E+03  0.18170476681E+03  0.54785068505E+03  0.00000000000E+00 0. -1.
        -11    1    5    5    0    0  0.20749249644E+02  0.63877524341E+02  0.17108072606E+02  0.69307688066E+02  0.00000000000E+00 0.  1.
          1    1    6    6  503    0 -0.23781809796E+02 -0.19169620137E+03 -0.37937103173E+02  0.19685586579E+03  0.00000000000E+00 0.  1.
         -1    1    6    6    0  503 -0.30974941372E+02 -0.91530636307E+02 -0.90671892497E+02  0.13250923162E+03  0.00000000000E+00 0. -1.
<mgrwt>
<rscale>  0 0.13416287E+04</rscale>
<asrwt>0</asrwt>
<pdfrwt beam="1">  1        2 0.11712581E+00 0.13416287E+04</pdfrwt>
<pdfrwt beam="2">  1       -1 0.90933808E-01 0.13416287E+04</pdfrwt>
<totfact> 0.48478838E+01</totfact>
</mgrwt>
</event>
<event>
12    6  0.1586493E-007  0.1766128E+04  0.7818608E-02  0.8724522E-01
         -1   -1    0    0    0  501 -0.00000000000E+00  0.00000000000E+00  0.11901961411E+04  0.11901961411E+04  0.00000000000E+00 0.  1.
          2   -1    0    0  501    0  0.00000000000E+00 -0.00000000000E+00 -0.65518786546E+03  0.65518786546E+03  0.00000000000E+00 0. -1.
         24    2    1    2    0    0  0.62518935722E+03 -0.18036175017E+03  0.16893522810E+03  0.67903454648E+03  0.95690703397E+02 0.  0.
        254    2    1    2    0    0 -0.62518935722E+03  0.18036175017E+03  0.36607304751E+03  0.11663494600E+04  0.89608565077E+03 0.  0.
         23    2    4    4    0    0 -0.76645092195E+02 -0.25022126423E+03 -0.12906359504E+03  0.30648685686E+03  0.93763695705E+02 0.  0.
         23    2    4    4    0    0 -0.54854426503E+03  0.43058301440E+03  0.49513664255E+03  0.85986260318E+03  0.88886773900E+02 0.  0.
          4    1    3    3  502    0  0.31923599422E+02 -0.33575951785E+02  0.16232974051E+02  0.49091447166E+02  0.00000000000E+00 0. -1.
         -3    1    3    3    0  502  0.59326575780E+03 -0.14678579839E+03  0.15270225405E+03  0.62994309932E+03  0.00000000000E+00 0.  1.
         11    1    5    5    0    0 -0.42190508450E+02 -0.70121922125E+02 -0.84813347272E+02  0.11785765500E+03  0.00000000000E+00 0. -1.
        -11    1    5    5    0    0 -0.34454583745E+02 -0.18009934211E+03 -0.44250247767E+02  0.18862920186E+03  0.00000000000E+00 0.  1.
          4    1    6    6  503    0 -0.74548288763E+01  0.47683513806E+01  0.23940014821E+02  0.25523243487E+02  0.00000000000E+00 0. -1.
         -4    1    6    6    0  503 -0.54108943615E+03  0.42581466302E+03  0.47119662773E+03  0.83433935970E+03  0.00000000000E+00 0.  1.
<mgrwt>
<rscale>  0 0.17661280E+04</rscale>
<asrwt>0</asrwt>
<pdfrwt beam="1">  1        2 0.10079813E+00 0.17661280E+04</pdfrwt>
<pdfrwt beam="2">  1       -1 0.18310710E+00 0.17661280E+04</pdfrwt>
<totfact> 0.95151805E+00</totfact>
</mgrwt>
</event>
<event>
12    6  0.1586493E-007  0.1718451E+04  0.7818608E-02  0.8750910E-01
         -1   -1    0    0    0  501 -0.00000000000E+00  0.00000000000E+00  0.29163244419E+03  0.29163244419E+03  0.00000000000E+00 0.  1.
          2   -1    0    0  501    0  0.00000000000E+00 -0.00000000000E+00 -0.25315032922E+04  0.25315032922E+04  0.00000000000E+00 0. -1.
         24    2    1    2    0    0 -0.11880251535E+03 -0.41204561631E+03 -0.15378160947E+04  0.15986832019E+04  0.83749694483E+02 0.  0.
        254    2    1    2    0    0  0.11880251535E+03  0.41204561631E+03 -0.70205475335E+03  0.12244525345E+04  0.90692199501E+03 0.  0.
         23    2    4    4    0    0 -0.16768448661E+03  0.59811195270E+03 -0.56798162992E+03  0.84609815571E+03  0.86156614147E+02 0.  0.
         23    2    4    4    0    0  0.28648700197E+03 -0.18606633638E+03 -0.13407312344E+03  0.37835437882E+03  0.92092071933E+02 0.  0.
          2    1    3    3  502    0 -0.71293381788E+02 -0.23354926349E+03 -0.10228020419E+04  0.10515474415E+04  0.00000000000E+00 0. -1.
         -1    1    3    3    0  502 -0.47509133566E+02 -0.17849635283E+03 -0.51501405272E+03  0.54713576034E+03  0.00000000000E+00 0.  1.
         11    1    5    5    0    0 -0.78698722777E+02  0.26636644612E+03 -0.19694399645E+03  0.34048716616E+03  0.00000000000E+00 0. -1.
        -11    1    5    5    0    0 -0.88985763835E+02  0.33174550658E+03 -0.37103763347E+03  0.50561098955E+03  0.00000000000E+00 0.  1.
          2    1    6    6  503    0  0.15209601768E+03 -0.11099765951E+03 -0.12110078654E+03  0.22387290929E+03  0.00000000000E+00 0. -1.
         -2    1    6    6    0  503  0.13439098428E+03 -0.75068676878E+02 -0.12972336894E+02  0.15448146953E+03  0.00000000000E+00 0.  1.
<mgrwt>
<rscale>  0 0.17184510E+04</rscale>
<asrwt>0</asrwt>
<pdfrwt beam="1">  1        2 0.38946206E+00 0.17184510E+04</pdfrwt>
<pdfrwt beam="2">  1       -1 0.44866528E-01 0.17184510E+04</pdfrwt>
<totfact> 0.17812643E+01</totfact>
</mgrwt>
</event>
<event>
12    6  0.1586493E-007  0.2361595E+04  0.7818608E-02  0.8454023E-01
         -1   -1    0    0    0  501 -0.00000000000E+00  0.00000000000E+00  0.87026007081E+03  0.87026007081E+03  0.00000000000E+00 0.  1.
          2   -1    0    0  501    0  0.00000000000E+00 -0.00000000000E+00 -0.16021444125E+04  0.16021444125E+04  0.00000000000E+00 0. -1.
         24    2    1    2    0    0 -0.46055217917E+03 -0.86555676587E+03 -0.55929443675E+03  0.11317320421E+04  0.81916563731E+02 0.  0.
        254    2    1    2    0    0  0.46055217917E+03  0.86555676587E+03 -0.17258990497E+03  0.13406724413E+04  0.89795239002E+03 0.  0.
         23    2    4    4    0    0 -0.19084340584E+03 -0.26682105244E+02  0.24261812861E+02  0.21494933438E+03  0.92094736512E+02 0.  0.
         23    2    4    4    0    0  0.65139558501E+03  0.89223887112E+03 -0.19685171783E+03  0.11257231069E+04  0.89975014478E+02 0.  0.
          4    1    3    3  502    0 -0.33469398718E+03 -0.67676173356E+03 -0.39923511759E+03  0.85405807073E+03  0.00000000000E+00 0. -1.
         -3    1    3    3    0  502 -0.12585819199E+03 -0.18879503232E+03 -0.16005931915E+03  0.27767397135E+03  0.00000000000E+00 0.  1.
         11    1    5    5    0    0 -0.78156234679E+02 -0.11899072146E+01  0.54782684329E+02  0.95451324771E+02  0.00000000000E+00 0. -1.
        -11    1    5    5    0    0 -0.11268717116E+03 -0.25492198029E+02 -0.30520871467E+02  0.11949800961E+03  0.00000000000E+00 0.  1.
          2    1    6    6  503    0  0.86773580736E+02  0.76099121256E+02 -0.97408247165E+01  0.11582579262E+03  0.00000000000E+00 0.  1.
         -2    1    6    6    0  503  0.56462200428E+03  0.81613974986E+03 -0.18711089312E+03  0.10098973143E+04  0.00000000000E+00 0. -1.
<mgrwt>
<rscale>  0 0.23615946E+04</rscale>
<asrwt>0</asrwt>
<pdfrwt beam="1">  1        2 0.24648376E+00 0.23615946E+04</pdfrwt>
<pdfrwt beam="2">  1       -1 0.13388616E+00 0.23615946E+04</pdfrwt>
<totfact> 0.53758762E+00</totfact>
</mgrwt>
</event>
<event>
12    6  0.1586493E-007  0.1416626E+04  0.7818608E-02  0.8941871E-01
         -1   -1    0    0    0  501 -0.00000000000E+00  0.00000000000E+00  0.52662841246E+03  0.52662841246E+03  0.00000000000E+00 0.  1.
          2   -1    0    0  501    0  0.00000000000E+00 -0.00000000000E+00 -0.95267733788E+03  0.95267733788E+03  0.00000000000E+00 0. -1.
         24    2    1    2    0    0  0.26580300023E+03 -0.13016310472E+02  0.20697191461E+03  0.34515483025E+03  0.73985296767E+02 0.  0.
        254    2    1    2    0    0 -0.26580300023E+03  0.13016310472E+02 -0.63302084004E+03  0.11341509201E+04  0.90264182617E+03 0.  0.
         23    2    4    4    0    0  0.10461237178E+03  0.26640804548E+03 -0.60586851302E+03  0.67600149689E+03  0.89355322790E+02 0.  0.
         23    2    4    4    0    0 -0.37041537201E+03 -0.25339173500E+03 -0.27152327019E+02  0.45814942319E+03  0.88026847721E+02 0.  0.
          4    1    3    3  502    0  0.46409478216E+02 -0.71557937387E+01  0.76697565771E+02  0.89930871494E+02  0.00000000000E+00 0. -1.
         -3    1    3    3    0  502  0.21939352201E+03 -0.58605167331E+01  0.13027434884E+03  0.25522395875E+03  0.00000000000E+00 0.  1.
         11    1    5    5    0    0  0.53118376438E+02  0.22584585806E+03 -0.50441021074E+03  0.55520948678E+03  0.00000000000E+00 0. -1.
        -11    1    5    5    0    0  0.51493995347E+02  0.40562187417E+02 -0.10145830228E+03  0.12079201011E+03  0.00000000000E+00 0.  1.
          2    1    6    6  503    0 -0.28547760569E+03 -0.21019974475E+03  0.12982168200E+02  0.35475334070E+03  0.00000000000E+00 0. -1.
         -2    1    6    6    0  503 -0.84937766317E+02 -0.43191990260E+02 -0.40134495219E+02  0.10339608250E+03  0.00000000000E+00 0.  1.
<mgrwt>
<rscale>  0 0.14166255E+04</rscale>
<asrwt>0</asrwt>
<pdfrwt beam="1">  1        2 0.14656574E+00 0.14166255E+04</pdfrwt>
<pdfrwt beam="2">  1       -1 0.81019756E-01 0.14166255E+04</pdfrwt>
<totfact> 0.45552392E+01</totfact>
</mgrwt>
</event>
<event>
12    6  0.1586493E-007  0.1460586E+04  0.7818608E-02  0.8911094E-01
         -1   -1    0    0    0  501 -0.00000000000E+00  0.00000000000E+00  0.54949677753E+03  0.54949677753E+03  0.00000000000E+00 0.  1.
          2   -1    0    0  501    0  0.00000000000E+00 -0.00000000000E+00 -0.97057539331E+03  0.97057539331E+03  0.00000000000E+00 0. -1.
         24    2    1    2    0    0 -0.41383410437E+03  0.14805597875E+03 -0.22671108694E+03  0.50101271727E+03  0.80228343773E+02 0.  0.
        254    2    1    2    0    0  0.41383410437E+03 -0.14805597875E+03 -0.19436752884E+03  0.10190594536E+04  0.89862350006E+03 0.  0.
         23    2    4    4    0    0  0.51948042776E+03  0.31760470389E+02 -0.43747557840E+03  0.68610291164E+03  0.92106901782E+02 0.  0.
         23    2    4    4    0    0 -0.10564632340E+03 -0.17981644914E+03  0.24310804956E+03  0.33295654193E+03  0.90903432427E+02 0.  0.
          2    1    3    3  502    0 -0.27387834535E+03  0.57373860724E+02 -0.14918013467E+03  0.31710537763E+03  0.00000000000E+00 0. -1.
         -1    1    3    3    0  502 -0.13995575902E+03  0.90682118022E+02 -0.77530952265E+02  0.18390733963E+03  0.00000000000E+00 0.  1.
         11    1    5    5    0    0  0.38630914741E+03  0.16359807395E+02 -0.37338493111E+03  0.53751158820E+03  0.00000000000E+00 0.  1.
        -11    1    5    5    0    0  0.13317128035E+03  0.15400662995E+02 -0.64090647292E+02  0.14859132344E+03  0.00000000000E+00 0. -1.
          4    1    6    6  503    0 -0.23237457331E+02 -0.83686481696E+02  0.44938715931E+02  0.97790054869E+02  0.00000000000E+00 0. -1.
         -4    1    6    6    0  503 -0.82408866066E+02 -0.96129967440E+02  0.19816933363E+03  0.23516648706E+03  0.00000000000E+00 0.  1.
<mgrwt>
<rscale>  0 0.14605863E+04</rscale>
<asrwt>0</asrwt>
<pdfrwt beam="1">  1        2 0.14931929E+00 0.14605863E+04</pdfrwt>
<pdfrwt beam="2">  1       -1 0.84537966E-01 0.14605863E+04</pdfrwt>
<totfact> 0.40325970E+01</totfact>
</mgrwt>
</event>
<event>
12    6  0.1586493E-007  0.1570897E+04  0.7818608E-02  0.8838629E-01
         -1   -1    0    0    0  501 -0.00000000000E+00  0.00000000000E+00  0.36828638273E+03  0.36828638273E+03  0.00000000000E+00 0.  1.
          2   -1    0    0  501    0  0.00000000000E+00 -0.00000000000E+00 -0.16751344835E+04  0.16751344835E+04  0.00000000000E+00 0. -1.
         24    2    1    2    0    0 -0.62216429919E+02 -0.48429167291E+03 -0.19580722999E+03  0.53224425845E+03  0.80834217624E+02 0.  0.
        254    2    1    2    0    0  0.62216429919E+02  0.48429167291E+03 -0.11110408707E+04  0.15111766077E+04  0.90046300019E+03 0.  0.
         23    2    4    4    0    0  0.37987356059E+02  0.66800102588E+03 -0.11174052816E+04  0.13054100372E+04  0.88500803472E+02 0.  0.
         23    2    4    4    0    0  0.24229073860E+02 -0.18370935297E+03  0.63644108278E+01  0.20576657051E+03  0.89236771721E+02 0.  0.
          4    1    3    3  502    0 -0.16500880502E+02 -0.27095031043E+03 -0.69781364018E+02  0.28027805576E+03  0.00000000000E+00 0. -1.
         -3    1    3    3    0  502 -0.45715549417E+02 -0.21334136248E+03 -0.12602586597E+03  0.25196620269E+03  0.00000000000E+00 0.  1.
         11    1    5    5    0    0  0.23925471772E+02  0.57257691806E+02 -0.13449912542E+03  0.14812456315E+03  0.00000000000E+00 0.  1.
        -11    1    5    5    0    0  0.14061884287E+02  0.61074333407E+03 -0.98290615615E+03  0.11572854741E+04  0.00000000000E+00 0. -1.
          4    1    6    6  503    0  0.33589208828E+02 -0.92456267017E+02  0.42521969831E+02  0.10716582561E+03  0.00000000000E+00 0. -1.
         -4    1    6    6    0  503 -0.93601349674E+01 -0.91253085951E+02 -0.36157559003E+02  0.98600744902E+02  0.00000000000E+00 0.  1.
<mgrwt>
<rscale>  0 0.15708968E+04</rscale>
<asrwt>0</asrwt>
<pdfrwt beam="1">  1        2 0.25771300E+00 0.15708968E+04</pdfrwt>
<pdfrwt beam="2">  1       -1 0.56659443E-01 0.15708968E+04</pdfrwt>
<totfact> 0.34950164E+01</totfact>
</mgrwt>
</event>
<event>
12    6  0.1586493E-007  0.1284998E+04  0.7818608E-02  0.9041547E-01
         -1   -1    0    0    0  501 -0.00000000000E+00  0.00000000000E+00  0.30211602866E+03  0.30211602866E+03  0.00000000000E+00 0.  1.
          2   -1    0    0  501    0  0.00000000000E+00 -0.00000000000E+00 -0.13663792842E+04  0.13663792842E+04  0.00000000000E+00 0. -1.
         24    2    1    2    0    0  0.42294225326E+02  0.87146413056E+02  0.11951099166E+03  0.17366719154E+03  0.80586087436E+02 0.  0.
        254    2    1    2    0    0 -0.42294225326E+02 -0.87146413056E+02 -0.11837742472E+04  0.14948281213E+04  0.90763778302E+03 0.  0.
         23    2    4    4    0    0  0.31699264626E+03 -0.15117373558E+03 -0.14557567529E+03  0.39047847522E+03  0.89125340171E+02 0.  0.
         23    2    4    4    0    0 -0.35928687159E+03  0.64027322525E+02 -0.10381985719E+04  0.11043496461E+04  0.92440856819E+02 0.  0.
          2    1    3    3  502    0  0.49561292130E+02  0.62496599420E+02  0.38289911190E+02  0.88477476884E+02  0.00000000000E+00 0. -1.
         -1    1    3    3    0  502 -0.72670668042E+01  0.24649813635E+02  0.81221080465E+02  0.85189714661E+02  0.00000000000E+00 0.  1.
         11    1    5    5    0    0  0.23875207904E+03 -0.12452686033E+03 -0.69398905286E+02  0.27807499392E+03  0.00000000000E+00 0.  1.
        -11    1    5    5    0    0  0.78240567217E+02 -0.26646875251E+02 -0.76176770002E+02  0.11240348129E+03  0.00000000000E+00 0. -1.
          3    1    6    6  503    0 -0.37386329586E+02  0.36179758258E+02 -0.11431130318E+03  0.12559373624E+03  0.00000000000E+00 0. -1.
         -3    1    6    6    0  503 -0.32190054200E+03  0.27847564267E+02 -0.92388726872E+03  0.97875590986E+03  0.00000000000E+00 0.  1.
<mgrwt>
<rscale>  0 0.12849982E+04</rscale>
<asrwt>0</asrwt>
<pdfrwt beam="1">  1        2 0.21021220E+00 0.12849982E+04</pdfrwt>
<pdfrwt beam="2">  1       -1 0.46479389E-01 0.12849982E+04</pdfrwt>
<totfact> 0.77951677E+01</totfact>
</mgrwt>
</event>
<event>
12    6  0.1586493E-007  0.2717326E+04  0.7818608E-02  0.8329405E-01
          2   -1    0    0  501    0  0.00000000000E+00  0.00000000000E+00  0.30765403772E+04  0.30765403772E+04  0.00000000000E+00 0. -1.
         -1   -1    0    0    0  501 -0.00000000000E+00 -0.00000000000E+00 -0.60001315909E+03  0.60001315909E+03  0.00000000000E+00 0.  1.
         24    2    1    2    0    0 -0.87871226458E+02  0.94974767372E+03  0.87684720635E+02  0.96116748323E+03  0.80076990554E+02 0.  0.
        254    2    1    2    0    0  0.87871226458E+02 -0.94974767372E+03  0.23888424975E+04  0.27153860531E+04  0.87006375819E+03 0.  0.
         23    2    4    4    0    0 -0.33762349026E+03 -0.22522272865E+03  0.54136321943E+03  0.68366214282E+03  0.98004548362E+02 0.  0.
         23    2    4    4    0    0  0.42549471671E+03 -0.72452494507E+03  0.18474792781E+04  0.20317239103E+04  0.93489115464E+02 0.  0.
          2    1    3    3  502    0  0.64626916684E+00  0.33130092548E+03  0.52426812458E+02  0.33542404736E+03  0.00000000000E+00 0. -1.
         -1    1    3    3    0  502 -0.88517495625E+02  0.61844674824E+03  0.35257908177E+02  0.62574343587E+03  0.00000000000E+00 0.  1.
         11    1    5    5    0    0 -0.33154063611E+03 -0.19570698685E+03  0.51865474479E+03  0.64592814027E+03  0.00000000000E+00 0. -1.
        -11    1    5    5    0    0 -0.60828541481E+01 -0.29515741793E+02  0.22708474641E+02  0.37734002553E+02  0.00000000000E+00 0.  1.
          3    1    6    6  503    0  0.42781272562E+03 -0.71320182521E+03  0.17998200098E+04  0.19826831919E+04  0.00000000000E+00 0. -1.
         -3    1    6    6    0  503 -0.23180089075E+01 -0.11323119859E+02  0.47659268292E+02  0.49040718417E+02  0.00000000000E+00 0.  1.
<mgrwt>
<rscale>  0 0.27173257E+04</rscale>
<asrwt>0</asrwt>
<pdfrwt beam="1">  1        2 0.47331390E+00 0.27173257E+04</pdfrwt>
<pdfrwt beam="2">  1       -1 0.92309718E-01 0.27173257E+04</pdfrwt>
<totfact> 0.17707319E+00</totfact>
</mgrwt>
</event>
<event>
12    6  0.1586493E-007  0.1225071E+04  0.7818608E-02  0.9091190E-01
         -1   -1    0    0    0  501 -0.00000000000E+00  0.00000000000E+00  0.33707460817E+03  0.33707460817E+03  0.00000000000E+00 0.  1.
          2   -1    0    0  501    0  0.00000000000E+00 -0.00000000000E+00 -0.11131064005E+04  0.11131064005E+04  0.00000000000E+00 0. -1.
         24    2    1    2    0    0 -0.82491381756E+02 -0.12966619609E+03 -0.53073104210E+03  0.55838477793E+03  0.80622395790E+02 0.  0.
        254    2    1    2    0    0  0.82491381756E+02  0.12966619609E+03 -0.24530075019E+03  0.89179623070E+03  0.84351046738E+03 0.  0.
         23    2    4    4    0    0 -0.21533571615E+03  0.38727748803E+03 -0.12474094510E+03  0.46957814908E+03  0.92682313973E+02 0.  0.
         23    2    4    4    0    0  0.29782709791E+03 -0.25761129194E+03 -0.12055980508E+03  0.42221808162E+03  0.93106841092E+02 0.  0.
          4    1    3    3  502    0 -0.69434032099E+02 -0.87375914312E+02 -0.47100366373E+03  0.48404554172E+03  0.00000000000E+00 0. -1.
         -3    1    3    3    0  502 -0.13057349657E+02 -0.42290281775E+02 -0.59727378370E+02  0.74339236206E+02  0.00000000000E+00 0.  1.
         11    1    5    5    0    0 -0.66615549117E+02  0.11180948529E+03  0.60826718473E+01  0.13029194634E+03  0.00000000000E+00 0.  1.
        -11    1    5    5    0    0 -0.14872016704E+03  0.27546800274E+03 -0.13082361695E+03  0.33928620274E+03  0.00000000000E+00 0. -1.
          2    1    6    6  503    0  0.25896010069E+03 -0.18740929656E+03 -0.12149305289E+03  0.34196950169E+03  0.00000000000E+00 0. -1.
         -2    1    6    6    0  503  0.38866997220E+02 -0.70201995385E+02  0.93324780918E+00  0.80248579927E+02  0.00000000000E+00 0.  1.
<mgrwt>
<rscale>  0 0.12250713E+04</rscale>
<asrwt>0</asrwt>
<pdfrwt beam="1">  1        2 0.17124714E+00 0.12250713E+04</pdfrwt>
<pdfrwt beam="2">  1       -1 0.51857632E-01 0.12250713E+04</pdfrwt>
<totfact> 0.89900231E+01</totfact>
</mgrwt>
</event>
<event>
12    6  0.1586493E-007  0.1274059E+04  0.7818608E-02  0.9050394E-01
         -1   -1    0    0    0  501 -0.00000000000E+00  0.00000000000E+00  0.58239368028E+03  0.58239368028E+03  0.00000000000E+00 0.  1.
          2   -1    0    0  501    0  0.00000000000E+00 -0.00000000000E+00 -0.69679063708E+03  0.69679063708E+03  0.00000000000E+00 0. -1.
         24    2    1    2    0    0 -0.28464327197E+03  0.87848189216E+02 -0.12292362262E+03  0.33068467349E+03  0.74182475407E+02 0.  0.
        254    2    1    2    0    0  0.28464327197E+03 -0.87848189216E+02  0.85266658187E+01  0.94849964387E+03  0.90046642012E+03 0.  0.
         23    2    4    4    0    0  0.18175332063E+03 -0.47933841697E+03 -0.71600217781E+02  0.52550270073E+03  0.90702313914E+02 0.  0.
         23    2    4    4    0    0  0.10288995135E+03  0.39149022776E+03  0.80126883600E+02  0.42299694314E+03  0.93033090404E+02 0.  0.
          2    1    3    3  502    0 -0.27712073299E+03  0.80708596579E+02 -0.99901404648E+02  0.30543423001E+03  0.00000000000E+00 0. -1.
         -1    1    3    3    0  502 -0.75225389896E+01  0.71395926363E+01 -0.23022217969E+02  0.25250443482E+02  0.00000000000E+00 0.  1.
         11    1    5    5    0    0  0.70666434761E+02 -0.97114167333E+02 -0.38344028225E+02  0.12607605244E+03  0.00000000000E+00 0.  1.
        -11    1    5    5    0    0  0.11108688587E+03 -0.38222424964E+03 -0.33256189556E+02  0.39942664829E+03  0.00000000000E+00 0. -1.
          3    1    6    6  503    0  0.70153698804E+02  0.19987214991E+03 -0.23258999629E+01  0.21183915497E+03  0.00000000000E+00 0. -1.
         -3    1    6    6    0  503  0.32736252543E+02  0.19161807784E+03  0.82452783563E+02  0.21115778817E+03  0.00000000000E+00 0.  1.
<mgrwt>
<rscale>  0 0.12740588E+04</rscale>
<asrwt>0</asrwt>
<pdfrwt beam="1">  1        2 0.10719856E+00 0.12740588E+04</pdfrwt>
<pdfrwt beam="2">  1       -1 0.89599028E-01 0.12740588E+04</pdfrwt>
<totfact> 0.56416471E+01</totfact>
</mgrwt>
</event>
<event>
12    6  0.1586493E-007  0.1885059E+04  0.7818608E-02  0.8662329E-01
         -1   -1    0    0    0  501 -0.00000000000E+00  0.00000000000E+00  0.71438349819E+03  0.71438349819E+03  0.00000000000E+00 0.  1.
          2   -1    0    0  501    0  0.00000000000E+00 -0.00000000000E+00 -0.12435366174E+04  0.12435366174E+04  0.00000000000E+00 0. -1.
         24    2    1    2    0    0  0.34580126802E+03  0.19560240221E+02 -0.86812037040E+03  0.93776433686E+03  0.76209277802E+02 0.  0.
        254    2    1    2    0    0 -0.34580126802E+03 -0.19560240221E+02  0.33896725114E+03  0.10201557788E+04  0.89769588149E+03 0.  0.
         23    2    4    4    0    0 -0.29457327031E+03  0.14026913928E+03 -0.23706516914E+03  0.41329242246E+03  0.90343173674E+02 0.  0.
         23    2    4    4    0    0 -0.51227997714E+02 -0.15982937950E+03  0.57603242028E+03  0.60686335631E+03  0.91104586648E+02 0.  0.
          2    1    3    3  502    0  0.31777036566E+03  0.14438696687E+02 -0.72315673851E+03  0.79002667658E+03  0.00000000000E+00 0. -1.
         -1    1    3    3    0  502  0.28030902364E+02  0.51215435338E+01 -0.14496363188E+03  0.14773766028E+03  0.00000000000E+00 0.  1.
         11    1    5    5    0    0 -0.28673059310E+03  0.11492357303E+03 -0.23189908770E+03  0.38626292539E+03  0.00000000000E+00 0.  1.
        -11    1    5    5    0    0 -0.78426772090E+01  0.25345566248E+02 -0.51660814396E+01  0.27029497067E+02  0.00000000000E+00 0. -1.
          1    1    6    6  503    0 -0.21890923435E+02 -0.61064014381E+02  0.95755821675E+02  0.11565986238E+03  0.00000000000E+00 0. -1.
         -1    1    6    6    0  503 -0.29337074279E+02 -0.98765365122E+02  0.48027659861E+03  0.49120349393E+03  0.00000000000E+00 0.  1.
<mgrwt>
<rscale>  0 0.18850592E+04</rscale>
<asrwt>0</asrwt>
<pdfrwt beam="1">  1        2 0.19131332E+00 0.18850592E+04</pdfrwt>
<pdfrwt beam="2">  1       -1 0.10990516E+00 0.18850592E+04</pdfrwt>
<totfact> 0.14589612E+01</totfact>
</mgrwt>
</event>
<event>
12    6  0.1586493E-007  0.1409462E+04  0.7818608E-02  0.8946998E-01
         -1   -1    0    0    0  501 -0.00000000000E+00  0.00000000000E+00  0.22867576111E+03  0.22867576111E+03  0.00000000000E+00 0.  1.
          2   -1    0    0  501    0  0.00000000000E+00 -0.00000000000E+00 -0.21718333314E+04  0.21718333314E+04  0.00000000000E+00 0. -1.
         24    2    1    2    0    0  0.69482168044E+02 -0.41794551296E+03 -0.61255172715E+03  0.74893761400E+03  0.78623837062E+02 0.  0.
        254    2    1    2    0    0 -0.69482168044E+02  0.41794551296E+03 -0.13306058431E+04  0.16515714785E+04  0.88185611939E+03 0.  0.
         23    2    4    4    0    0  0.25991468712E+03 -0.15092608159E+03 -0.46183439567E+03  0.55838873094E+03  0.90402650067E+02 0.  0.
         23    2    4    4    0    0 -0.32939685517E+03  0.56887159455E+03 -0.86877144744E+03  0.10931827475E+04  0.90374290127E+02 0.  0.
          2    1    3    3  502    0  0.34838243892E+02 -0.10010310073E+03 -0.20654990804E+03  0.23215770184E+03  0.00000000000E+00 0. -1.
         -1    1    3    3    0  502  0.34643924152E+02 -0.31784241222E+03 -0.40600181910E+03  0.51677991215E+03  0.00000000000E+00 0.  1.
         11    1    5    5    0    0  0.20889231192E+03 -0.15850935572E+03 -0.38962686854E+03  0.46964913554E+03  0.00000000000E+00 0. -1.
        -11    1    5    5    0    0  0.51022375207E+02  0.75832741298E+01 -0.72207527126E+02  0.88739595401E+02  0.00000000000E+00 0.  1.
          1    1    6    6  503    0 -0.33003537704E+03  0.53237883680E+03 -0.83134513008E+03  0.10409060002E+04  0.00000000000E+00 0. -1.
         -1    1    6    6    0  503  0.63852187134E+00  0.36492757748E+02 -0.37426317362E+02  0.52276747312E+02  0.00000000000E+00 0.  1.
<mgrwt>
<rscale>  0 0.14094618E+04</rscale>
<asrwt>0</asrwt>
<pdfrwt beam="1">  1        2 0.33412822E+00 0.14094618E+04</pdfrwt>
<pdfrwt beam="2">  1       -1 0.35180885E-01 0.14094618E+04</pdfrwt>
<totfact> 0.45678581E+01</totfact>
</mgrwt>
</event>
<event>
12    6  0.1586493E-007  0.1677220E+04  0.7818608E-02  0.8774464E-01
         -1   -1    0    0    0  501 -0.00000000000E+00  0.00000000000E+00  0.42987830596E+03  0.42987830596E+03  0.00000000000E+00 0.  1.
          2   -1    0    0  501    0  0.00000000000E+00 -0.00000000000E+00 -0.16359676253E+04  0.16359676253E+04  0.00000000000E+00 0. -1.
         24    2    1    2    0    0  0.10185762038E+03  0.43140907095E+03 -0.90468841160E+03  0.10105873996E+04  0.79605331444E+02 0.  0.
        254    2    1    2    0    0 -0.10185762038E+03 -0.43140907095E+03 -0.30140090770E+03  0.10552585316E+04  0.90897706247E+03 0.  0.
         23    2    4    4    0    0 -0.39113685137E+03 -0.51106720593E+03 -0.46677870626E+02  0.65144278123E+03  0.89560862735E+02 0.  0.
         23    2    4    4    0    0  0.28927923099E+03  0.79658134985E+02 -0.25472303707E+03  0.40381575040E+03  0.90307489757E+02 0.  0.
          2    1    3    3  502    0  0.13741268008E+02  0.89478728278E+02 -0.26327480011E+03  0.27840417675E+03  0.00000000000E+00 0. -1.
         -1    1    3    3    0  502  0.88116352376E+02  0.34193034267E+03 -0.64141361149E+03  0.73218322283E+03  0.00000000000E+00 0.  1.
         11    1    5    5    0    0 -0.37547290058E+03 -0.49516269946E+03 -0.61787904305E+02  0.62448678379E+03  0.00000000000E+00 0. -1.
        -11    1    5    5    0    0 -0.15663950792E+02 -0.15904506476E+02  0.15110033680E+02  0.26955997449E+02  0.00000000000E+00 0.  1.
          2    1    6    6  503    0  0.16432478797E+03  0.91060231708E+02 -0.15282193355E+03  0.24217585576E+03  0.00000000000E+00 0. -1.
         -2    1    6    6    0  503  0.12495444302E+03 -0.11402096724E+02 -0.10190110352E+03  0.16163989464E+03  0.00000000000E+00 0.  1.
<mgrwt>
<rscale>  0 0.16772203E+04</rscale>
<asrwt>0</asrwt>
<pdfrwt beam="1">  1        2 0.25168732E+00 0.16772203E+04</pdfrwt>
<pdfrwt beam="2">  1       -1 0.66135126E-01 0.16772203E+04</pdfrwt>
<totfact> 0.26790525E+01</totfact>
</mgrwt>
</event>
<event>
12    6  0.1586493E-007  0.1857069E+04  0.7818608E-02  0.8676526E-01
         -1   -1    0    0    0  501 -0.00000000000E+00  0.00000000000E+00  0.18076167764E+04  0.18076167764E+04  0.00000000000E+00 0.  1.
          2   -1    0    0  501    0  0.00000000000E+00 -0.00000000000E+00 -0.47696838627E+03  0.47696838627E+03  0.00000000000E+00 0. -1.
         24    2    1    2    0    0 -0.31646848958E+03  0.60169385506E+03  0.70143096719E+03  0.98039633064E+03  0.83568913455E+02 0.  0.
        254    2    1    2    0    0  0.31646848958E+03 -0.60169385506E+03  0.62921742298E+03  0.13041888321E+04  0.91804473976E+03 0.  0.
         23    2    4    4    0    0  0.25228410690E+03 -0.48997210844E+03  0.85934237956E+03  0.10248591682E+04  0.90261020281E+02 0.  0.
         23    2    4    4    0    0  0.64184382679E+02 -0.11172174662E+03 -0.23012495658E+03  0.27932966382E+03  0.92011856866E+02 0.  0.
          4    1    3    3  502    0 -0.17383229310E+03  0.32477014336E+03  0.32013795229E+03  0.48803854422E+03  0.00000000000E+00 0. -1.
         -3    1    3    3    0  502 -0.14263619647E+03  0.27692371170E+03  0.38129301490E+03  0.49235778642E+03  0.00000000000E+00 0.  1.
         11    1    5    5    0    0  0.69036462729E+02 -0.21738851911E+03  0.31105786966E+03  0.38572114241E+03  0.00000000000E+00 0. -1.
        -11    1    5    5    0    0  0.18324764417E+03 -0.27258358932E+03  0.54828450990E+03  0.63913802582E+03  0.00000000000E+00 0.  1.
          3    1    6    6  503    0  0.65986474260E+02 -0.58174448722E+02 -0.19848906501E+03  0.21710916655E+03  0.00000000000E+00 0. -1.
         -3    1    6    6    0  503 -0.18020915815E+01 -0.53547297898E+02 -0.31635891569E+02  0.62220497279E+02  0.00000000000E+00 0.  1.
<mgrwt>
<rscale>  0 0.18570687E+04</rscale>
<asrwt>0</asrwt>
<pdfrwt beam="1">  1        2 0.73379752E-01 0.18570687E+04</pdfrwt>
<pdfrwt beam="2">  1       -1 0.27809489E+00 0.18570687E+04</pdfrwt>
<totfact> 0.32001743E+00</totfact>
</mgrwt>
</event>
<event>
12    6  0.1586493E-007  0.1523139E+04  0.7818608E-02  0.8869210E-01
          2   -1    0    0  501    0  0.00000000000E+00  0.00000000000E+00  0.15002747596E+04  0.15002747596E+04  0.00000000000E+00 0. -1.
         -1   -1    0    0    0  501 -0.00000000000E+00 -0.00000000000E+00 -0.38658794873E+03  0.38658794873E+03  0.00000000000E+00 0.  1.
         24    2    1    2    0    0  0.46346995028E+03  0.13437811119E+03  0.49987095367E+03  0.69838112945E+03  0.70734433434E+02 0.  0.
        254    2    1    2    0    0 -0.46346995028E+03 -0.13437811119E+03  0.61381585719E+03  0.11884815789E+04  0.89602270348E+03 0.  0.
         23    2    4    4    0    0 -0.60719079375E+03 -0.13827417501E+03  0.74280382613E+03  0.97382009053E+03  0.93635661639E+02 0.  0.
         23    2    4    4    0    0  0.14372084346E+03  0.38960638153E+01 -0.12898796894E+03  0.21466148832E+03  0.93652540166E+02 0.  0.
          4    1    3    3  502    0  0.95939790869E+02  0.57846173913E+02  0.12482959005E+03  0.16772909664E+03  0.00000000000E+00 0. -1.
         -3    1    3    3    0  502  0.36753015941E+03  0.76531937280E+02  0.37504136362E+03  0.53065203281E+03  0.00000000000E+00 0.  1.
         11    1    5    5    0    0 -0.11600939413E+03 -0.20986973588E+01  0.18345731168E+03  0.21706950331E+03  0.00000000000E+00 0.  1.
        -11    1    5    5    0    0 -0.49118139961E+03 -0.13617547765E+03  0.55934651444E+03  0.75675058722E+03  0.00000000000E+00 0. -1.
          2    1    6    6  503    0  0.77698719536E+02  0.28735101760E+02 -0.11661435614E+03  0.14304441670E+03  0.00000000000E+00 0. -1.
         -2    1    6    6    0  503  0.66022123929E+02 -0.24839037944E+02 -0.12373612791E+02  0.71617071621E+02  0.00000000000E+00 0.  1.
<mgrwt>
<rscale>  0 0.15231391E+04</rscale>
<asrwt>0</asrwt>
<pdfrwt beam="1">  1        2 0.23081150E+00 0.15231391E+04</pdfrwt>
<pdfrwt beam="2">  1       -1 0.59475070E-01 0.15231391E+04</pdfrwt>
<totfact> 0.39967910E+01</totfact>
</mgrwt>
</event>
<event>
12    6  0.1586493E-007  0.2024735E+04  0.7818608E-02  0.8595143E-01
          2   -1    0    0  501    0  0.00000000000E+00  0.00000000000E+00  0.16845419889E+04  0.16845419889E+04  0.00000000000E+00 0. -1.
         -1   -1    0    0    0  501 -0.00000000000E+00 -0.00000000000E+00 -0.60840767619E+03  0.60840767619E+03  0.00000000000E+00 0.  1.
         24    2    1    2    0    0  0.29639184981E+03  0.64052663213E+03  0.86488629201E+03  0.11191260580E+04  0.79324274549E+02 0.  0.
        254    2    1    2    0    0 -0.29639184981E+03 -0.64052663213E+03  0.21124802075E+03  0.11738236071E+04  0.91384552265E+03 0.  0.
         23    2    4    4    0    0 -0.58543843537E+03 -0.40208889978E+03  0.30575592612E+03  0.77726120699E+03  0.78959816358E+02 0.  0.
         23    2    4    4    0    0  0.28904658556E+03 -0.23843773234E+03 -0.94507905368E+02  0.39656240013E+03  0.89047808461E+02 0.  0.
          2    1    3    3  502    0  0.27900174642E+03  0.54818837644E+03  0.72755541532E+03  0.95272732350E+03  0.00000000000E+00 0. -1.
         -1    1    3    3    0  502  0.17390103391E+02  0.92338255681E+02  0.13733087669E+03  0.16639873452E+03  0.00000000000E+00 0.  1.
         11    1    5    5    0    0 -0.10023510025E+03 -0.51305712147E+02  0.76571532832E+02  0.13617103606E+03  0.00000000000E+00 0.  1.
        -11    1    5    5    0    0 -0.48520333512E+03 -0.35078318764E+03  0.22918439328E+03  0.64109017093E+03  0.00000000000E+00 0. -1.
          3    1    6    6  503    0  0.20362735097E+03 -0.19879336935E+03 -0.38960086150E+02  0.28722950766E+03  0.00000000000E+00 0. -1.
         -3    1    6    6    0  503  0.85419234593E+02 -0.39644362994E+02 -0.55547819218E+02  0.10933289247E+03  0.00000000000E+00 0.  1.
<mgrwt>
<rscale>  0 0.20247353E+04</rscale>
<asrwt>0</asrwt>
<pdfrwt beam="1">  1        2 0.25916030E+00 0.20247353E+04</pdfrwt>
<pdfrwt beam="2">  1       -1 0.93601181E-01 0.20247353E+04</pdfrwt>
<totfact> 0.11693886E+01</totfact>
</mgrwt>
</event>
<event>
12    6  0.1586493E-007  0.1289221E+04  0.7818608E-02  0.9038157E-01
         -1   -1    0    0    0  501 -0.00000000000E+00  0.00000000000E+00  0.58728663588E+03  0.58728663588E+03  0.00000000000E+00 0.  1.
          2   -1    0    0  501    0  0.00000000000E+00 -0.00000000000E+00 -0.70752988694E+03  0.70752988694E+03  0.00000000000E+00 0. -1.
         24    2    1    2    0    0  0.18723419663E+03 -0.16702145390E+03 -0.23271265073E+03  0.35140299629E+03  0.79850344651E+02 0.  0.
        254    2    1    2    0    0 -0.18723419663E+03  0.16702145390E+03  0.11246939967E+03  0.94341352653E+03  0.90245604088E+03 0.  0.
         23    2    4    4    0    0 -0.42351892782E+03  0.36511480168E+03  0.21462627450E+03  0.60606695407E+03  0.92604613713E+02 0.  0.
         23    2    4    4    0    0  0.23628473119E+03 -0.19809334778E+03 -0.10215687483E+03  0.33734657245E+03  0.91078176529E+02 0.  0.
          4    1    3    3  502    0  0.86072092836E+02 -0.11412063439E+03 -0.16646596822E+03  0.21941477374E+03  0.00000000000E+00 0. -1.
         -3    1    3    3    0  502  0.10116210379E+03 -0.52900819505E+02 -0.66246682510E+02  0.13198822255E+03  0.00000000000E+00 0.  1.
         11    1    5    5    0    0 -0.41282332720E+03  0.33065284947E+03  0.18844374096E+03  0.56148503973E+03  0.00000000000E+00 0. -1.
        -11    1    5    5    0    0 -0.10695600623E+02  0.34461952214E+02  0.26182533544E+02  0.44581914336E+02  0.00000000000E+00 0.  1.
          1    1    6    6  503    0  0.23514399738E+03 -0.16506491119E+03 -0.82553678635E+02  0.29892178620E+03  0.00000000000E+00 0. -1.
         -1    1    6    6    0  503  0.11407338153E+01 -0.33028436598E+02 -0.19603196193E+02  0.38424786255E+02  0.00000000000E+00 0.  1.
<mgrwt>
<rscale>  0 0.12892212E+04</rscale>
<asrwt>0</asrwt>
<pdfrwt beam="1">  1        2 0.10885075E+00 0.12892212E+04</pdfrwt>
<pdfrwt beam="2">  1       -1 0.90351791E-01 0.12892212E+04</pdfrwt>
<totfact> 0.54258401E+01</totfact>
</mgrwt>
</event>
<event>
12    6  0.1586493E-007  0.1609077E+04  0.7818608E-02  0.8814991E-01
          2   -1    0    0  501    0  0.00000000000E+00  0.00000000000E+00  0.10840467722E+04  0.10840467722E+04  0.00000000000E+00 0. -1.
         -1   -1    0    0    0  501 -0.00000000000E+00 -0.00000000000E+00 -0.59709782534E+03  0.59709782534E+03  0.00000000000E+00 0.  1.
         24    2    1    2    0    0 -0.17331319312E+03  0.87867382968E+02 -0.36534087513E+03  0.42013411791E+03  0.72667613786E+02 0.  0.
        254    2    1    2    0    0  0.17331319312E+03 -0.87867382968E+02  0.85228982196E+03  0.12610104796E+04  0.90884066211E+03 0.  0.
         23    2    4    4    0    0 -0.68233835567E+02  0.37784635795E+03  0.32134651889E+03  0.50907017724E+03  0.92006160800E+02 0.  0.
         23    2    4    4    0    0  0.24154702869E+03 -0.46571374091E+03  0.53094330307E+03  0.75194030234E+03  0.90989953673E+02 0.  0.
          2    1    3    3  502    0 -0.27642204494E+02 -0.12637165900E+02 -0.49376868802E+02  0.57981588491E+02  0.00000000000E+00 0. -1.
         -1    1    3    3    0  502 -0.14567098862E+03  0.10050454887E+03 -0.31596400633E+03  0.36215252942E+03  0.00000000000E+00 0.  1.
         11    1    5    5    0    0 -0.52411162107E+02  0.34672868387E+03  0.25327430178E+03  0.43256858655E+03  0.00000000000E+00 0.  1.
        -11    1    5    5    0    0 -0.15822673460E+02  0.31117674077E+02  0.68072217114E+02  0.76501590691E+02  0.00000000000E+00 0. -1.
          1    1    6    6  503    0  0.89540401555E+02 -0.12546034227E+03  0.10781899901E+03  0.18810294400E+03  0.00000000000E+00 0. -1.
         -1    1    6    6    0  503  0.15200662713E+03 -0.34025339865E+03  0.42312430405E+03  0.56383735834E+03  0.00000000000E+00 0.  1.
<mgrwt>
<rscale>  0 0.16090767E+04</rscale>
<asrwt>0</asrwt>
<pdfrwt beam="1">  1        2 0.16677643E+00 0.16090767E+04</pdfrwt>
<pdfrwt beam="2">  1       -1 0.91861204E-01 0.16090767E+04</pdfrwt>
<totfact> 0.28126543E+01</totfact>
</mgrwt>
</event>
<event>
12    6  0.1586493E-007  0.2857095E+04  0.7818608E-02  0.8285759E-01
         -1   -1    0    0    0  501 -0.00000000000E+00  0.00000000000E+00  0.12626599350E+04  0.12626599350E+04  0.00000000000E+00 0.  1.
          2   -1    0    0  501    0  0.00000000000E+00 -0.00000000000E+00 -0.16162294630E+04  0.16162294630E+04  0.00000000000E+00 0. -1.
         24    2    1    2    0    0  0.10891522951E+04  0.46275114498E+03 -0.62330157867E+03  0.13398836978E+04  0.79950744727E+02 0.  0.
        254    2    1    2    0    0 -0.10891522951E+04 -0.46275114498E+03  0.26973205068E+03  0.15390057002E+04  0.94625145804E+03 0.  0.
         23    2    4    4    0    0 -0.11393869984E+04 -0.29361476509E+03  0.45704778956E+03  0.12658898372E+04  0.95770744952E+02 0.  0.
         23    2    4    4    0    0  0.50234703281E+02 -0.16913637989E+03 -0.18731573888E+03  0.27311586297E+03  0.91512010992E+02 0.  0.
          2    1    3    3  502    0  0.50715840460E+03  0.22598553072E+03 -0.33621827315E+03  0.64909308628E+03  0.00000000000E+00 0. -1.
         -1    1    3    3    0  502  0.58199389052E+03  0.23676561426E+03 -0.28708330553E+03  0.69079061155E+03  0.00000000000E+00 0.  1.
         11    1    5    5    0    0 -0.47820412824E+03 -0.13242672387E+03  0.24276328982E+03  0.55240387431E+03  0.00000000000E+00 0. -1.
        -11    1    5    5    0    0 -0.66118287016E+03 -0.16118804121E+03  0.21428449974E+03  0.71348596290E+03  0.00000000000E+00 0.  1.
          4    1    6    6  503    0  0.28196038210E+02 -0.15769432374E+03 -0.18955803566E+03  0.24818292688E+03  0.00000000000E+00 0. -1.
         -4    1    6    6    0  503  0.22038665072E+02 -0.11442056145E+02  0.22422967806E+01  0.24932936085E+02  0.00000000000E+00 0.  1.
<mgrwt>
<rscale>  0 0.28570952E+04</rscale>
<asrwt>0</asrwt>
<pdfrwt beam="1">  1        2 0.24865069E+00 0.28570952E+04</pdfrwt>
<pdfrwt beam="2">  1       -1 0.19425537E+00 0.28570952E+04</pdfrwt>
<totfact> 0.17766607E+00</totfact>
</mgrwt>
</event>
<event>
12    6  0.1586493E-007  0.1499081E+04  0.7818608E-02  0.8885064E-01
         -1   -1    0    0    0  501 -0.00000000000E+00  0.00000000000E+00  0.11033853251E+04  0.11033853251E+04  0.00000000000E+00 0.  1.
          2   -1    0    0  501    0  0.00000000000E+00 -0.00000000000E+00 -0.50917056568E+03  0.50917056568E+03  0.00000000000E+00 0. -1.
         24    2    1    2    0    0 -0.24094472533E+03 -0.36428755121E+02 -0.24975642262E+03  0.35835556846E+03  0.81602867261E+02 0.  0.
        254    2    1    2    0    0  0.24094472533E+03  0.36428755121E+02  0.84397118207E+03  0.12542003223E+04  0.89518136573E+03 0.  0.
         23    2    4    4    0    0  0.12402926346E+02 -0.25713213652E+03  0.82673436213E+03  0.87066623328E+03  0.91100033168E+02 0.  0.
         23    2    4    4    0    0  0.22854179898E+03  0.29356089164E+03  0.17236819940E+02  0.38353408907E+03  0.91607524417E+02 0.  0.
          2    1    3    3  502    0 -0.19738064936E+03 -0.21319085350E+02 -0.23956084079E+03  0.31113183794E+03  0.00000000000E+00 0. -1.
         -3    1    3    3    0  502 -0.43564075967E+02 -0.15109669771E+02 -0.10195581833E+02  0.47223730521E+02  0.00000000000E+00 0.  1.
         11    1    5    5    0    0 -0.66189656397E+01 -0.23730595665E+03  0.65387125970E+03  0.69563320222E+03  0.00000000000E+00 0.  1.
        -11    1    5    5    0    0  0.19021891986E+02 -0.19826179875E+02  0.17286310243E+03  0.17503303106E+03  0.00000000000E+00 0. -1.
          2    1    6    6  503    0  0.10070867256E+03  0.20242673102E+03  0.68613545903E+01  0.22619879829E+03  0.00000000000E+00 0. -1.
         -2    1    6    6    0  503  0.12783312642E+03  0.91134160622E+02  0.10375465349E+02  0.15733529078E+03  0.00000000000E+00 0.  1.
<mgrwt>
<rscale>  0 0.14990815E+04</rscale>
<asrwt>0</asrwt>
<pdfrwt beam="1">  1        2 0.78333933E-01 0.14990815E+04</pdfrwt>
<pdfrwt beam="2">  1       -1 0.16975159E+00 0.14990815E+04</pdfrwt>
<totfact> 0.16454705E+01</totfact>
</mgrwt>
</event>
<event>
12    6  0.1586493E-007  0.1403429E+04  0.7818608E-02  0.8951340E-01
         -1   -1    0    0    0  501 -0.00000000000E+00  0.00000000000E+00  0.16557066199E+03  0.16557066199E+03  0.00000000000E+00 0.  1.
          2   -1    0    0  501    0  0.00000000000E+00 -0.00000000000E+00 -0.29739783026E+04  0.29739783026E+04  0.00000000000E+00 0. -1.
         24    2    1    2    0    0 -0.66172748251E+02 -0.38202719188E+03 -0.10655056957E+04  0.11380167059E+04  0.97242106589E+02 0.  0.
        254    2    1    2    0    0  0.66172748251E+02  0.38202719188E+03 -0.17429019449E+04  0.20015322588E+04  0.90448912942E+03 0.  0.
         23    2    4    4    0    0  0.28357551772E+03  0.46753482087E+02 -0.14899457562E+04  0.15198088020E+04  0.85319843495E+02 0.  0.
         23    2    4    4    0    0 -0.21740276947E+03  0.33527370979E+03 -0.25295618872E+03  0.48172345680E+03  0.91641861455E+02 0.  0.
          4    1    3    3  502    0 -0.32292043736E+02 -0.19449333852E+03 -0.67961725988E+03  0.70763695123E+03  0.00000000000E+00 0. -1.
         -3    1    3    3    0  502 -0.33880704515E+02 -0.18753385336E+03 -0.38588843581E+03  0.43037975462E+03  0.00000000000E+00 0.  1.
         11    1    5    5    0    0  0.93069525960E+02 -0.24639153418E+02 -0.49523320243E+03  0.50450465739E+03  0.00000000000E+00 0. -1.
        -11    1    5    5    0    0  0.19050599176E+03  0.71392635505E+02 -0.99471255379E+03  0.10153041446E+04  0.00000000000E+00 0.  1.
          3    1    6    6  503    0 -0.71597319155E+02  0.58793544406E+02 -0.90266715762E+02  0.12934812310E+03  0.00000000000E+00 0. -1.
         -3    1    6    6    0  503 -0.14580545032E+03  0.27648016538E+03 -0.16268947295E+03  0.35237533370E+03  0.00000000000E+00 0.  1.
<mgrwt>
<rscale>  0 0.14034295E+04</rscale>
<asrwt>0</asrwt>
<pdfrwt beam="1">  1        2 0.45753511E+00 0.14034295E+04</pdfrwt>
<pdfrwt beam="2">  1       -1 0.25472410E-01 0.14034295E+04</pdfrwt>
<totfact> 0.27408709E+01</totfact>
</mgrwt>
</event>
<event>
12    6  0.1586493E-007  0.1654963E+04  0.7818608E-02  0.8787476E-01
         -1   -1    0    0    0  501 -0.00000000000E+00  0.00000000000E+00  0.85910377556E+03  0.85910377556E+03  0.00000000000E+00 0.  1.
          2   -1    0    0  501    0  0.00000000000E+00 -0.00000000000E+00 -0.79702283117E+03  0.79702283117E+03  0.00000000000E+00 0. -1.
         24    2    1    2    0    0 -0.57590762142E+02 -0.20366270804E+03  0.56836534928E+03  0.61178074990E+03  0.80257841723E+02 0.  0.
        254    2    1    2    0    0  0.57590762142E+02  0.20366270804E+03 -0.50628440488E+03  0.10443458568E+04  0.88856016990E+03 0.  0.
         23    2    4    4    0    0 -0.26670403527E+03  0.41444046038E+03 -0.37625605235E+03  0.62700319614E+03  0.93126008259E+02 0.  0.
         23    2    4    4    0    0  0.32429479742E+03 -0.21077775234E+03 -0.13002835253E+03  0.41734266069E+03  0.87596503682E+02 0.  0.
          4    1    3    3  502    0  0.13072732079E+02 -0.41681406843E+02  0.65183998307E+02  0.78467761760E+02  0.00000000000E+00 0. -1.
         -3    1    3    3    0  502 -0.70663494221E+02 -0.16198130119E+03  0.50318135097E+03  0.53331298814E+03  0.00000000000E+00 0.  1.
         11    1    5    5    0    0 -0.18325059394E+03  0.31030730516E+03 -0.32085239038E+03  0.48251182393E+03  0.00000000000E+00 0.  1.
        -11    1    5    5    0    0 -0.83453441328E+02  0.10413315522E+03 -0.55403661971E+02  0.14449137222E+03  0.00000000000E+00 0. -1.
          3    1    6    6  503    0  0.14556478532E+03 -0.11165223371E+03 -0.18157051143E+02  0.18435022789E+03  0.00000000000E+00 0. -1.
         -3    1    6    6    0  503  0.17873001210E+03 -0.99125518636E+02 -0.11187130138E+03  0.23299243280E+03  0.00000000000E+00 0.  1.
<mgrwt>
<rscale>  0 0.16549626E+04</rscale>
<asrwt>0</asrwt>
<pdfrwt beam="1">  1        2 0.12261890E+00 0.16549626E+04</pdfrwt>
<pdfrwt beam="2">  1       -1 0.13216981E+00 0.16549626E+04</pdfrwt>
<totfact> 0.18354563E+01</totfact>
</mgrwt>
</event>
<event>
12    6  0.1586493E-007  0.2370206E+04  0.7818608E-02  0.8450743E-01
          2   -1    0    0  501    0  0.00000000000E+00  0.00000000000E+00  0.22237213704E+04  0.22237213704E+04  0.00000000000E+00 0. -1.
         -1   -1    0    0    0  501 -0.00000000000E+00 -0.00000000000E+00 -0.63158520309E+03  0.63158520309E+03  0.00000000000E+00 0.  1.
         24    2    1    2    0    0 -0.65102759095E+03  0.68013091009E+03  0.21370850330E+03  0.96845730556E+03  0.76310217349E+02 0.  0.
        254    2    1    2    0    0  0.65102759095E+03 -0.68013091009E+03  0.13784276640E+04  0.18868492679E+04  0.87961489068E+03 0.  0.
         23    2    4    4    0    0  0.69659995370E+03 -0.82275724766E+03  0.13036893225E+04  0.16941095935E+04  0.90666870168E+02 0.  0.
         23    2    4    4    0    0 -0.45572362745E+02  0.14262633757E+03  0.74738341552E+02  0.19273967439E+03  0.95622434457E+02 0.  0.
          4    1    3    3  502    0 -0.29428867410E+02  0.14527403107E+02  0.16049645981E+02  0.36533475255E+02  0.00000000000E+00 0. -1.
         -3    1    3    3    0  502 -0.62159872354E+03  0.66560350698E+03  0.19765885732E+03  0.93192383031E+03  0.00000000000E+00 0.  1.
         11    1    5    5    0    0  0.58537896205E+03 -0.71714217895E+03  0.10737447742E+04  0.14177056373E+04  0.00000000000E+00 0. -1.
        -11    1    5    5    0    0  0.11122099165E+03 -0.10561506871E+03  0.22994454830E+03  0.27640395622E+03  0.00000000000E+00 0.  1.
          1    1    6    6  503    0 -0.48110229037E+02  0.11716721999E+03  0.14741159072E+02  0.12751491422E+03  0.00000000000E+00 0. -1.
         -1    1    6    6    0  503  0.25378662918E+01  0.25459117576E+02  0.59997182481E+02  0.65224760166E+02  0.00000000000E+00 0.  1.
<mgrwt>
<rscale>  0 0.23702063E+04</rscale>
<asrwt>0</asrwt>
<pdfrwt beam="1">  1        2 0.34211098E+00 0.23702063E+04</pdfrwt>
<pdfrwt beam="2">  1       -1 0.97166956E-01 0.23702063E+04</pdfrwt>
<totfact> 0.52253361E+00</totfact>
</mgrwt>
</event>
<event>
12    6  0.1586493E-007  0.3450763E+04  0.7818608E-02  0.8125559E-01
         -1   -1    0    0    0  501 -0.00000000000E+00  0.00000000000E+00  0.12526310486E+04  0.12526310486E+04  0.00000000000E+00 0.  1.
          2   -1    0    0  501    0  0.00000000000E+00 -0.00000000000E+00 -0.23765502216E+04  0.23765502216E+04  0.00000000000E+00 0. -1.
         24    2    1    2    0    0  0.80173396636E+03 -0.75464520308E+03 -0.17529325616E+04  0.20715499767E+04  0.79246482615E+02 0.  0.
        254    2    1    2    0    0 -0.80173396636E+03  0.75464520308E+03  0.62901338869E+03  0.15576312935E+04  0.90459420069E+03 0.  0.
         23    2    4    4    0    0 -0.80117378001E+03  0.45205571483E+03  0.84622976026E+02  0.92832288528E+03  0.91588952286E+02 0.  0.
         23    2    4    4    0    0 -0.56018635959E+00  0.30258948825E+03  0.54439041267E+03  0.62930840821E+03  0.90041318429E+02 0.  0.
          4    1    3    3  502    0  0.50760418123E+03 -0.44185602468E+03 -0.11229915861E+04  0.13092016093E+04  0.00000000000E+00 0. -1.
         -3    1    3    3    0  502  0.29412978513E+03 -0.31278917840E+03 -0.62994097551E+03  0.76234836739E+03  0.00000000000E+00 0.  1.
         11    1    5    5    0    0 -0.78657123797E+03  0.42613657795E+03  0.79237388400E+02  0.89808978348E+03  0.00000000000E+00 0.  1.
        -11    1    5    5    0    0 -0.14602542038E+02  0.25919136875E+02  0.53855876259E+01  0.30233101799E+02  0.00000000000E+00 0. -1.
          3    1    6    6  503    0 -0.22659473451E+01 -0.38330594961E+01  0.31793947352E+02  0.32104235712E+02  0.00000000000E+00 0. -1.
         -3    1    6    6    0  503  0.17057609855E+01  0.30642254775E+03  0.51259646532E+03  0.59720417249E+03  0.00000000000E+00 0.  1.
<mgrwt>
<rscale>  0 0.34507626E+04</rscale>
<asrwt>0</asrwt>
<pdfrwt beam="1">  1        2 0.36562311E+00 0.34507626E+04</pdfrwt>
<pdfrwt beam="2">  1       -1 0.19271247E+00 0.34507626E+04</pdfrwt>
<totfact> 0.65028002E-01</totfact>
</mgrwt>
</event>
<event>
12    6  0.1586493E-007  0.1602401E+04  0.7818608E-02  0.8819074E-01
          2   -1    0    0  501    0  0.00000000000E+00  0.00000000000E+00  0.90095802316E+03  0.90095802316E+03  0.00000000000E+00 0. -1.
         -1   -1    0    0    0  501 -0.00000000000E+00 -0.00000000000E+00 -0.71248846496E+03  0.71248846496E+03  0.00000000000E+00 0.  1.
         24    2    1    2    0    0 -0.39243981267E+03  0.22504760183E+03  0.36929235509E+03  0.58944416807E+03  0.80075926978E+02 0.  0.
        254    2    1    2    0    0  0.39243981267E+03 -0.22504760183E+03 -0.18082279689E+03  0.10240023201E+04  0.90068220696E+03 0.  0.
         23    2    4    4    0    0  0.38702854691E+03  0.28499463952E+03 -0.10800971872E+03  0.50105035642E+03  0.91500380584E+02 0.  0.
         23    2    4    4    0    0  0.54112657581E+01 -0.51004224135E+03 -0.72813078172E+02  0.52295196364E+03  0.89468665820E+02 0.  0.
          2    1    3    3  502    0 -0.15566298626E+03  0.12222289528E+03  0.19593403606E+03  0.27849514880E+03  0.00000000000E+00 0. -1.
         -1    1    3    3    0  502 -0.23677682641E+03  0.10282470656E+03  0.17335831903E+03  0.31094901926E+03  0.00000000000E+00 0.  1.
         11    1    5    5    0    0  0.14221447548E+03  0.92617929061E+02 -0.82349510690E+02  0.18863848952E+03  0.00000000000E+00 0. -1.
        -11    1    5    5    0    0  0.24481407144E+03  0.19237671046E+03 -0.25660208032E+02  0.31241186689E+03  0.00000000000E+00 0.  1.
          4    1    6    6  503    0 -0.22374865684E+02 -0.39223714041E+03 -0.82792289366E+02  0.40150363898E+03  0.00000000000E+00 0.  1.
         -4    1    6    6    0  503  0.27786131442E+02 -0.11780510094E+03  0.99792111936E+01  0.12144832466E+03  0.00000000000E+00 0. -1.
<mgrwt>
<rscale>  0 0.16024009E+04</rscale>
<asrwt>0</asrwt>
<pdfrwt beam="1">  1        2 0.13860893E+00 0.16024009E+04</pdfrwt>
<pdfrwt beam="2">  1       -1 0.10961361E+00 0.16024009E+04</pdfrwt>
<totfact> 0.24660005E+01</totfact>
</mgrwt>
</event>
<event>
12    6  0.1586493E-007  0.3236437E+04  0.7818608E-02  0.8179260E-01
         -1   -1    0    0    0  501 -0.00000000000E+00  0.00000000000E+00  0.26125179491E+04  0.26125179491E+04  0.00000000000E+00 0.  1.
          2   -1    0    0  501    0  0.00000000000E+00 -0.00000000000E+00 -0.10023401656E+04  0.10023401656E+04  0.00000000000E+00 0. -1.
         24    2    1    2    0    0 -0.73712205385E+03 -0.76470838133E+03 -0.43162737578E+03  0.11493184243E+04  0.80640053474E+02 0.  0.
        254    2    1    2    0    0  0.73712205385E+03  0.76470838133E+03  0.20418051592E+04  0.24655396904E+04  0.88418879547E+03 0.  0.
         23    2    4    4    0    0  0.37830870179E+03  0.69279325266E+03  0.19064569520E+04  0.20653083912E+04  0.88547594308E+02 0.  0.
         23    2    4    4    0    0  0.35881335205E+03  0.71915128664E+02  0.13534820729E+03  0.40023129920E+03  0.89146779516E+02 0.  0.
          2    1    3    3  502    0 -0.56151636726E+03 -0.62724642121E+03 -0.32978787327E+03  0.90415637197E+03  0.00000000000E+00 0. -1.
         -1    1    3    3    0  502 -0.17560568659E+03 -0.13746196012E+03 -0.10183950250E+03  0.24516205235E+03  0.00000000000E+00 0.  1.
         11    1    5    5    0    0  0.34019671909E+03  0.65342104292E+03  0.17239422051E+04  0.18747452076E+04  0.00000000000E+00 0. -1.
        -11    1    5    5    0    0  0.38111982708E+02  0.39372209740E+02  0.18251474684E+03  0.19056318359E+03  0.00000000000E+00 0.  1.
          2    1    6    6  503    0  0.96787566337E+01  0.21792491213E+02  0.64469097705E+01  0.24701288405E+02  0.00000000000E+00 0.  1.
         -2    1    6    6    0  503  0.34913459542E+03  0.50122637451E+02  0.12890129752E+03  0.37553001079E+03  0.00000000000E+00 0. -1.
<mgrwt>
<rscale>  0 0.32364373E+04</rscale>
<asrwt>0</asrwt>
<pdfrwt beam="1">  1        2 0.15420618E+00 0.32364373E+04</pdfrwt>
<pdfrwt beam="2">  1       -1 0.40192583E+00 0.32364373E+04</pdfrwt>
<totfact> 0.16650714E-01</totfact>
</mgrwt>
</event>
<event>
12    6  0.1586493E-007  0.3493205E+04  0.7818608E-02  0.8115402E-01
          2   -1    0    0  501    0  0.00000000000E+00  0.00000000000E+00  0.34388904568E+04  0.34388904568E+04  0.00000000000E+00 0. -1.
         -1   -1    0    0    0  501 -0.00000000000E+00 -0.00000000000E+00 -0.88709436504E+03  0.88709436504E+03  0.00000000000E+00 0.  1.
         24    2    1    2    0    0  0.66204230763E+03  0.30081922929E+03 -0.61580188087E+03  0.95630856450E+03  0.80758208481E+02 0.  0.
        254    2    1    2    0    0 -0.66204230763E+03 -0.30081922929E+03  0.31675979726E+04  0.33696762573E+04  0.89008366871E+03 0.  0.
         23    2    4    4    0    0  0.19343025200E+02 -0.19155604137E+02 -0.19508047250E+02  0.96906697827E+02  0.90935440740E+02 0.  0.
         23    2    4    4    0    0 -0.68138533283E+03 -0.28166362515E+03  0.31871060199E+04  0.32727695595E+04  0.98769621977E+02 0.  0.
          4    1    3    3  502    0  0.14325491502E+03  0.10121079938E+03 -0.16116154005E+03  0.23819873757E+03  0.00000000000E+00 0. -1.
         -3    1    3    3    0  502  0.51878739262E+03  0.19960842991E+03 -0.45464034083E+03  0.71810982693E+03  0.00000000000E+00 0.  1.
         11    1    5    5    0    0 -0.32362007126E+02 -0.86239600277E+01 -0.27757707395E+02  0.43498994375E+02  0.00000000000E+00 0. -1.
        -11    1    5    5    0    0  0.51705032326E+02 -0.10531644110E+02  0.82496601453E+01  0.53407703452E+02  0.00000000000E+00 0.  1.
          3    1    6    6  503    0 -0.31527461460E+03 -0.15252875051E+03  0.17100914130E+04  0.17455875066E+04  0.00000000000E+00 0. -1.
         -3    1    6    6    0  503 -0.36611071823E+03 -0.12913487464E+03  0.14770146068E+04  0.15271820529E+04  0.00000000000E+00 0.  1.
<mgrwt>
<rscale>  0 0.34932050E+04</rscale>
<asrwt>0</asrwt>
<pdfrwt beam="1">  1        2 0.52906006E+00 0.34932050E+04</pdfrwt>
<pdfrwt beam="2">  1       -1 0.13647606E+00 0.34932050E+04</pdfrwt>
<totfact> 0.37425970E-01</totfact>
</mgrwt>
</event>
<event>
12    6  0.1586493E-007  0.2538840E+04  0.7818608E-02  0.8389278E-01
         -1   -1    0    0    0  501 -0.00000000000E+00  0.00000000000E+00  0.60895024224E+03  0.60895024224E+03  0.00000000000E+00 0.  1.
          2   -1    0    0  501    0  0.00000000000E+00 -0.00000000000E+00 -0.26462378256E+04  0.26462378256E+04  0.00000000000E+00 0. -1.
         24    2    1    2    0    0  0.30042903259E+03 -0.48595510633E+03 -0.21111270417E+04  0.21885223424E+04  0.79766459658E+02 0.  0.
        254    2    1    2    0    0 -0.30042903259E+03  0.48595510633E+03  0.73839458310E+02  0.10666657255E+04  0.89772687119E+03 0.  0.
         23    2    4    4    0    0 -0.77307037504E+02  0.54337857994E+03  0.37909686350E+03  0.67351413557E+03  0.93113907166E+02 0.  0.
         23    2    4    4    0    0 -0.22312199509E+03 -0.57423473608E+02 -0.30525740519E+03  0.39315158989E+03  0.91132920479E+02 0.  0.
          2    1    3    3  502    0  0.25262219846E+03 -0.45325363196E+03 -0.19070944922E+04  0.19764276441E+04  0.00000000000E+00 0. -1.
         -1    1    3    3    0  502  0.47806834130E+02 -0.32701474367E+02 -0.20403254944E+03  0.21209469829E+03  0.00000000000E+00 0.  1.
         11    1    5    5    0    0 -0.79580038022E+02  0.23148043995E+03  0.16483893270E+03  0.29510684551E+03  0.00000000000E+00 0. -1.
        -11    1    5    5    0    0  0.22730005171E+01  0.31189813998E+03  0.21425793080E+03  0.37840729006E+03  0.00000000000E+00 0.  1.
          4    1    6    6  503    0 -0.21403120664E+03 -0.50091182697E+02 -0.23442218222E+03  0.32135999053E+03  0.00000000000E+00 0.  1.
         -4    1    6    6    0  503 -0.90907884507E+01 -0.73322909111E+01 -0.70835222974E+02  0.71791599358E+02  0.00000000000E+00 0. -1.
<mgrwt>
<rscale>  0 0.25388400E+04</rscale>
<asrwt>0</asrwt>
<pdfrwt beam="1">  1        2 0.40711351E+00 0.25388400E+04</pdfrwt>
<pdfrwt beam="2">  1       -1 0.93684653E-01 0.25388400E+04</pdfrwt>
<totfact> 0.31918425E+00</totfact>
</mgrwt>
</event>
<event>
12    6  0.1586493E-007  0.2077824E+04  0.7818608E-02  0.8571075E-01
         -1   -1    0    0    0  501 -0.00000000000E+00  0.00000000000E+00  0.72098255636E+03  0.72098255636E+03  0.00000000000E+00 0.  1.
          2   -1    0    0  501    0  0.00000000000E+00 -0.00000000000E+00 -0.14970378112E+04  0.14970378112E+04  0.00000000000E+00 0. -1.
         24    2    1    2    0    0  0.21962593957E+03 -0.16941961265E+03  0.53110279310E+03  0.60462172638E+03  0.80985780799E+02 0.  0.
        254    2    1    2    0    0 -0.21962593957E+03  0.16941961265E+03 -0.13071580479E+04  0.16133986412E+04  0.90413187899E+03 0.  0.
         23    2    4    4    0    0 -0.75673772695E+02 -0.36107863318E+03 -0.61698160157E+03  0.72558897627E+03  0.98533073639E+02 0.  0.
         23    2    4    4    0    0 -0.14395216688E+03  0.53049824583E+03 -0.69017644634E+03  0.88780966489E+03  0.98548763661E+02 0.  0.
          4    1    3    3  502    0  0.11197307861E+03 -0.41992917233E+02  0.26212639133E+03  0.28811737272E+03  0.00000000000E+00 0. -1.
         -3    1    3    3    0  502  0.10765286096E+03 -0.12742669542E+03  0.26897640176E+03  0.31650435366E+03  0.00000000000E+00 0.  1.
         11    1    5    5    0    0 -0.24341187620E+02 -0.13221939294E+03 -0.32046649296E+03  0.34752443712E+03  0.00000000000E+00 0.  1.
        -11    1    5    5    0    0 -0.51332585074E+02 -0.22885924023E+03 -0.29651510861E+03  0.37806453915E+03  0.00000000000E+00 0. -1.
          1    1    6    6  503    0 -0.15125302265E+03  0.50690620004E+03 -0.67890143364E+03  0.86066168098E+03  0.00000000000E+00 0. -1.
         -1    1    6    6    0  503  0.73008557718E+01  0.23592045786E+02 -0.11275012700E+02  0.27147983917E+02  0.00000000000E+00 0.  1.
<mgrwt>
<rscale>  0 0.20778240E+04</rscale>
<asrwt>0</asrwt>
<pdfrwt beam="1">  1        2 0.23031351E+00 0.20778240E+04</pdfrwt>
<pdfrwt beam="2">  1       -1 0.11092039E+00 0.20778240E+04</pdfrwt>
<totfact> 0.10029396E+01</totfact>
</mgrwt>
</event>
<event>
12    6  0.1586493E-007  0.1556850E+04  0.7818608E-02  0.8847504E-01
          2   -1    0    0  501    0  0.00000000000E+00  0.00000000000E+00  0.10406335284E+04  0.10406335284E+04  0.00000000000E+00 0. -1.
         -1   -1    0    0    0  501 -0.00000000000E+00 -0.00000000000E+00 -0.58228515536E+03  0.58228515536E+03  0.00000000000E+00 0.  1.
         24    2    1    2    0    0  0.35959920431E+03  0.80626667610E+02 -0.21847611903E+03  0.43612297446E+03  0.81603841830E+02 0.  0.
        254    2    1    2    0    0 -0.35959920431E+03 -0.80626667610E+02  0.67682449202E+03  0.11867957092E+04  0.90254108783E+03 0.  0.
         23    2    4    4    0    0  0.16123368660E+03  0.26696847167E+03  0.33627839516E+03  0.46831347476E+03  0.94688357416E+02 0.  0.
         23    2    4    4    0    0 -0.52083289091E+03 -0.34759513928E+03  0.34054609685E+03  0.71848223448E+03  0.90309446243E+02 0.  0.
          4    1    3    3  502    0 -0.12934183546E+01  0.43604556715E+00 -0.13181442602E+02  0.13251924232E+02  0.00000000000E+00 0. -1.
         -3    1    3    3    0  502  0.36089262266E+03  0.80190622043E+02 -0.20529467643E+03  0.42287105023E+03  0.00000000000E+00 0.  1.
         11    1    5    5    0    0  0.11931106403E+02  0.35693878067E+02  0.95286905167E+02  0.10244998061E+03  0.00000000000E+00 0.  1.
        -11    1    5    5    0    0  0.14930258020E+03  0.23127459361E+03  0.24099149000E+03  0.36586349415E+03  0.00000000000E+00 0. -1.
          1    1    6    6  503    0 -0.47836121790E+03 -0.32866573481E+03  0.33860975600E+03  0.67194284496E+03  0.00000000000E+00 0. -1.
         -1    1    6    6    0  503 -0.42471673006E+02 -0.18929404471E+02  0.19363408561E+01  0.46539389526E+02  0.00000000000E+00 0.  1.
<mgrwt>
<rscale>  0 0.15568500E+04</rscale>
<asrwt>0</asrwt>
<pdfrwt beam="1">  1        2 0.16009747E+00 0.15568500E+04</pdfrwt>
<pdfrwt beam="2">  1       -1 0.89582332E-01 0.15568500E+04</pdfrwt>
<totfact> 0.31790467E+01</totfact>
</mgrwt>
</event>
<event>
12    6  0.1586493E-007  0.4356260E+04  0.7818608E-02  0.7936296E-01
          2   -1    0    0  501    0  0.00000000000E+00  0.00000000000E+00  0.47335753697E+04  0.47335753697E+04  0.00000000000E+00 0. -1.
         -1   -1    0    0    0  501 -0.00000000000E+00 -0.00000000000E+00 -0.10022550339E+04  0.10022550339E+04  0.00000000000E+00 0.  1.
         24    2    1    2    0    0 -0.10841323780E+04 -0.13251799687E+04  0.22068554690E+03  0.17279914252E+04  0.76205591490E+02 0.  0.
        254    2    1    2    0    0  0.10841323780E+04  0.13251799687E+04  0.35106347888E+04  0.40078389785E+04  0.89820470612E+03 0.  0.
         23    2    4    4    0    0  0.84448458370E+03  0.13478151244E+04  0.33385522752E+04  0.36991932079E+04  0.91319625149E+02 0.  0.
         23    2    4    4    0    0  0.23964779431E+03 -0.22635155669E+02  0.17208251369E+03  0.30864577054E+03  0.87786129695E+02 0.  0.
          2    1    3    3  502    0 -0.66478011396E+01 -0.14191536800E+02  0.84767850809E+01  0.17817094658E+02  0.00000000000E+00 0. -1.
         -1    1    3    3    0  502 -0.10774845769E+04 -0.13109884319E+04  0.21220876182E+03  0.17101743305E+04  0.00000000000E+00 0.  1.
         11    1    5    5    0    0  0.29101200398E+03  0.38572487421E+03  0.10211067268E+04  0.11296595118E+04  0.00000000000E+00 0. -1.
        -11    1    5    5    0    0  0.55347257972E+03  0.96209025021E+03  0.23174455483E+04  0.25695336961E+04  0.00000000000E+00 0.  1.
          1    1    6    6  503    0  0.83167047297E+02 -0.46077466398E+02  0.87580527159E+02  0.12926809120E+03  0.00000000000E+00 0. -1.
         -1    1    6    6    0  503  0.15648074701E+03  0.23442310729E+02  0.84501986532E+02  0.17937767934E+03  0.00000000000E+00 0.  1.
<mgrwt>
<rscale>  0 0.43562597E+04</rscale>
<asrwt>0</asrwt>
<pdfrwt beam="1">  1        2 0.72824235E+00 0.43562597E+04</pdfrwt>
<pdfrwt beam="2">  1       -1 0.15419309E+00 0.43562597E+04</pdfrwt>
<totfact> 0.19638610E-02</totfact>
</mgrwt>
</event>
<event>
12    6  0.1586493E-007  0.2887044E+04  0.7818608E-02  0.8276743E-01
          2   -1    0    0  501    0  0.00000000000E+00  0.00000000000E+00  0.14542321447E+04  0.14542321447E+04  0.00000000000E+00 0. -1.
         -1   -1    0    0    0  501 -0.00000000000E+00 -0.00000000000E+00 -0.14328910444E+04  0.14328910444E+04  0.00000000000E+00 0.  1.
         24    2    1    2    0    0  0.62598090966E+03 -0.11296817224E+04 -0.15814506706E+03  0.13036342234E+04  0.80121365003E+02 0.  0.
        254    2    1    2    0    0 -0.62598090966E+03  0.11296817224E+04  0.17948616742E+03  0.15834889657E+04  0.89843704675E+03 0.  0.
         23    2    4    4    0    0 -0.59800502729E+03  0.10834538189E+04  0.42825809650E+03  0.13127066539E+04  0.91167820981E+02 0.  0.
         23    2    4    4    0    0 -0.27975882369E+02  0.46227903435E+02 -0.24877192908E+03  0.27078231175E+03  0.92281734966E+02 0.  0.
          2    1    3    3  502    0  0.41316419061E+03 -0.78813143068E+03 -0.77729288243E+02  0.89325116439E+03  0.00000000000E+00 0. -1.
         -1    1    3    3    0  502  0.21281671905E+03 -0.34155029167E+03 -0.80415778821E+02  0.41038305902E+03  0.00000000000E+00 0.  1.
         11    1    5    5    0    0 -0.48311292245E+03  0.94188490171E+03  0.36624695880E+03  0.11201259299E+04  0.00000000000E+00 0.  1.
        -11    1    5    5    0    0 -0.11489210484E+03  0.14156891721E+03  0.62011137706E+02  0.19258072405E+03  0.00000000000E+00 0. -1.
          4    1    6    6  503    0 -0.43983758048E+02 -0.12690679905E+02 -0.11256597825E+03  0.12151840926E+03  0.00000000000E+00 0.  1.
         -4    1    6    6    0  503  0.16007875679E+02  0.58918583340E+02 -0.13620595083E+03  0.14926390249E+03  0.00000000000E+00 0. -1.
<mgrwt>
<rscale>  0 0.28870443E+04</rscale>
<asrwt>0</asrwt>
<pdfrwt beam="1">  1        2 0.22372802E+00 0.28870443E+04</pdfrwt>
<pdfrwt beam="2">  1       -1 0.22044478E+00 0.28870443E+04</pdfrwt>
<totfact> 0.14491379E+00</totfact>
</mgrwt>
</event>
<event>
12    6  0.1586493E-007  0.1345082E+04  0.7818608E-02  0.8994560E-01
         -3   -1    0    0    0  501 -0.00000000000E+00  0.00000000000E+00  0.26331057041E+03  0.26331057041E+03  0.00000000000E+00 0.  1.
          4   -1    0    0  501    0  0.00000000000E+00 -0.00000000000E+00 -0.17177856660E+04  0.17177856660E+04  0.00000000000E+00 0. -1.
         24    2    1    2    0    0 -0.28433505960E+03 -0.21559726732E+03 -0.49651044885E+03  0.61658603375E+03  0.79543091493E+02 0.  0.
        254    2    1    2    0    0  0.28433505960E+03  0.21559726732E+03 -0.95796464676E+03  0.13645102027E+04  0.90380485782E+03 0.  0.
         23    2    4    4    0    0 -0.30282783103E+03  0.18865566233E+03 -0.28351816253E+03  0.46503735835E+03  0.92636612625E+02 0.  0.
         23    2    4    4    0    0  0.58716289063E+03  0.26941604984E+02 -0.67444648423E+03  0.89947284434E+03  0.93205297042E+02 0.  0.
          2    1    3    3  502    0 -0.68469265468E+02 -0.61371513042E+02 -0.75573425943E+02  0.11902035807E+03  0.00000000000E+00 0. -1.
         -1    1    3    3    0  502 -0.21586579413E+03 -0.15422575428E+03 -0.42093702290E+03  0.49756567567E+03  0.00000000000E+00 0.  1.
         11    1    5    5    0    0 -0.78200532427E+02  0.64583743029E+02 -0.33625046967E+02  0.10685048862E+03  0.00000000000E+00 0. -1.
        -11    1    5    5    0    0 -0.22462729861E+03  0.12407191930E+03 -0.24989311557E+03  0.35818686973E+03  0.00000000000E+00 0.  1.
          4    1    6    6  503    0  0.14420740273E+03  0.30886776583E+02 -0.12226992691E+03  0.19157166543E+03  0.00000000000E+00 0. -1.
         -4    1    6    6    0  503  0.44295548790E+03 -0.39451715989E+01 -0.55217655732E+03  0.70790117891E+03  0.00000000000E+00 0.  1.
<mgrwt>
<rscale>  0 0.13450816E+04</rscale>
<asrwt>0</asrwt>
<pdfrwt beam="1">  1        4 0.26427472E+00 0.13450816E+04</pdfrwt>
<pdfrwt beam="2">  1       -3 0.40509318E-01 0.13450816E+04</pdfrwt>
<totfact> 0.70053687E-01</totfact>
</mgrwt>
</event>
<event>
12    6  0.1586493E-007  0.1507306E+04  0.7818608E-02  0.8879609E-01
         -1   -1    0    0    0  501 -0.00000000000E+00  0.00000000000E+00  0.60672064326E+03  0.60672064326E+03  0.00000000000E+00 0.  1.
          2   -1    0    0  501    0  0.00000000000E+00 -0.00000000000E+00 -0.93616887868E+03  0.93616887868E+03  0.00000000000E+00 0. -1.
         24    2    1    2    0    0  0.20417280085E+03 -0.28422434110E+03 -0.39746441515E+03  0.53560631973E+03  0.80163331647E+02 0.  0.
        254    2    1    2    0    0 -0.20417280085E+03  0.28422434110E+03  0.68016179736E+02  0.10072832022E+04  0.94208451855E+03 0.  0.
         23    2    4    4    0    0  0.28034528644E+03 -0.91054103601E+02 -0.15877382677E+03  0.34746326098E+03  0.92936861667E+02 0.  0.
         23    2    4    4    0    0 -0.48451808728E+03  0.37527844470E+03  0.22679000651E+03  0.65981994123E+03  0.91306953948E+02 0.  0.
          2    1    3    3  502    0  0.19598242842E+03 -0.28841720031E+03 -0.37920881238E+03  0.51516300049E+03  0.00000000000E+00 0. -1.
         -1    1    3    3    0  502  0.81903724269E+01  0.41928592157E+01 -0.18255602771E+02  0.20443319237E+02  0.00000000000E+00 0.  1.
         11    1    5    5    0    0  0.28571958021E+01  0.44364788541E+01 -0.23933169562E+02  0.24508009257E+02  0.00000000000E+00 0. -1.
        -11    1    5    5    0    0  0.27748809063E+03 -0.95490582456E+02 -0.13484065721E+03  0.32295525173E+03  0.00000000000E+00 0.  1.
          1    1    6    6  503    0 -0.21160446266E+03  0.19216821043E+03  0.14788157783E+03  0.32182919504E+03  0.00000000000E+00 0. -1.
         -1    1    6    6    0  503 -0.27291362462E+03  0.18311023427E+03  0.78908428681E+02  0.33799074619E+03  0.00000000000E+00 0.  1.
<mgrwt>
<rscale>  0 0.15073062E+04</rscale>
<asrwt>0</asrwt>
<pdfrwt beam="1">  1        2 0.14402598E+00 0.15073062E+04</pdfrwt>
<pdfrwt beam="2">  1       -1 0.93341638E-01 0.15073062E+04</pdfrwt>
<totfact> 0.34045955E+01</totfact>
</mgrwt>
</event>
<event>
12    6  0.1586493E-007  0.2089707E+04  0.7818608E-02  0.8565791E-01
         -1   -1    0    0    0  501 -0.00000000000E+00  0.00000000000E+00  0.63946601182E+03  0.63946601182E+03  0.00000000000E+00 0.  1.
          2   -1    0    0  501    0  0.00000000000E+00 -0.00000000000E+00 -0.17072343466E+04  0.17072343466E+04  0.00000000000E+00 0. -1.
         24    2    1    2    0    0 -0.53969428726E+03 -0.77159942882E+01 -0.11715235035E+04  0.12920142775E+04  0.74189715817E+02 0.  0.
        254    2    1    2    0    0  0.53969428726E+03  0.77159942882E+01  0.10375516869E+03  0.10546860809E+04  0.90014895095E+03 0.  0.
         23    2    4    4    0    0  0.62610056697E+03 -0.15947126627E+03 -0.20344341462E+03  0.68312530714E+03  0.88532240373E+02 0.  0.
         23    2    4    4    0    0 -0.86406279702E+02  0.16718726055E+03  0.30719858331E+03  0.37156077374E+03  0.90933017844E+02 0.  0.
          2    1    3    3  502    0 -0.51581974209E+03 -0.27782309688E+01 -0.10734292034E+04  0.11909357579E+04  0.00000000000E+00 0. -1.
         -1    1    3    3    0  502 -0.23874545178E+02 -0.49377633194E+01 -0.98094300101E+02  0.10107851961E+03  0.00000000000E+00 0.  1.
         11    1    5    5    0    0  0.57749985887E+02 -0.18898277578E+02  0.65784990595E+01  0.61118593040E+02  0.00000000000E+00 0. -1.
        -11    1    5    5    0    0  0.56835058108E+03 -0.14057298869E+03 -0.21002191368E+03  0.62200671410E+03  0.00000000000E+00 0.  1.
          3    1    6    6  503    0 -0.23704010415E+02  0.70536483364E+02  0.20304706144E+03  0.21625305722E+03  0.00000000000E+00 0. -1.
         -3    1    6    6    0  503 -0.62702269287E+02  0.96650777190E+02  0.10415152186E+03  0.15530771652E+03  0.00000000000E+00 0.  1.
<mgrwt>
<rscale>  0 0.20897065E+04</rscale>
<asrwt>0</asrwt>
<pdfrwt beam="1">  1        2 0.26265143E+00 0.20897065E+04</pdfrwt>
<pdfrwt beam="2">  1       -1 0.98379388E-01 0.20897065E+04</pdfrwt>
<totfact> 0.10096973E+01</totfact>
</mgrwt>
</event>
<event>
12    6  0.1586493E-007  0.1342011E+04  0.7818608E-02  0.8996898E-01
          2   -1    0    0  501    0  0.00000000000E+00  0.00000000000E+00  0.24272418112E+04  0.24272418112E+04  0.00000000000E+00 0. -1.
         -1   -1    0    0    0  501 -0.00000000000E+00 -0.00000000000E+00 -0.18549798507E+03  0.18549798507E+03  0.00000000000E+00 0.  1.
         24    2    1    2    0    0  0.71453745633E+02  0.25403419315E+03  0.13216682643E+04  0.13500864548E+04  0.79293287462E+02 0.  0.
        254    2    1    2    0    0 -0.71453745633E+02 -0.25403419315E+03  0.92007556185E+03  0.12626533415E+04  0.82347763316E+03 0.  0.
         23    2    4    4    0    0  0.76974762436E+02  0.26780594355E+03  0.46017469715E+03  0.54564432706E+03  0.91224132217E+02 0.  0.
         23    2    4    4    0    0 -0.14842850807E+03 -0.52184013670E+03  0.45990086470E+03  0.71700901447E+03  0.90801823750E+02 0.  0.
          2    1    3    3  502    0  0.70866982082E+02  0.22147220689E+03  0.12488920696E+04  0.12703556467E+04  0.00000000000E+00 0. -1.
         -1    1    3    3    0  502  0.58676355108E+00  0.32561986264E+02  0.72776194649E+02  0.79730808027E+02  0.00000000000E+00 0.  1.
         11    1    5    5    0    0  0.82467682333E+02  0.26424560457E+03  0.46223345540E+03  0.53878235444E+03  0.00000000000E+00 0.  1.
        -11    1    5    5    0    0 -0.54929198968E+01  0.35603389896E+01 -0.20587582510E+01  0.68619726209E+01  0.00000000000E+00 0. -1.
          1    1    6    6  503    0  0.73288212503E+01 -0.42880975252E+02  0.58881624106E+02  0.73208847258E+02  0.00000000000E+00 0. -1.
         -1    1    6    6    0  503 -0.15575732932E+03 -0.47895916145E+03  0.40101924059E+03  0.64380016721E+03  0.00000000000E+00 0.  1.
<mgrwt>
<rscale>  0 0.13420111E+04</rscale>
<asrwt>0</asrwt>
<pdfrwt beam="1">  1        2 0.37342179E+00 0.13420111E+04</pdfrwt>
<pdfrwt beam="2">  1       -1 0.28538153E-01 0.13420111E+04</pdfrwt>
<totfact> 0.47713407E+01</totfact>
</mgrwt>
</event>
<event>
12    6  0.1586493E-007  0.1501635E+04  0.7818608E-02  0.8883366E-01
          2   -1    0    0  501    0  0.00000000000E+00  0.00000000000E+00  0.99317170358E+03  0.99317170358E+03  0.00000000000E+00 0. -1.
         -1   -1    0    0    0  501 -0.00000000000E+00 -0.00000000000E+00 -0.56760294079E+03  0.56760294079E+03  0.00000000000E+00 0.  1.
         24    2    1    2    0    0 -0.28030379610E+03 -0.20880179599E+03 -0.18136002132E+03  0.40168037694E+03  0.79292242805E+02 0.  0.
        254    2    1    2    0    0  0.28030379610E+03  0.20880179599E+03  0.60692878411E+03  0.11590942674E+04  0.92356297224E+03 0.  0.
         23    2    4    4    0    0 -0.29602131575E+03 -0.41254067295E+02  0.52372179799E+02  0.31630947427E+03  0.89321446749E+02 0.  0.
         23    2    4    4    0    0  0.57632511185E+03  0.25005586328E+03  0.55455660431E+03  0.84278479317E+03  0.89858838731E+02 0.  0.
          2    1    3    3  502    0 -0.19791478892E+03 -0.11782909233E+03 -0.84559574699E+02  0.24536560547E+03  0.00000000000E+00 0. -1.
         -1    1    3    3    0  502 -0.82389007183E+02 -0.90972703655E+02 -0.96800446620E+02  0.15631477147E+03  0.00000000000E+00 0.  1.
         11    1    5    5    0    0 -0.14149006073E+03 -0.41559263323E+02  0.65217528981E+02  0.16124495570E+03  0.00000000000E+00 0. -1.
        -11    1    5    5    0    0 -0.15453125502E+03  0.30519602809E+00 -0.12845349182E+02  0.15506451857E+03  0.00000000000E+00 0.  1.
          2    1    6    6  503    0  0.10231978245E+03  0.70313883918E+02  0.14640379341E+03  0.19195689849E+03  0.00000000000E+00 0.  1.
         -2    1    6    6    0  503  0.47400532940E+03  0.17974197937E+03  0.40815281090E+03  0.65082789468E+03  0.00000000000E+00 0. -1.
<mgrwt>
<rscale>  0 0.15016353E+04</rscale>
<asrwt>0</asrwt>
<pdfrwt beam="1">  1        2 0.15279565E+00 0.15016353E+04</pdfrwt>
<pdfrwt beam="2">  1       -1 0.87323529E-01 0.15016353E+04</pdfrwt>
<totfact> 0.36214152E+01</totfact>
</mgrwt>
</event>
<event>
12    6  0.1586493E-007  0.2740516E+04  0.7818608E-02  0.8321977E-01
         -1   -1    0    0    0  501 -0.00000000000E+00  0.00000000000E+00  0.74588914277E+03  0.74588914277E+03  0.00000000000E+00 0.  1.
          2   -1    0    0  501    0  0.00000000000E+00 -0.00000000000E+00 -0.25172744283E+04  0.25172744283E+04  0.00000000000E+00 0. -1.
         24    2    1    2    0    0 -0.63637487599E+03  0.10256067114E+04 -0.58381027627E+03  0.13432735555E+04  0.81898089109E+02 0.  0.
        254    2    1    2    0    0  0.63637487599E+03 -0.10256067114E+04 -0.11875750092E+04  0.19198900155E+04  0.90487632294E+03 0.  0.
         23    2    4    4    0    0  0.35775408369E+03 -0.62144260109E+01 -0.60589353309E+03  0.71018851822E+03  0.96094508076E+02 0.  0.
         23    2    4    4    0    0  0.27862079231E+03 -0.10193922854E+04 -0.58168147614E+03  0.12097014973E+04  0.90742467546E+02 0.  0.
          4    1    3    3  502    0 -0.95980420682E+02  0.13670201386E+03 -0.51984971687E+02  0.17493461358E+03  0.00000000000E+00 0. -1.
         -3    1    3    3    0  502 -0.54039445531E+03  0.88890469756E+03 -0.53182530459E+03  0.11683389419E+04  0.00000000000E+00 0.  1.
         11    1    5    5    0    0 -0.24358632863E+01 -0.43237609698E+01 -0.33696390202E+02  0.34059874508E+02  0.00000000000E+00 0.  1.
        -11    1    5    5    0    0  0.36018994697E+03 -0.18906650411E+01 -0.57219714289E+03  0.67612864371E+03  0.00000000000E+00 0. -1.
          2    1    6    6  503    0  0.12871559247E+03 -0.42938747191E+03 -0.29658767136E+03  0.53749935030E+03  0.00000000000E+00 0. -1.
         -2    1    6    6    0  503  0.14990519983E+03 -0.59000481351E+03 -0.28509380478E+03  0.67220214699E+03  0.00000000000E+00 0.  1.
<mgrwt>
<rscale>  0 0.27405165E+04</rscale>
<asrwt>0</asrwt>
<pdfrwt beam="1">  1        2 0.38727299E+00 0.27405165E+04</pdfrwt>
<pdfrwt beam="2">  1       -1 0.11475218E+00 0.27405165E+04</pdfrwt>
<totfact> 0.23326395E+00</totfact>
</mgrwt>
</event>
<event>
12    6  0.1586493E-007  0.1032402E+04  0.7818608E-02  0.9273704E-01
          2   -1    0    0  501    0  0.00000000000E+00  0.00000000000E+00  0.93125771354E+03  0.93125771354E+03  0.00000000000E+00 0. -1.
         -1   -1    0    0    0  501 -0.00000000000E+00 -0.00000000000E+00 -0.28613264732E+03  0.28613264732E+03  0.00000000000E+00 0.  1.
         24    2    1    2    0    0  0.46106073743E+02  0.35445330436E+02  0.16268719915E+03  0.18890967344E+03  0.76404178336E+02 0.  0.
        254    2    1    2    0    0 -0.46106073743E+02 -0.35445330436E+02  0.48243786707E+03  0.10284806874E+04  0.90644585461E+03 0.  0.
         23    2    4    4    0    0 -0.21745495195E+03  0.15686586167E+03 -0.16377143298E+03  0.32709182315E+03  0.90963859981E+02 0.  0.
         23    2    4    4    0    0  0.17134887821E+03 -0.19231119210E+03  0.64620930005E+03  0.70138886428E+03  0.89531261528E+02 0.  0.
          2    1    3    3  502    0  0.21252250072E+02  0.41073199289E+02  0.15579098660E+03  0.16250999150E+03  0.00000000000E+00 0. -1.
         -1    1    3    3    0  502  0.24853823671E+02 -0.56278688531E+01  0.68962125493E+01  0.26399681938E+02  0.00000000000E+00 0.  1.
         11    1    5    5    0    0 -0.17250610994E+03  0.15043164065E+03 -0.10239401813E+03  0.25074403567E+03  0.00000000000E+00 0.  1.
        -11    1    5    5    0    0 -0.44948842011E+02  0.64342210161E+01 -0.61377414852E+02  0.76347787474E+02  0.00000000000E+00 0. -1.
          2    1    6    6  503    0  0.49735215134E+01 -0.17808168910E+02  0.99894472784E+01  0.21015609748E+02  0.00000000000E+00 0. -1.
         -2    1    6    6    0  503  0.16637535670E+03 -0.17450302319E+03  0.63621985277E+03  0.68037325453E+03  0.00000000000E+00 0.  1.
<mgrwt>
<rscale>  0 0.10324015E+04</rscale>
<asrwt>0</asrwt>
<pdfrwt beam="1">  1        2 0.14327042E+00 0.10324015E+04</pdfrwt>
<pdfrwt beam="2">  1       -1 0.44020408E-01 0.10324015E+04</pdfrwt>
<totfact> 0.16195437E+02</totfact>
</mgrwt>
</event>
<event>
12    6  0.1586493E-007  0.1773506E+04  0.7818608E-02  0.8720517E-01
          2   -1    0    0  501    0  0.00000000000E+00  0.00000000000E+00  0.12005752053E+04  0.12005752053E+04  0.00000000000E+00 0. -1.
         -1   -1    0    0    0  501 -0.00000000000E+00 -0.00000000000E+00 -0.65496196100E+03  0.65496196100E+03  0.00000000000E+00 0.  1.
         24    2    1    2    0    0  0.24464662681E+03 -0.25961826906E+03  0.81941769263E+03  0.89716644782E+03  0.78795066228E+02 0.  0.
        254    2    1    2    0    0 -0.24464662681E+03  0.25961826906E+03 -0.27380444832E+03  0.95837071849E+03  0.84631669043E+03 0.  0.
         23    2    4    4    0    0 -0.40520619850E+03  0.21747970989E+03  0.15082204773E+03  0.49271668478E+03  0.92373989081E+02 0.  0.
         23    2    4    4    0    0  0.16055957169E+03  0.42138559170E+02 -0.42462649605E+03  0.46565403371E+03  0.94715277199E+02 0.  0.
          4    1    3    3  502    0  0.19200827202E+03 -0.15509128471E+03  0.51708338313E+03  0.57297094885E+03  0.00000000000E+00 0. -1.
         -3    1    3    3    0  502  0.52638354790E+02 -0.10452698435E+03  0.30233430950E+03  0.32419549897E+03  0.00000000000E+00 0.  1.
         11    1    5    5    0    0 -0.34511550680E+03  0.20400286565E+03  0.15758959937E+03  0.43076253790E+03  0.00000000000E+00 0. -1.
        -11    1    5    5    0    0 -0.60090691703E+02  0.13476844240E+02 -0.67675516474E+01  0.61954146878E+02  0.00000000000E+00 0.  1.
          1    1    6    6  503    0  0.14610932923E+03  0.68170991700E+02 -0.35244117129E+03  0.38756934788E+03  0.00000000000E+00 0. -1.
         -1    1    6    6    0  503  0.14450242459E+02 -0.26032432529E+02 -0.72185324763E+02  0.78084685833E+02  0.00000000000E+00 0.  1.
<mgrwt>
<rscale>  0 0.17735062E+04</rscale>
<asrwt>0</asrwt>
<pdfrwt beam="1">  1        2 0.18470388E+00 0.17735062E+04</pdfrwt>
<pdfrwt beam="2">  1       -1 0.10076338E+00 0.17735062E+04</pdfrwt>
<totfact> 0.19124342E+01</totfact>
</mgrwt>
</event>
<event>
12    6  0.1586493E-007  0.1705028E+04  0.7818608E-02  0.8758502E-01
          2   -1    0    0  501    0  0.00000000000E+00  0.00000000000E+00  0.54456149103E+03  0.54456149103E+03  0.00000000000E+00 0. -1.
         -1   -1    0    0    0  501 -0.00000000000E+00 -0.00000000000E+00 -0.13346151277E+04  0.13346151277E+04  0.00000000000E+00 0.  1.
         24    2    1    2    0    0  0.13688123338E+03 -0.54519632459E+03 -0.55132778155E+03  0.79127036149E+03  0.78555444477E+02 0.  0.
        254    2    1    2    0    0 -0.13688123338E+03  0.54519632459E+03 -0.23872585508E+03  0.10879062572E+04  0.90031910243E+03 0.  0.
         23    2    4    4    0    0  0.37227255808E+03  0.15992065001E+03 -0.78667211134E+02  0.42309766094E+03  0.93067871920E+02 0.  0.
         23    2    4    4    0    0 -0.50915379147E+03  0.38527567458E+03 -0.16005864394E+03  0.66480859627E+03  0.93149188842E+02 0.  0.
          2    1    3    3  502    0  0.77458152725E+02 -0.36769894983E+03 -0.41407893765E+03  0.55916334799E+03  0.00000000000E+00 0. -1.
         -1    1    3    3    0  502  0.59423080660E+02 -0.17749737477E+03 -0.13724884390E+03  0.23210701350E+03  0.00000000000E+00 0.  1.
         11    1    5    5    0    0  0.25359694494E+03  0.67810633837E+02 -0.74251547194E+02  0.27280576387E+03  0.00000000000E+00 0. -1.
        -11    1    5    5    0    0  0.11867561315E+03  0.92110016177E+02 -0.44156639403E+01  0.15029189707E+03  0.00000000000E+00 0.  1.
          1    1    6    6  503    0 -0.41318374601E+03  0.34369146118E+03 -0.15803825975E+03  0.56019703677E+03  0.00000000000E+00 0. -1.
         -1    1    6    6    0  503 -0.95970045458E+02  0.41584213392E+02 -0.20203841953E+01  0.10461155950E+03  0.00000000000E+00 0.  1.
<mgrwt>
<rscale>  0 0.17050279E+04</rscale>
<asrwt>0</asrwt>
<pdfrwt beam="1">  1        2 0.83778691E-01 0.17050279E+04</pdfrwt>
<pdfrwt beam="2">  1       -1 0.20532540E+00 0.17050279E+04</pdfrwt>
<totfact> 0.83744527E+00</totfact>
</mgrwt>
</event>
<event>
12    6  0.1586493E-007  0.1707152E+04  0.7818608E-02  0.8757296E-01
          2   -1    0    0  501    0  0.00000000000E+00  0.00000000000E+00  0.19046868737E+04  0.19046868737E+04  0.00000000000E+00 0. -1.
         -1   -1    0    0    0  501 -0.00000000000E+00 -0.00000000000E+00 -0.38252569630E+03  0.38252569630E+03  0.00000000000E+00 0.  1.
         24    2    1    2    0    0  0.43106320312E+03  0.36921730425E+03  0.85357163216E+03  0.10282909035E+04  0.81613406489E+02 0.  0.
        254    2    1    2    0    0 -0.43106320312E+03 -0.36921730425E+03  0.66858954529E+03  0.12589216666E+04  0.90318042473E+03 0.  0.
         23    2    4    4    0    0 -0.12033076351E+03  0.28416527676E+03  0.30790792105E+03  0.44513732240E+03  0.90058596397E+02 0.  0.
         23    2    4    4    0    0 -0.31073243960E+03 -0.65338258101E+03  0.36068162424E+03  0.81378434416E+03  0.93221663469E+02 0.  0.
          4    1    3    3  502    0  0.41078185163E+03  0.32596134039E+03  0.79953383310E+03  0.95616257788E+03  0.00000000000E+00 0. -1.
         -3    1    3    3    0  502  0.20281351485E+02  0.43255963864E+02  0.54037799061E+02  0.72128325609E+02  0.00000000000E+00 0.  1.
         11    1    5    5    0    0 -0.11121140320E+02  0.12812630666E+03  0.15117854373E+03  0.19848169262E+03  0.00000000000E+00 0.  1.
        -11    1    5    5    0    0 -0.10920962319E+03  0.15603897010E+03  0.15672937732E+03  0.24665562978E+03  0.00000000000E+00 0. -1.
          3    1    6    6  503    0 -0.13282493452E+03 -0.33786197023E+03  0.22431559093E+03  0.42674425420E+03  0.00000000000E+00 0. -1.
         -3    1    6    6    0  503 -0.17790750509E+03 -0.31552061078E+03  0.13636603330E+03  0.38704008995E+03  0.00000000000E+00 0.  1.
<mgrwt>
<rscale>  0 0.17071516E+04</rscale>
<asrwt>0</asrwt>
<pdfrwt beam="1">  1        2 0.29302874E+00 0.17071516E+04</pdfrwt>
<pdfrwt beam="2">  1       -1 0.58850108E-01 0.17071516E+04</pdfrwt>
<totfact> 0.23927227E+01</totfact>
</mgrwt>
</event>
<event>
12    6  0.1586493E-007  0.1420695E+04  0.7818608E-02  0.8938973E-01
         -1   -1    0    0    0  501 -0.00000000000E+00  0.00000000000E+00  0.65309827634E+03  0.65309827634E+03  0.00000000000E+00 0.  1.
          2   -1    0    0  501    0  0.00000000000E+00 -0.00000000000E+00 -0.77261554136E+03  0.77261554136E+03  0.00000000000E+00 0. -1.
         24    2    1    2    0    0  0.43288274418E+02  0.40195412224E+03 -0.11700096787E+03  0.43048206151E+03  0.90468711248E+02 0.  0.
        254    2    1    2    0    0 -0.43288274418E+02 -0.40195412224E+03 -0.25162971523E+01  0.99523175619E+03  0.90941680526E+03 0.  0.
         23    2    4    4    0    0  0.20102853562E+03 -0.40619879694E+03  0.33460869079E+03  0.57040999320E+03  0.89412804597E+02 0.  0.
         23    2    4    4    0    0 -0.24431681004E+03  0.42446746985E+01 -0.33712498794E+03  0.42482176299E+03  0.84330017704E+02 0.  0.
          4    1    3    3  502    0  0.32098171020E+02  0.14996727411E+03 -0.87389746291E+02  0.17651471226E+03  0.00000000000E+00 0. -1.
         -1    1    3    3    0  502  0.11190103399E+02  0.25198684813E+03 -0.29611221577E+02  0.25396734925E+03  0.00000000000E+00 0.  1.
         11    1    5    5    0    0  0.58000617659E+02 -0.15724808825E+03  0.76113145870E+02  0.18407673368E+03  0.00000000000E+00 0. -1.
        -11    1    5    5    0    0  0.14302791796E+03 -0.24895070869E+03  0.25849554492E+03  0.38633325953E+03  0.00000000000E+00 0.  1.
          1    1    6    6  503    0 -0.33266800775E+02  0.14230016925E+02 -0.14098489529E+02  0.38832213721E+02  0.00000000000E+00 0. -1.
         -1    1    6    6    0  503 -0.21105000926E+03 -0.99853422265E+01 -0.32302649841E+03  0.38598954927E+03  0.00000000000E+00 0.  1.
<mgrwt>
<rscale>  0 0.14206954E+04</rscale>
<asrwt>0</asrwt>
<pdfrwt beam="1">  1        2 0.11886393E+00 0.14206954E+04</pdfrwt>
<pdfrwt beam="2">  1       -1 0.10047666E+00 0.14206954E+04</pdfrwt>
<totfact> 0.37753976E+01</totfact>
</mgrwt>
</event>
<event>
12    6  0.1586493E-007  0.1940331E+04  0.7818608E-02  0.8635037E-01
          2   -1    0    0  501    0  0.00000000000E+00  0.00000000000E+00  0.97414318215E+03  0.97414318215E+03  0.00000000000E+00 0. -1.
         -1   -1    0    0    0  501 -0.00000000000E+00 -0.00000000000E+00 -0.96620446319E+03  0.96620446319E+03  0.00000000000E+00 0.  1.
         24    2    1    2    0    0  0.14756003090E+03 -0.51451602633E+03 -0.53622818131E+03  0.76194131767E+03  0.80704430270E+02 0.  0.
        254    2    1    2    0    0 -0.14756003090E+03  0.51451602633E+03  0.54416690026E+03  0.11784063277E+04  0.89778792244E+03 0.  0.
         23    2    4    4    0    0 -0.12867883522E+03  0.61540692930E+03  0.71649655990E+03  0.95761284010E+03  0.91493715115E+02 0.  0.
         23    2    4    4    0    0 -0.18881195688E+02 -0.10089090297E+03 -0.17232965964E+03  0.22079348757E+03  0.92286395045E+02 0.  0.
          2    1    3    3  502    0  0.42585117828E+02 -0.22170639215E+03 -0.17785890366E+03  0.28740390776E+03  0.00000000000E+00 0. -1.
         -1    1    3    3    0  502  0.10497491308E+03 -0.29280963418E+03 -0.35836927765E+03  0.47453740991E+03  0.00000000000E+00 0.  1.
         11    1    5    5    0    0  0.22099422585E+01  0.55922401148E+01 -0.18425873860E+01  0.62890478264E+01  0.00000000000E+00 0. -1.
        -11    1    5    5    0    0 -0.13088877747E+03  0.60981468919E+03  0.71833914729E+03  0.95132379227E+03  0.00000000000E+00 0.  1.
          3    1    6    6  503    0  0.10934434535E+02  0.11010706034E+02 -0.49958947273E+02  0.52313420062E+02  0.00000000000E+00 0. -1.
         -3    1    6    6    0  503 -0.29815630223E+02 -0.11190160901E+03 -0.12237071237E+03  0.16848006751E+03  0.00000000000E+00 0.  1.
<mgrwt>
<rscale>  0 0.19403314E+04</rscale>
<asrwt>0</asrwt>
<pdfrwt beam="1">  1        2 0.14986818E+00 0.19403314E+04</pdfrwt>
<pdfrwt beam="2">  1       -1 0.14864684E+00 0.19403314E+04</pdfrwt>
<totfact> 0.99685255E+00</totfact>
</mgrwt>
</event>
<event>
12    6  0.1586493E-007  0.1679874E+04  0.7818608E-02  0.8772927E-01
          2   -1    0    0  501    0  0.00000000000E+00  0.00000000000E+00  0.93772597889E+03  0.93772597889E+03  0.00000000000E+00 0. -1.
         -1   -1    0    0    0  501 -0.00000000000E+00 -0.00000000000E+00 -0.75234590099E+03  0.75234590099E+03  0.00000000000E+00 0.  1.
         24    2    1    2    0    0  0.10152251867E+03 -0.60302483327E+03  0.19551751536E+03  0.64657409877E+03  0.76715024981E+02 0.  0.
        254    2    1    2    0    0 -0.10152251867E+03  0.60302483327E+03 -0.10137437465E+02  0.10434977811E+04  0.84548156704E+03 0.  0.
         23    2    4    4    0    0  0.95963457948E+02 -0.17030961934E+03  0.89547881424E+02  0.23348897215E+03  0.91016071907E+02 0.  0.
         23    2    4    4    0    0 -0.19748597662E+03  0.77333445260E+03 -0.99685318889E+02  0.81000880896E+03  0.95552191201E+02 0.  0.
          2    1    3    3  502    0  0.51825368796E+02 -0.31576983965E+03  0.14241466072E+03  0.35025475881E+03  0.00000000000E+00 0. -1.
         -1    1    3    3    0  502  0.49697149875E+02 -0.28725499362E+03  0.53102854645E+02  0.29631933996E+03  0.00000000000E+00 0.  1.
         11    1    5    5    0    0 -0.15154447197E+02 -0.42432519415E+02  0.91834662088E+01  0.45983823519E+02  0.00000000000E+00 0. -1.
        -11    1    5    5    0    0  0.11111790515E+03 -0.12787709992E+03  0.80364415216E+02  0.18750514863E+03  0.00000000000E+00 0.  1.
          3    1    6    6  503    0 -0.84917193703E+02  0.44196708848E+03 -0.16813847032E+02  0.45036489932E+03  0.00000000000E+00 0. -1.
         -3    1    6    6    0  503 -0.11256878292E+03  0.33136736412E+03 -0.82871471858E+02  0.35964390964E+03  0.00000000000E+00 0.  1.
<mgrwt>
<rscale>  0 0.16798742E+04</rscale>
<asrwt>0</asrwt>
<pdfrwt beam="1">  1        2 0.14426554E+00 0.16798742E+04</pdfrwt>
<pdfrwt beam="2">  1       -1 0.11574552E+00 0.16798742E+04</pdfrwt>
<totfact> 0.20335237E+01</totfact>
</mgrwt>
</event>
<event>
12    6  0.1586493E-007  0.1732238E+04  0.7818608E-02  0.8743188E-01
         -1   -1    0    0    0  501 -0.00000000000E+00  0.00000000000E+00  0.34117098095E+04  0.34117098095E+04  0.00000000000E+00 0.  1.
          2   -1    0    0  501    0  0.00000000000E+00 -0.00000000000E+00 -0.21987864820E+03  0.21987864820E+03  0.00000000000E+00 0. -1.
         24    2    1    2    0    0  0.23969275179E+03  0.28559732282E+03  0.21126319449E+04  0.21467361525E+04  0.79018526789E+02 0.  0.
        254    2    1    2    0    0 -0.23969275179E+03 -0.28559732282E+03  0.10791992164E+04  0.14848523052E+04  0.94926127786E+03 0.  0.
         23    2    4    4    0    0 -0.53763146251E+03 -0.19758857580E+03  0.99044107850E+03  0.11478191571E+04  0.91795711102E+02 0.  0.
         23    2    4    4    0    0  0.29793871072E+03 -0.88008747020E+02  0.88758137904E+02  0.33703314818E+03  0.95918303934E+02 0.  0.
          4    1    3    3  502    0  0.36323921952E+02  0.86238370649E+02  0.41846178119E+03  0.42879685889E+03  0.00000000000E+00 0. -1.
         -3    1    3    3    0  502  0.20336882984E+03  0.19935895218E+03  0.16941701637E+04  0.17179392936E+04  0.00000000000E+00 0.  1.
         11    1    5    5    0    0 -0.65454837648E+02 -0.56284255097E+02  0.17158016560E+03  0.19207291941E+03  0.00000000000E+00 0.  1.
        -11    1    5    5    0    0 -0.47217662486E+03 -0.14130432071E+03  0.81886091290E+03  0.95574623765E+03  0.00000000000E+00 0. -1.
          2    1    6    6  503    0  0.26012694971E+03 -0.10579978481E+03  0.90969529656E+02  0.29518651689E+03  0.00000000000E+00 0. -1.
         -2    1    6    6    0  503  0.37811761014E+02  0.17791037789E+02 -0.22113917525E+01  0.41846631286E+02  0.00000000000E+00 0.  1.
<mgrwt>
<rscale>  0 0.17322380E+04</rscale>
<asrwt>0</asrwt>
<pdfrwt beam="1">  1        2 0.33827487E-01 0.17322380E+04</pdfrwt>
<pdfrwt beam="2">  1       -1 0.52487840E+00 0.17322380E+04</pdfrwt>
<totfact> 0.17478336E-01</totfact>
</mgrwt>
</event>
<event>
12    6  0.1586493E-007  0.2586199E+04  0.7818608E-02  0.8372904E-01
         -1   -1    0    0    0  501 -0.00000000000E+00  0.00000000000E+00  0.56481796410E+03  0.56481796410E+03  0.00000000000E+00 0.  1.
          2   -1    0    0  501    0  0.00000000000E+00 -0.00000000000E+00 -0.29604330344E+04  0.29604330344E+04  0.00000000000E+00 0. -1.
         24    2    1    2    0    0 -0.26268136191E+02  0.42868254758E+03 -0.24783844687E+04  0.25166793278E+04  0.82622774372E+02 0.  0.
        254    2    1    2    0    0  0.26268136191E+02 -0.42868254758E+03  0.82769398368E+02  0.10085716707E+04  0.90879442123E+03 0.  0.
         23    2    4    4    0    0  0.34603962107E+03 -0.22495578979E+03 -0.25425352181E+03  0.49321081317E+03  0.90903939220E+02 0.  0.
         23    2    4    4    0    0 -0.31977148488E+03 -0.20372675778E+03  0.33702292018E+03  0.51536085753E+03  0.90851364149E+02 0.  0.
          2    1    3    3  502    0 -0.49067026160E+02  0.23310789546E+03 -0.14824664756E+04  0.15014838378E+04  0.00000000000E+00 0. -1.
         -1    1    3    3    0  502  0.22798889969E+02  0.19557465211E+03 -0.99591799310E+03  0.10151954900E+04  0.00000000000E+00 0.  1.
         11    1    5    5    0    0  0.34023172036E+03 -0.20064164717E+03 -0.22442408128E+03  0.45429160500E+03  0.00000000000E+00 0. -1.
        -11    1    5    5    0    0  0.58079007095E+01 -0.24314142621E+02 -0.29829440532E+02  0.38919208169E+02  0.00000000000E+00 0.  1.
          1    1    6    6  503    0 -0.13921530749E+03 -0.53999555542E+02  0.17620104112E+03  0.23096246606E+03  0.00000000000E+00 0. -1.
         -1    1    6    6    0  503 -0.18055617738E+03 -0.14972720224E+03  0.16082187906E+03  0.28439839147E+03  0.00000000000E+00 0.  1.
<mgrwt>
<rscale>  0 0.25861986E+04</rscale>
<asrwt>0</asrwt>
<pdfrwt beam="1">  1        2 0.45545123E+00 0.25861986E+04</pdfrwt>
<pdfrwt beam="2">  1       -1 0.86895073E-01 0.25861986E+04</pdfrwt>
<totfact> 0.24215415E+00</totfact>
</mgrwt>
</event>
<event>
12    6  0.1586493E-007  0.1789678E+04  0.7818608E-02  0.8711808E-01
         -1   -1    0    0    0  501 -0.00000000000E+00  0.00000000000E+00  0.41091788753E+03  0.41091788753E+03  0.00000000000E+00 0.  1.
          2   -1    0    0  501    0  0.00000000000E+00 -0.00000000000E+00 -0.19486538931E+04  0.19486538931E+04  0.00000000000E+00 0. -1.
         24    2    1    2    0    0 -0.45946108437E+03 -0.73941683137E+02 -0.12068772210E+04  0.12970519665E+04  0.96017272983E+02 0.  0.
        254    2    1    2    0    0  0.45946108437E+03  0.73941683137E+02 -0.33085878453E+03  0.10625198141E+04  0.89605187319E+03 0.  0.
         23    2    4    4    0    0  0.18514540388E+03  0.46390105471E+03 -0.26372585618E+03  0.57214104091E+03  0.91164874474E+02 0.  0.
         23    2    4    4    0    0  0.27431568049E+03 -0.38995937158E+03 -0.67132928349E+02  0.49037877316E+03  0.92989822343E+02 0.  0.
          4    1    3    3  502    0 -0.45629922332E+03 -0.84556872048E+02 -0.11764281130E+04  0.12646509206E+04  0.00000000000E+00 0. -1.
         -3    1    3    3    0  502 -0.31618610478E+01  0.10615188910E+02 -0.30449108018E+02  0.32401045970E+02  0.00000000000E+00 0.  1.
         11    1    5    5    0    0  0.82953479939E+01  0.11906420635E+03 -0.48361121543E+02  0.12877847689E+03  0.00000000000E+00 0.  1.
        -11    1    5    5    0    0  0.17685005588E+03  0.34483684836E+03 -0.21536473463E+03  0.44336256402E+03  0.00000000000E+00 0. -1.
          3    1    6    6  503    0  0.24904947465E+03 -0.38286378464E+03 -0.75276872866E+02  0.46290055736E+03  0.00000000000E+00 0. -1.
         -3    1    6    6    0  503  0.25266205843E+02 -0.70955869305E+01  0.81439445163E+01  0.27478215806E+02  0.00000000000E+00 0.  1.
<mgrwt>
<rscale>  0 0.17896779E+04</rscale>
<asrwt>0</asrwt>
<pdfrwt beam="1">  1        2 0.29979291E+00 0.17896779E+04</pdfrwt>
<pdfrwt beam="2">  1       -1 0.63218136E-01 0.17896779E+04</pdfrwt>
<totfact> 0.19485149E+01</totfact>
</mgrwt>
</event>
<event>
12    6  0.1586493E-007  0.2526626E+04  0.7818608E-02  0.8393561E-01
         -1   -1    0    0    0  501 -0.00000000000E+00  0.00000000000E+00  0.80934651362E+03  0.80934651362E+03  0.00000000000E+00 0.  1.
          2   -1    0    0  501    0  0.00000000000E+00 -0.00000000000E+00 -0.19719114779E+04  0.19719114779E+04  0.00000000000E+00 0. -1.
         24    2    1    2    0    0 -0.86600376146E+03  0.67752285842E+03 -0.55557637366E+03  0.12343713423E+04  0.77509775223E+02 0.  0.
        254    2    1    2    0    0  0.86600376146E+03 -0.67752285842E+03 -0.60698859067E+03  0.15468866492E+04  0.90300798326E+03 0.  0.
         23    2    4    4    0    0  0.97685826269E+03 -0.52383348113E+03 -0.70277136718E+03  0.13156102692E+04  0.91045068312E+02 0.  0.
         23    2    4    4    0    0 -0.11085450123E+03 -0.15368937729E+03  0.95782776517E+02  0.23127638006E+03  0.91680306289E+02 0.  0.
          2    1    3    3  502    0 -0.43258453876E+03  0.31040476787E+03 -0.23319599332E+03  0.58125801017E+03  0.00000000000E+00 0. -1.
         -1    1    3    3    0  502 -0.43341922270E+03  0.36711809055E+03 -0.32238038033E+03  0.65311333216E+03  0.00000000000E+00 0.  1.
         11    1    5    5    0    0  0.85492026252E+03 -0.46516141806E+03 -0.64998022046E+03  0.11703581021E+04  0.00000000000E+00 0. -1.
        -11    1    5    5    0    0  0.12193800017E+03 -0.58672063072E+02 -0.52791146726E+02  0.14525216709E+03  0.00000000000E+00 0.  1.
          2    1    6    6  503    0 -0.27988054036E+02  0.65889765748E+01  0.46221355443E+01  0.29122326796E+02  0.00000000000E+00 0.  1.
         -2    1    6    6    0  503 -0.82866447198E+02 -0.16027835387E+03  0.91160640973E+02  0.20215405327E+03  0.00000000000E+00 0. -1.
<mgrwt>
<rscale>  0 0.25266260E+04</rscale>
<asrwt>0</asrwt>
<pdfrwt beam="1">  1        2 0.30337099E+00 0.25266260E+04</pdfrwt>
<pdfrwt beam="2">  1       -1 0.12451485E+00 0.25266260E+04</pdfrwt>
<totfact> 0.39630751E+00</totfact>
</mgrwt>
</event>
<event>
12    6  0.1610633E-007  0.2625816E+04  0.7818608E-02  0.8359485E-01
          2   -1    0    0  501    0  0.00000000000E+00  0.00000000000E+00  0.22890043288E+04  0.22890043288E+04  0.00000000000E+00 0. -1.
         -1   -1    0    0    0  501 -0.00000000000E+00 -0.00000000000E+00 -0.75304686010E+03  0.75304686010E+03  0.00000000000E+00 0.  1.
         24    2    1    2    0    0  0.86994284808E+02  0.75854741289E+03  0.15769364302E+04  0.17538651764E+04  0.79701750992E+02 0.  0.
        254    2    1    2    0    0 -0.86994284808E+02 -0.75854741289E+03 -0.40978961486E+02  0.12881860124E+04  0.10367168100E+04 0.  0.
         23    2    4    4    0    0 -0.28028020234E+03  0.54597168645E+02  0.25827686787E+03  0.39560517540E+03  0.90877234111E+02 0.  0.
         23    2    4    4    0    0  0.19328591753E+03 -0.81314458154E+03 -0.29925582935E+03  0.89258083705E+03  0.92644173392E+02 0.  0.
          2    1    3    3  502    0  0.77528371446E+02  0.64435076180E+03  0.12696045228E+04  0.14258661217E+04  0.00000000000E+00 0. -1.
         -1    1    3    3    0  502  0.94659133619E+01  0.11419665109E+03  0.30733190740E+03  0.32799905479E+03  0.00000000000E+00 0.  1.
         11    1    5    5    0    0 -0.11368732584E+02 -0.15757570448E+02  0.30848037379E+02  0.36457516607E+02  0.00000000000E+00 0.  1.
        -11    1    5    5    0    0 -0.26891146975E+03  0.70354739094E+02  0.22742883049E+03  0.35914765879E+03  0.00000000000E+00 0. -1.
          3    1    6    6  503    0  0.17125644976E+03 -0.56046347023E+03 -0.23090539610E+03  0.62989314569E+03  0.00000000000E+00 0. -1.
         -3    1    6    6    0  503  0.22029467770E+02 -0.25268111131E+03 -0.68350433255E+02  0.26268769135E+03  0.00000000000E+00 0.  1.
<mgrwt>
<rscale>  0 0.26258161E+04</rscale>
<asrwt>0</asrwt>
<pdfrwt beam="1">  1        2 0.35215451E+00 0.26258161E+04</pdfrwt>
<pdfrwt beam="2">  1       -1 0.11585336E+00 0.26258161E+04</pdfrwt>
<totfact> 0.31128103E+00</totfact>
</mgrwt>
</event>
<event>
12    6  0.1586493E-007  0.1782881E+04  0.7818608E-02  0.8715456E-01
          2   -1    0    0  501    0  0.00000000000E+00  0.00000000000E+00  0.21467674732E+04  0.21467674732E+04  0.00000000000E+00 0. -1.
         -1   -1    0    0    0  501 -0.00000000000E+00 -0.00000000000E+00 -0.37016882991E+03  0.37016882991E+03  0.00000000000E+00 0.  1.
         24    2    1    2    0    0  0.57555615668E+03  0.19022616917E+02  0.11977814421E+04  0.13316471877E+04  0.83529036638E+02 0.  0.
        254    2    1    2    0    0 -0.57555615668E+03 -0.19022616917E+02  0.57881720119E+03  0.11852891154E+04  0.85921719334E+03 0.  0.
         23    2    4    4    0    0 -0.41034821384E+02 -0.26281193426E+03 -0.85421587238E+02  0.29379752364E+03  0.90918468843E+02 0.  0.
         23    2    4    4    0    0 -0.53452133529E+03  0.24378931734E+03  0.66423878843E+03  0.89149159180E+03  0.91639516898E+02 0.  0.
          2    1    3    3  502    0  0.40941451886E+03  0.84539087838E+01  0.93252716734E+03  0.10184785882E+04  0.00000000000E+00 0. -1.
         -1    1    3    3    0  502  0.16614163782E+03  0.10568708133E+02  0.26525427474E+03  0.31316859944E+03  0.00000000000E+00 0.  1.
         11    1    5    5    0    0  0.40037769214E+01 -0.14941152050E+03 -0.88133051043E+01  0.14972477094E+03  0.00000000000E+00 0. -1.
        -11    1    5    5    0    0 -0.45038598305E+02 -0.11340041376E+03 -0.76608282134E+02  0.14407275270E+03  0.00000000000E+00 0.  1.
          1    1    6    6  503    0 -0.18609576084E+03  0.13128293507E+03  0.23367978681E+03  0.32630213607E+03  0.00000000000E+00 0. -1.
         -1    1    6    6    0  503 -0.34842557446E+03  0.11250638227E+03  0.43055900162E+03  0.56518945573E+03  0.00000000000E+00 0.  1.
<mgrwt>
<rscale>  0 0.17828813E+04</rscale>
<asrwt>0</asrwt>
<pdfrwt beam="1">  1        2 0.33027191E+00 0.17828813E+04</pdfrwt>
<pdfrwt beam="2">  1       -1 0.56949052E-01 0.17828813E+04</pdfrwt>
<totfact> 0.18595069E+01</totfact>
</mgrwt>
</event>
<event>
12    6  0.1586493E-007  0.3260718E+04  0.7818608E-02  0.8172963E-01
         -1   -1    0    0    0  501 -0.00000000000E+00  0.00000000000E+00  0.95913413847E+03  0.95913413847E+03  0.00000000000E+00 0.  1.
          2   -1    0    0  501    0  0.00000000000E+00 -0.00000000000E+00 -0.27713227372E+04  0.27713227372E+04  0.00000000000E+00 0. -1.
         24    2    1    2    0    0  0.10781304741E+04 -0.26019060680E+03 -0.19990305772E+04  0.22874242949E+04  0.78244393193E+02 0.  0.
        254    2    1    2    0    0 -0.10781304741E+04  0.26019060680E+03  0.18684197850E+03  0.14430325808E+04  0.90408441705E+03 0.  0.
         23    2    4    4    0    0 -0.69811155186E+03 -0.12328192841E+03  0.44051558750E+03  0.83982900590E+03  0.93277026105E+02 0.  0.
         23    2    4    4    0    0 -0.38001892225E+03  0.38347253521E+03 -0.25367360899E+03  0.60320357488E+03  0.89658721351E+02 0.  0.
          2    1    3    3  502    0  0.52408872380E+03 -0.16007782850E+03 -0.10303189398E+04  0.11669837271E+04  0.00000000000E+00 0. -1.
         -1    1    3    3    0  502  0.55404175031E+03 -0.10011277831E+03 -0.96871163746E+03  0.11204405678E+04  0.00000000000E+00 0.  1.
         11    1    5    5    0    0 -0.55737220606E+03 -0.12356034396E+03  0.38471774735E+03  0.68843204444E+03  0.00000000000E+00 0.  1.
        -11    1    5    5    0    0 -0.14073934581E+03  0.27841555020E+00  0.55797840145E+02  0.15139696146E+03  0.00000000000E+00 0. -1.
          4    1    6    6  503    0 -0.12394976077E+03  0.12098916452E+03 -0.12870671317E+03  0.21579466894E+03  0.00000000000E+00 0. -1.
         -4    1    6    6    0  503 -0.25606916148E+03  0.26248337069E+03 -0.12496689582E+03  0.38740890594E+03  0.00000000000E+00 0.  1.
<mgrwt>
<rscale>  0 0.32607179E+04</rscale>
<asrwt>0</asrwt>
<pdfrwt beam="1">  1        2 0.42635734E+00 0.32607179E+04</pdfrwt>
<pdfrwt beam="2">  1       -1 0.14755910E+00 0.32607179E+04</pdfrwt>
<totfact> 0.83491599E-01</totfact>
</mgrwt>
</event>
<event>
12    6  0.1586493E-007  0.1027337E+04  0.7818608E-02  0.9279060E-01
          2   -1    0    0  501    0  0.00000000000E+00  0.00000000000E+00  0.29813493218E+04  0.29813493218E+04  0.00000000000E+00 0. -1.
         -1   -1    0    0    0  501 -0.00000000000E+00 -0.00000000000E+00 -0.88501967638E+02  0.88501967638E+02  0.00000000000E+00 0.  1.
         24    2    1    2    0    0 -0.11165246314E+03  0.68751346803E+02  0.54240328546E+03  0.56412658014E+03  0.82731216205E+02 0.  0.
        254    2    1    2    0    0  0.11165246314E+03 -0.68751346803E+02  0.23504440687E+04  0.25057247093E+04  0.85841480558E+03 0.  0.
         23    2    4    4    0    0  0.18519576957E+03 -0.43614920760E+03  0.13018284460E+04  0.13884152051E+04  0.91738075823E+02 0.  0.
         23    2    4    4    0    0 -0.73543306431E+02  0.36739786079E+03  0.10486156226E+04  0.11173095041E+04  0.91629678428E+02 0.  0.
          4    1    3    3  502    0 -0.91551530506E+02  0.57199967315E+02  0.52260997629E+03  0.53364286402E+03  0.00000000000E+00 0. -1.
         -3    1    3    3    0  502 -0.20100932637E+02  0.11551379488E+02  0.19793309166E+02  0.30483716123E+02  0.00000000000E+00 0.  1.
         11    1    5    5    0    0  0.13480349710E+03 -0.33104914637E+03  0.85666754133E+03  0.92824824077E+03  0.00000000000E+00 0. -1.
        -11    1    5    5    0    0  0.50392272472E+02 -0.10510006123E+03  0.44516090471E+03  0.46016696435E+03  0.00000000000E+00 0.  1.
          4    1    6    6  503    0 -0.80615533401E+02  0.17288376442E+03  0.54211406339E+03  0.57469584821E+03  0.00000000000E+00 0. -1.
         -4    1    6    6    0  503  0.70722269700E+01  0.19451409637E+03  0.50650155924E+03  0.54261365592E+03  0.00000000000E+00 0.  1.
<mgrwt>
<rscale>  0 0.10273369E+04</rscale>
<asrwt>0</asrwt>
<pdfrwt beam="1">  1        2 0.45866905E+00 0.10273369E+04</pdfrwt>
<pdfrwt beam="2">  1       -1 0.13615690E-01 0.10273369E+04</pdfrwt>
<totfact> 0.79961468E+01</totfact>
</mgrwt>
</event>
<event>
12    6  0.1586493E-007  0.1163737E+04  0.7818608E-02  0.9145203E-01
          2   -1    0    0  501    0  0.00000000000E+00  0.00000000000E+00  0.11890404063E+04  0.11890404063E+04  0.00000000000E+00 0. -1.
         -1   -1    0    0    0  501 -0.00000000000E+00 -0.00000000000E+00 -0.28474321168E+03  0.28474321168E+03  0.00000000000E+00 0.  1.
         24    2    1    2    0    0  0.85843237015E+01  0.19511147964E+03  0.32307084554E+03  0.38667881289E+03  0.83687233174E+02 0.  0.
        254    2    1    2    0    0 -0.85843237015E+01 -0.19511147964E+03  0.58122634906E+03  0.10871048051E+04  0.89768068280E+03 0.  0.
         23    2    4    4    0    0  0.40000553319E+02 -0.49441248358E+03  0.58166965975E+03  0.76982784648E+03  0.90838163525E+02 0.  0.
         23    2    4    4    0    0 -0.48584877021E+02  0.29930100394E+03 -0.44331069031E+00  0.31727695860E+03  0.93396416959E+02 0.  0.
          2    1    3    3  502    0  0.11191748578E+02  0.15352935388E+03  0.17600566923E+03  0.23382581838E+03  0.00000000000E+00 0. -1.
         -1    1    3    3    0  502 -0.26074248769E+01  0.41582125761E+02  0.14706517631E+03  0.15285299451E+03  0.00000000000E+00 0.  1.
         11    1    5    5    0    0 -0.95400170439E+01 -0.37197497574E+03  0.42251255237E+03  0.56300377567E+03  0.00000000000E+00 0.  1.
        -11    1    5    5    0    0  0.49540570363E+02 -0.12243750783E+03  0.15915710738E+03  0.20682407081E+03  0.00000000000E+00 0. -1.
          3    1    6    6  503    0 -0.42064832679E+02  0.84661243759E+02 -0.32904863684E+02  0.10009848349E+03  0.00000000000E+00 0. -1.
         -3    1    6    6    0  503 -0.65200443413E+01  0.21463976018E+03  0.32461552994E+02  0.21717847511E+03  0.00000000000E+00 0.  1.
<mgrwt>
<rscale>  0 0.11637374E+04</rscale>
<asrwt>0</asrwt>
<pdfrwt beam="1">  1        2 0.18292929E+00 0.11637374E+04</pdfrwt>
<pdfrwt beam="2">  1       -1 0.43806649E-01 0.11637374E+04</pdfrwt>
<totfact> 0.11157922E+02</totfact>
</mgrwt>
</event>
<event>
12    6  0.1596371E-007  0.1762617E+04  0.7818608E-02  0.8726436E-01
          2   -1    0    0  501    0  0.00000000000E+00  0.00000000000E+00  0.10156976477E+04  0.10156976477E+04  0.00000000000E+00 0. -1.
         -1   -1    0    0    0  501 -0.00000000000E+00 -0.00000000000E+00 -0.76470057542E+03  0.76470057542E+03  0.00000000000E+00 0.  1.
         24    2    1    2    0    0 -0.26565738086E+02 -0.48929970409E+03 -0.35596063726E+03  0.61102348078E+03  0.80757537902E+02 0.  0.
        254    2    1    2    0    0  0.26565738086E+02  0.48929970409E+03  0.60695770958E+03  0.11693747424E+04  0.87115996696E+03 0.  0.
         23    2    4    4    0    0 -0.12334155399E+03  0.40169705178E+02  0.66328247208E+03  0.68256335830E+03  0.95511026436E+02 0.  0.
         23    2    4    4    0    0  0.14990729208E+03  0.44912999891E+03 -0.56324762493E+02  0.48681138409E+03  0.98096343802E+02 0.  0.
          2    1    3    3  502    0  0.30798676106E+01 -0.59579353026E+01 -0.21438737608E+02  0.22463348989E+02  0.00000000000E+00 0. -1.
         -1    1    3    3    0  502 -0.29645605696E+02 -0.48334176879E+03 -0.33452189965E+03  0.58856013179E+03  0.00000000000E+00 0.  1.
         11    1    5    5    0    0 -0.42887570228E+02  0.63725831789E+02  0.29198952817E+03  0.30192417902E+03  0.00000000000E+00 0. -1.
        -11    1    5    5    0    0 -0.80453983762E+02 -0.23556126611E+02  0.37129294391E+03  0.38063917928E+03  0.00000000000E+00 0.  1.
          2    1    6    6  503    0  0.11344781795E+03  0.27941727565E+03 -0.79015684289E+02  0.31174973888E+03  0.00000000000E+00 0. -1.
         -2    1    6    6    0  503  0.36459474131E+02  0.16971272326E+03  0.22690921795E+02  0.17506164521E+03  0.00000000000E+00 0.  1.
<mgrwt>
<rscale>  0 0.17626169E+04</rscale>
<asrwt>0</asrwt>
<pdfrwt beam="1">  1        2 0.15626118E+00 0.17626169E+04</pdfrwt>
<pdfrwt beam="2">  1       -1 0.11764624E+00 0.17626169E+04</pdfrwt>
<totfact> 0.17276619E+01</totfact>
</mgrwt>
</event>
<event>
12    6  0.1586493E-007  0.1785711E+04  0.7818608E-02  0.8713935E-01
         -1   -1    0    0    0  501 -0.00000000000E+00  0.00000000000E+00  0.10015577461E+04  0.10015577461E+04  0.00000000000E+00 0.  1.
          2   -1    0    0  501    0  0.00000000000E+00 -0.00000000000E+00 -0.79595102875E+03  0.79595102875E+03  0.00000000000E+00 0. -1.
         24    2    1    2    0    0  0.28866099781E+03  0.57932895524E+03  0.51636836170E+02  0.65425325978E+03  0.80210691617E+02 0.  0.
        254    2    1    2    0    0 -0.28866099781E+03 -0.57932895524E+03  0.15396988115E+03  0.11432555150E+04  0.92971997844E+03 0.  0.
         23    2    4    4    0    0 -0.27798440471E+03 -0.82233257241E+03  0.10973162883E+03  0.87966448341E+03  0.90897657329E+02 0.  0.
         23    2    4    4    0    0 -0.10676593099E+02  0.24300361717E+03  0.44238252317E+02  0.26359103162E+03  0.91424621322E+02 0.  0.
          4    1    3    3  502    0  0.29066034947E+03  0.57895471577E+03  0.55181014469E+02  0.65016686014E+03  0.00000000000E+00 0. -1.
         -3    1    3    3    0  502 -0.19993516585E+01  0.37423947157E+00 -0.35441782991E+01  0.40863996442E+01  0.00000000000E+00 0.  1.
         11    1    5    5    0    0 -0.24497017709E+03 -0.78562882751E+03  0.11029702914E+03  0.83029421106E+03  0.00000000000E+00 0. -1.
        -11    1    5    5    0    0 -0.33014227622E+02 -0.36703744894E+02 -0.56540030690E+00  0.49370272353E+02  0.00000000000E+00 0.  1.
          2    1    6    6  503    0 -0.31030245189E+02  0.19242228104E+03  0.24962862508E+01  0.19492419501E+03  0.00000000000E+00 0. -1.
         -2    1    6    6    0  503  0.20353652090E+02  0.50581336129E+02  0.41741966066E+02  0.68666836603E+02  0.00000000000E+00 0.  1.
<mgrwt>
<rscale>  0 0.17857110E+04</rscale>
<asrwt>0</asrwt>
<pdfrwt beam="1">  1        2 0.12245400E+00 0.17857110E+04</pdfrwt>
<pdfrwt beam="2">  1       -1 0.15408581E+00 0.17857110E+04</pdfrwt>
<totfact> 0.12135888E+01</totfact>
</mgrwt>
</event>
<event>
12    6  0.1586493E-007  0.1367808E+04  0.7818608E-02  0.8977456E-01
          2   -1    0    0  501    0  0.00000000000E+00  0.00000000000E+00  0.20320869964E+04  0.20320869964E+04  0.00000000000E+00 0. -1.
         -1   -1    0    0    0  501 -0.00000000000E+00 -0.00000000000E+00 -0.23016947147E+03  0.23016947147E+03  0.00000000000E+00 0.  1.
         24    2    1    2    0    0 -0.11369047292E+03  0.13330477837E+02  0.11332280682E+04  0.11430344168E+04  0.96013530819E+02 0.  0.
        254    2    1    2    0    0  0.11369047292E+03 -0.13330477837E+02  0.66868945668E+03  0.11192220510E+04  0.89017368237E+03 0.  0.
         23    2    4    4    0    0 -0.22990636063E+03  0.70791071338E+00  0.71964264308E+03  0.76054536717E+03  0.87671466226E+02 0.  0.
         23    2    4    4    0    0  0.34359683355E+03 -0.14038388550E+02 -0.50953186393E+02  0.35867668387E+03  0.88299920555E+02 0.  0.
          2    1    3    3  502    0 -0.10840476710E+03  0.44372180524E+02  0.93757184526E+03  0.94486054472E+03  0.00000000000E+00 0. -1.
         -1    1    3    3    0  502 -0.52857058230E+01 -0.31041702687E+02  0.19565622295E+03  0.19817387206E+03  0.00000000000E+00 0.  1.
         11    1    5    5    0    0 -0.69626720192E+02 -0.11838564018E+02  0.35616354852E+03  0.36309847845E+03  0.00000000000E+00 0. -1.
        -11    1    5    5    0    0 -0.16027964044E+03  0.12546474732E+02  0.36347909456E+03  0.39744688871E+03  0.00000000000E+00 0.  1.
          3    1    6    6  503    0  0.24544066659E+03 -0.24957630637E+02 -0.73404887665E+02  0.25739518580E+03  0.00000000000E+00 0. -1.
         -3    1    6    6    0  503  0.98156166967E+02  0.10919242086E+02  0.22451701273E+02  0.10128149807E+03  0.00000000000E+00 0.  1.
<mgrwt>
<rscale>  0 0.13678076E+04</rscale>
<asrwt>0</asrwt>
<pdfrwt beam="1">  1        2 0.31262876E+00 0.13678076E+04</pdfrwt>
<pdfrwt beam="2">  1       -1 0.35410689E-01 0.13678076E+04</pdfrwt>
<totfact> 0.54188267E+01</totfact>
</mgrwt>
</event>
<event>
12    6  0.1586493E-007  0.1587825E+04  0.7818608E-02  0.8828062E-01
          2   -1    0    0  501    0  0.00000000000E+00  0.00000000000E+00  0.13187492078E+04  0.13187492078E+04  0.00000000000E+00 0. -1.
         -1   -1    0    0    0  501 -0.00000000000E+00 -0.00000000000E+00 -0.47795086918E+03  0.47795086918E+03  0.00000000000E+00 0.  1.
         24    2    1    2    0    0 -0.68034463656E+02 -0.47427053188E+03  0.55109547420E+02  0.48896648088E+03  0.80560111433E+02 0.  0.
        254    2    1    2    0    0  0.68034463656E+02  0.47427053188E+03  0.78568879124E+03  0.13077335961E+04  0.92913887882E+03 0.  0.
         23    2    4    4    0    0  0.46075638189E+03  0.27100049171E+03  0.62763179902E+03  0.82906822654E+03  0.87719662328E+02 0.  0.
         23    2    4    4    0    0 -0.39272191823E+03  0.20327004017E+03  0.15805699222E+03  0.47866536959E+03  0.92678524847E+02 0.  0.
          2    1    3    3  502    0 -0.40817865167E+02 -0.20745657471E+03 -0.14347039506E+02  0.21192018792E+03  0.00000000000E+00 0. -1.
         -1    1    3    3    0  502 -0.27216598490E+02 -0.26681395717E+03  0.69456586926E+02  0.27704629296E+03  0.00000000000E+00 0.  1.
         11    1    5    5    0    0  0.25284088641E+03  0.12411762092E+03  0.38802471250E+03  0.47947562521E+03  0.00000000000E+00 0. -1.
        -11    1    5    5    0    0  0.20791549548E+03  0.14688287079E+03  0.23960708652E+03  0.34959260133E+03  0.00000000000E+00 0.  1.
          2    1    6    6  503    0 -0.10793179038E+03  0.21820962972E+02  0.12061011481E+02  0.11077406645E+03  0.00000000000E+00 0.  1.
         -2    1    6    6    0  503 -0.28479012785E+03  0.18144907720E+03  0.14599598073E+03  0.36789130315E+03  0.00000000000E+00 0. -1.
<mgrwt>
<rscale>  0 0.15878253E+04</rscale>
<asrwt>0</asrwt>
<pdfrwt beam="1">  1        2 0.20288449E+00 0.15878253E+04</pdfrwt>
<pdfrwt beam="2">  1       -1 0.73530904E-01 0.15878253E+04</pdfrwt>
<totfact> 0.32867656E+01</totfact>
</mgrwt>
</event>
<event>
12    6  0.1586493E-007  0.1418239E+04  0.7818608E-02  0.8940721E-01
          2   -1    0    0  501    0  0.00000000000E+00  0.00000000000E+00  0.31062808648E+03  0.31062808648E+03  0.00000000000E+00 0. -1.
         -1   -1    0    0    0  501 -0.00000000000E+00 -0.00000000000E+00 -0.16188182541E+04  0.16188182541E+04  0.00000000000E+00 0.  1.
         24    2    1    2    0    0  0.39983319303E+03  0.97912226696E+02 -0.30793084494E+03  0.52007256081E+03  0.78744376697E+02 0.  0.
        254    2    1    2    0    0 -0.39983319303E+03 -0.97912226696E+02 -0.10002593227E+04  0.14093737798E+04  0.90352772625E+03 0.  0.
         23    2    4    4    0    0 -0.63182792096E+03 -0.24059804323E+03 -0.83376703976E+03  0.10773338843E+04  0.91579918568E+02 0.  0.
         23    2    4    4    0    0  0.23199472794E+03  0.14268581653E+03 -0.16649228294E+03  0.33203989551E+03  0.91378421427E+02 0.  0.
          4    1    3    3  502    0  0.62321176769E+02 -0.11050844856E+02 -0.61073662105E+02  0.87954775020E+02  0.00000000000E+00 0. -1.
         -3    1    3    3    0  502  0.33751201626E+03  0.10896307155E+03 -0.24685718283E+03  0.43211778579E+03  0.00000000000E+00 0.  1.
         11    1    5    5    0    0 -0.42077208703E+03 -0.20055679333E+03 -0.60123611832E+03  0.76076083399E+03  0.00000000000E+00 0. -1.
        -11    1    5    5    0    0 -0.21105583393E+03 -0.40041249903E+02 -0.23253092145E+03  0.31657305028E+03  0.00000000000E+00 0.  1.
          4    1    6    6  503    0  0.16780922154E+02  0.38692833732E+02 -0.52168944252E+02  0.67084524854E+02  0.00000000000E+00 0. -1.
         -4    1    6    6    0  503  0.21521380578E+03  0.10399298280E+03 -0.11432333869E+03  0.26495537066E+03  0.00000000000E+00 0.  1.
<mgrwt>
<rscale>  0 0.14182389E+04</rscale>
<asrwt>0</asrwt>
<pdfrwt beam="1">  1        2 0.47788937E-01 0.14182389E+04</pdfrwt>
<pdfrwt beam="2">  1       -1 0.24904896E+00 0.14182389E+04</pdfrwt>
<totfact> 0.83213720E+00</totfact>
</mgrwt>
</event>
<event>
12    6  0.1586493E-007  0.1834558E+04  0.7818608E-02  0.8688135E-01
          2   -1    0    0  501    0  0.00000000000E+00  0.00000000000E+00  0.51228809321E+03  0.51228809321E+03  0.00000000000E+00 0. -1.
         -1   -1    0    0    0  501 -0.00000000000E+00 -0.00000000000E+00 -0.16424370504E+04  0.16424370504E+04  0.00000000000E+00 0.  1.
         24    2    1    2    0    0  0.31297113674E+03  0.55127401199E+03 -0.96703675238E+02  0.64808299188E+03  0.93840262305E+02 0.  0.
        254    2    1    2    0    0 -0.31297113674E+03 -0.55127401199E+03 -0.10334452819E+04  0.15066421517E+04  0.89448725750E+03 0.  0.
         23    2    4    4    0    0  0.13847260702E+03  0.16567192342E+03 -0.12655261944E+03  0.26262727843E+03  0.79596939521E+02 0.  0.
         23    2    4    4    0    0 -0.45144374376E+03 -0.71694593541E+03 -0.90689266250E+03  0.12440148733E+04  0.85473829720E+02 0.  0.
          2    1    3    3  502    0  0.18518104894E+03  0.30789254070E+03 -0.85112283355E+01  0.35939153928E+03  0.00000000000E+00 0. -1.
         -1    1    3    3    0  502  0.12779008780E+03  0.24338147130E+03 -0.88192446903E+02  0.28869145259E+03  0.00000000000E+00 0.  1.
         11    1    5    5    0    0 -0.28209359036E+01  0.34347212019E+01  0.78039793003E+01  0.89809287953E+01  0.00000000000E+00 0.  1.
        -11    1    5    5    0    0  0.14129354293E+03  0.16223720222E+03 -0.13435659874E+03  0.25364634963E+03  0.00000000000E+00 0. -1.
          1    1    6    6  503    0 -0.41451440891E+03 -0.67166134239E+03 -0.87112261563E+03  0.11755023460E+04  0.00000000000E+00 0. -1.
         -1    1    6    6    0  503 -0.36929334848E+02 -0.45284593027E+02 -0.35770046869E+02  0.68512527255E+02  0.00000000000E+00 0.  1.
<mgrwt>
<rscale>  0 0.18345582E+04</rscale>
<asrwt>0</asrwt>
<pdfrwt beam="1">  1        2 0.78813553E-01 0.18345582E+04</pdfrwt>
<pdfrwt beam="2">  1       -1 0.25268262E+00 0.18345582E+04</pdfrwt>
<totfact> 0.43123683E+00</totfact>
</mgrwt>
</event>
<event>
12    6  0.1586493E-007  0.3437675E+04  0.7818608E-02  0.8128721E-01
          2   -1    0    0  501    0  0.00000000000E+00  0.00000000000E+00  0.24078784146E+04  0.24078784146E+04  0.00000000000E+00 0. -1.
         -1   -1    0    0    0  501 -0.00000000000E+00 -0.00000000000E+00 -0.12269734677E+04  0.12269734677E+04  0.00000000000E+00 0.  1.
         24    2    1    2    0    0 -0.15673113326E+04  0.32546296583E+03  0.55782388486E+03  0.16970538775E+04  0.80208611113E+02 0.  0.
        254    2    1    2    0    0  0.15673113326E+04 -0.32546296583E+03  0.62308106205E+03  0.19377980048E+04  0.89690587148E+03 0.  0.
         23    2    4    4    0    0  0.28565918523E+03  0.48412817169E+02  0.51127167585E+03  0.59477209413E+03  0.91706850685E+02 0.  0.
         23    2    4    4    0    0  0.12816521473E+04 -0.37387578300E+03  0.11180938620E+03  0.13430259107E+04  0.93818601874E+02 0.  0.
          4    1    3    3  502    0 -0.11605437160E+03  0.14683597321E+02  0.61113781710E+02  0.13198151202E+03  0.00000000000E+00 0. -1.
         -3    1    3    3    0  502 -0.14512569610E+04  0.31077936851E+03  0.49671010315E+03  0.15650723655E+04  0.00000000000E+00 0.  1.
         11    1    5    5    0    0  0.15913084060E+03  0.11980910104E+02  0.36268600698E+03  0.39624147473E+03  0.00000000000E+00 0.  1.
        -11    1    5    5    0    0  0.12652834464E+03  0.36431907065E+02  0.14858566887E+03  0.19853061940E+03  0.00000000000E+00 0. -1.
          2    1    6    6  503    0  0.70435792099E+02 -0.37294839258E+02 -0.85866323066E+01  0.80161312977E+02  0.00000000000E+00 0. -1.
         -2    1    6    6    0  503  0.12112163552E+04 -0.33658094375E+03  0.12039601851E+03  0.12628645977E+04  0.00000000000E+00 0.  1.
<mgrwt>
<rscale>  0 0.34376753E+04</rscale>
<asrwt>0</asrwt>
<pdfrwt beam="1">  1        2 0.37044283E+00 0.34376753E+04</pdfrwt>
<pdfrwt beam="2">  1       -1 0.18876515E+00 0.34376753E+04</pdfrwt>
<totfact> 0.66570946E-01</totfact>
</mgrwt>
</event>
<event>
12    6  0.1586493E-007  0.2365824E+04  0.7818608E-02  0.8452411E-01
          2   -1    0    0  501    0  0.00000000000E+00  0.00000000000E+00  0.10216779688E+04  0.10216779688E+04  0.00000000000E+00 0. -1.
         -1   -1    0    0    0  501 -0.00000000000E+00 -0.00000000000E+00 -0.13695906071E+04  0.13695906071E+04  0.00000000000E+00 0.  1.
         24    2    1    2    0    0  0.23158677118E+03  0.93691367115E+03 -0.45092855189E+03  0.10680867671E+04  0.77673182847E+02 0.  0.
        254    2    1    2    0    0 -0.23158677118E+03 -0.93691367115E+03  0.10301591367E+03  0.13231818088E+04  0.89930982480E+03 0.  0.
         23    2    4    4    0    0  0.22141832661E+03 -0.70828157939E+03  0.24809558344E+03  0.78757450020E+03  0.89628699525E+02 0.  0.
         23    2    4    4    0    0 -0.45300509780E+03 -0.22863209176E+03 -0.14507966977E+03  0.53560730864E+03  0.91328125304E+02 0.  0.
          4    1    3    3  502    0  0.27891181840E+02  0.20563379418E+03 -0.72040294954E+02  0.21966560821E+03  0.00000000000E+00 0. -1.
         -3    1    3    3    0  502  0.20369558934E+03  0.73127987697E+03 -0.37888825693E+03  0.84842115887E+03  0.00000000000E+00 0.  1.
         11    1    5    5    0    0 -0.40311883287E+01 -0.30380536265E+02 -0.18583927483E+01  0.30703112003E+02  0.00000000000E+00 0.  1.
        -11    1    5    5    0    0  0.22544951494E+03 -0.67790104312E+03  0.24995397619E+03  0.75687138819E+03  0.00000000000E+00 0. -1.
          3    1    6    6  503    0 -0.24587744018E+03 -0.17385654764E+03 -0.92147028100E+02  0.31491727411E+03  0.00000000000E+00 0. -1.
         -3    1    6    6    0  503 -0.20712765762E+03 -0.54775544116E+02 -0.52932641673E+02  0.22069003452E+03  0.00000000000E+00 0.  1.
<mgrwt>
<rscale>  0 0.23658238E+04</rscale>
<asrwt>0</asrwt>
<pdfrwt beam="1">  1        2 0.15718123E+00 0.23658238E+04</pdfrwt>
<pdfrwt beam="2">  1       -1 0.21070625E+00 0.23658238E+04</pdfrwt>
<totfact> 0.31892033E+00</totfact>
</mgrwt>
</event>
<event>
12    6  0.1586493E-007  0.3194850E+04  0.7818608E-02  0.8190179E-01
          2   -1    0    0  501    0  0.00000000000E+00  0.00000000000E+00  0.42615638757E+04  0.42615638757E+04  0.00000000000E+00 0. -1.
         -1   -1    0    0    0  501 -0.00000000000E+00 -0.00000000000E+00 -0.59878650067E+03  0.59878650067E+03  0.00000000000E+00 0.  1.
         24    2    1    2    0    0 -0.12688097390E+03 -0.14597084611E+04  0.14944188552E+04  0.20945497177E+04  0.83685316345E+02 0.  0.
        254    2    1    2    0    0  0.12688097390E+03  0.14597084611E+04  0.21683585199E+04  0.27658006587E+04  0.89500113956E+03 0.  0.
         23    2    4    4    0    0  0.28563791188E+03  0.13990607922E+04  0.15115633426E+04  0.20813917694E+04  0.91694284989E+02 0.  0.
         23    2    4    4    0    0 -0.15875693798E+03  0.60647668905E+02  0.65679517724E+03  0.68440888927E+03  0.90297938893E+02 0.  0.
          4    1    3    3  502    0 -0.50605309750E+02 -0.36217605962E+03  0.41765934566E+03  0.55513216854E+03  0.00000000000E+00 0. -1.
         -3    1    3    3    0  502 -0.76275664152E+02 -0.10975324015E+04  0.10767595095E+04  0.15394175492E+04  0.00000000000E+00 0.  1.
         11    1    5    5    0    0  0.29659427562E+02  0.12835743364E+03  0.18037881628E+03  0.22336479082E+03  0.00000000000E+00 0.  1.
        -11    1    5    5    0    0  0.25597848432E+03  0.12707033586E+04  0.13311845263E+04  0.18580269786E+04  0.00000000000E+00 0. -1.
          4    1    6    6  503    0 -0.73310371870E+02  0.65794953886E+02  0.25004406042E+03  0.26874787205E+03  0.00000000000E+00 0. -1.
         -4    1    6    6    0  503 -0.85446566112E+02 -0.51472849814E+01  0.40675111683E+03  0.41566101723E+03  0.00000000000E+00 0.  1.
<mgrwt>
<rscale>  0 0.31948502E+04</rscale>
<asrwt>0</asrwt>
<pdfrwt beam="1">  1        2 0.65562519E+00 0.31948502E+04</pdfrwt>
<pdfrwt beam="2">  1       -1 0.92121003E-01 0.31948502E+04</pdfrwt>
<totfact> 0.22483245E-01</totfact>
</mgrwt>
</event>
<event>
12    6  0.1586493E-007  0.1411100E+04  0.7818608E-02  0.8945823E-01
         -1   -1    0    0    0  501 -0.00000000000E+00  0.00000000000E+00  0.49582152532E+03  0.49582152532E+03  0.00000000000E+00 0.  1.
          2   -1    0    0  501    0  0.00000000000E+00 -0.00000000000E+00 -0.10039924518E+04  0.10039924518E+04  0.00000000000E+00 0. -1.
         24    2    1    2    0    0 -0.35938613794E+03 -0.20283674251E+03 -0.12802054197E+03  0.44063751393E+03  0.86435058039E+02 0.  0.
        254    2    1    2    0    0  0.35938613794E+03  0.20283674251E+03 -0.38015038450E+03  0.10591764632E+04  0.89835367483E+03 0.  0.
         23    2    4    4    0    0  0.42664654762E+03  0.27081644284E+03  0.13217497326E+03  0.53019993290E+03  0.90955609939E+02 0.  0.
         23    2    4    4    0    0 -0.67260409676E+02 -0.67979700333E+02 -0.51232535777E+03  0.52897653029E+03  0.90519031228E+02 0.  0.
          2    1    3    3  502    0 -0.23475230254E+03 -0.11509997552E+03 -0.12090497924E+03  0.28805322758E+03  0.00000000000E+00 0. -1.
         -1    1    3    3    0  502 -0.12463383540E+03 -0.87736766987E+02 -0.71155627309E+01  0.15258428635E+03  0.00000000000E+00 0.  1.
         11    1    5    5    0    0  0.39307703640E+03  0.25307786791E+03  0.14603737811E+03  0.48978044017E+03  0.00000000000E+00 0. -1.
        -11    1    5    5    0    0  0.33569511220E+02  0.17738574937E+02 -0.13862404846E+02  0.40419492729E+02  0.00000000000E+00 0.  1.
          3    1    6    6  503    0 -0.42774905356E+02  0.96711408605E+01 -0.26472332249E+03  0.26833125230E+03  0.00000000000E+00 0. -1.
         -3    1    6    6    0  503 -0.24485504320E+02 -0.77650841193E+02 -0.24760203528E+03  0.26064527798E+03  0.00000000000E+00 0.  1.
<mgrwt>
<rscale>  0 0.14111004E+04</rscale>
<asrwt>0</asrwt>
<pdfrwt beam="1">  1        2 0.15446038E+00 0.14111004E+04</pdfrwt>
<pdfrwt beam="2">  1       -1 0.76280235E-01 0.14111004E+04</pdfrwt>
<totfact> 0.47949115E+01</totfact>
</mgrwt>
</event>
<event>
12    6  0.1586493E-007  0.1190241E+04  0.7818608E-02  0.9121442E-01
          2   -1    0    0  501    0  0.00000000000E+00  0.00000000000E+00  0.30043681594E+04  0.30043681594E+04  0.00000000000E+00 0. -1.
         -1   -1    0    0    0  501 -0.00000000000E+00 -0.00000000000E+00 -0.11788441667E+03  0.11788441667E+03  0.00000000000E+00 0.  1.
         24    2    1    2    0    0  0.86576795880E+02 -0.21739547274E+03  0.71892443684E+03  0.76033181083E+03  0.80596423796E+02 0.  0.
        254    2    1    2    0    0 -0.86576795880E+02  0.21739547274E+03  0.21675593059E+04  0.23619207653E+04  0.90862534829E+03 0.  0.
         23    2    4    4    0    0  0.10742794463E+03 -0.23808757624E+03  0.15020285257E+04  0.15273139796E+04  0.91497774447E+02 0.  0.
         23    2    4    4    0    0 -0.19400474051E+03  0.45548304898E+03  0.66553078016E+03  0.83460678570E+03  0.92383007893E+02 0.  0.
          2    1    3    3  502    0  0.30335634974E+02 -0.28010316058E+02  0.21764206204E+03  0.22152402968E+03  0.00000000000E+00 0. -1.
         -1    1    3    3    0  502  0.56241160906E+02 -0.18938515668E+03  0.50128237479E+03  0.53880778115E+03  0.00000000000E+00 0.  1.
         11    1    5    5    0    0  0.25660035159E+02 -0.16217175149E+03  0.82963324895E+03  0.84572421164E+03  0.00000000000E+00 0.  1.
        -11    1    5    5    0    0  0.81767909474E+02 -0.75915824751E+02  0.67239527680E+03  0.68158976791E+03  0.00000000000E+00 0. -1.
          1    1    6    6  503    0 -0.50410752752E+02  0.48102500320E+02  0.68548440220E+02  0.97744479059E+02  0.00000000000E+00 0. -1.
         -1    1    6    6    0  503 -0.14359398776E+03  0.40738054866E+03  0.59698233994E+03  0.73686230664E+03  0.00000000000E+00 0.  1.
<mgrwt>
<rscale>  0 0.11902406E+04</rscale>
<asrwt>0</asrwt>
<pdfrwt beam="1">  1        2 0.46221043E+00 0.11902406E+04</pdfrwt>
<pdfrwt beam="2">  1       -1 0.18136066E-01 0.11902406E+04</pdfrwt>
<totfact> 0.47561834E+01</totfact>
</mgrwt>
</event>
<event>
12    6  0.1586493E-007  0.1945580E+04  0.7818608E-02  0.8632495E-01
         -1   -1    0    0    0  501 -0.00000000000E+00  0.00000000000E+00  0.93290525187E+03  0.93290525187E+03  0.00000000000E+00 0.  1.
          2   -1    0    0  501    0  0.00000000000E+00 -0.00000000000E+00 -0.10143802564E+04  0.10143802564E+04  0.00000000000E+00 0. -1.
         24    2    1    2    0    0  0.35221140650E+02  0.55207605492E+03 -0.54799774929E+03  0.78278495302E+03  0.80138943568E+02 0.  0.
        254    2    1    2    0    0 -0.35221140650E+02 -0.55207605492E+03  0.46652274474E+03  0.11645005553E+04  0.91235386375E+03 0.  0.
         23    2    4    4    0    0 -0.42805607942E+03 -0.34859537158E+03  0.74635287228E+02  0.56648451525E+03  0.10287633208E+03 0.  0.
         23    2    4    4    0    0  0.39283493877E+03 -0.20348068334E+03  0.39188745751E+03  0.59801604003E+03  0.91234462591E+02 0.  0.
          4    1    3    3  502    0  0.17831260837E+02  0.22122395747E+03 -0.27572038478E+03  0.35394875873E+03  0.00000000000E+00 0. -1.
         -1    1    3    3    0  502  0.17389879813E+02  0.33085209745E+03 -0.27227736451E+03  0.42883619429E+03  0.00000000000E+00 0.  1.
         11    1    5    5    0    0 -0.21607230846E+03 -0.22357635418E+03  0.59685951348E+01  0.31098111318E+03  0.00000000000E+00 0. -1.
        -11    1    5    5    0    0 -0.21198377096E+03 -0.12501901740E+03  0.68666692093E+02  0.25550340206E+03  0.00000000000E+00 0.  1.
          4    1    6    6  503    0  0.38197537794E+03 -0.17321883918E+03  0.35992814348E+03  0.55268275174E+03  0.00000000000E+00 0.  1.
         -4    1    6    6    0  503  0.10859560825E+02 -0.30261844167E+02  0.31959314039E+02  0.45333288293E+02  0.00000000000E+00 0. -1.
<mgrwt>
<rscale>  0 0.19455803E+04</rscale>
<asrwt>0</asrwt>
<pdfrwt beam="1">  1        2 0.15605850E+00 0.19455803E+04</pdfrwt>
<pdfrwt beam="2">  1       -1 0.14352389E+00 0.19455803E+04</pdfrwt>
<totfact> 0.10305807E+01</totfact>
</mgrwt>
</event>
<event>
12    6  0.1586493E-007  0.1423081E+04  0.7818608E-02  0.8937279E-01
          2   -1    0    0  501    0  0.00000000000E+00  0.00000000000E+00  0.21308109481E+04  0.21308109481E+04  0.00000000000E+00 0. -1.
         -1   -1    0    0    0  501 -0.00000000000E+00 -0.00000000000E+00 -0.23760427940E+03  0.23760427940E+03  0.00000000000E+00 0.  1.
         24    2    1    2    0    0  0.12553450307E+03 -0.32865175886E+03  0.94292777489E+03  0.10095030976E+04  0.78821478094E+02 0.  0.
        254    2    1    2    0    0 -0.12553450307E+03  0.32865175886E+03  0.95027889379E+03  0.13589121298E+04  0.90545088800E+03 0.  0.
         23    2    4    4    0    0 -0.44456870462E+03 -0.54165884397E+02  0.52933327115E+03  0.70001451305E+03  0.96183836348E+02 0.  0.
         23    2    4    4    0    0  0.31903420156E+03  0.38281764326E+03  0.42094562265E+03  0.65889761679E+03  0.92836859226E+02 0.  0.
          4    1    3    3  502    0  0.11899243425E+03 -0.33212537174E+03  0.92888452458E+03  0.99362614799E+03  0.00000000000E+00 0. -1.
         -3    1    3    3    0  502  0.65420688147E+01  0.34736128747E+01  0.14043250308E+02  0.15876949643E+02  0.00000000000E+00 0.  1.
         11    1    5    5    0    0 -0.27265043116E+03  0.60417505020E+01  0.27617527114E+03  0.38813340587E+03  0.00000000000E+00 0. -1.
        -11    1    5    5    0    0 -0.17191827347E+03 -0.60207634899E+02  0.25315800000E+03  0.31188110718E+03  0.00000000000E+00 0.  1.
          4    1    6    6  503    0  0.25055332000E+03  0.24053783724E+03  0.31368329587E+03  0.46800921723E+03  0.00000000000E+00 0.  1.
         -4    1    6    6    0  503  0.68480881559E+02  0.14227980602E+03  0.10726232678E+03  0.19088839956E+03  0.00000000000E+00 0. -1.
<mgrwt>
<rscale>  0 0.14230809E+04</rscale>
<asrwt>0</asrwt>
<pdfrwt beam="1">  1        2 0.32781706E+00 0.14230809E+04</pdfrwt>
<pdfrwt beam="2">  1       -1 0.36554506E-01 0.14230809E+04</pdfrwt>
<totfact> 0.44897527E+01</totfact>
</mgrwt>
</event>
<event>
12    6  0.1586493E-007  0.1865049E+04  0.7818608E-02  0.8672452E-01
          2   -1    0    0  501    0  0.00000000000E+00  0.00000000000E+00  0.10133682148E+04  0.10133682148E+04  0.00000000000E+00 0. -1.
         -1   -1    0    0    0  501 -0.00000000000E+00 -0.00000000000E+00 -0.85813029502E+03  0.85813029502E+03  0.00000000000E+00 0.  1.
         24    2    1    2    0    0 -0.69249889545E+03 -0.70486344040E+02  0.21137474189E+03  0.73151372784E+03  0.76876573953E+02 0.  0.
        254    2    1    2    0    0  0.69249889545E+03  0.70486344040E+02 -0.56136822087E+02  0.11399847820E+04  0.90104989625E+03 0.  0.
         23    2    4    4    0    0  0.32581668005E+03  0.47540575898E+03 -0.15889775830E+02  0.58386020529E+03  0.92049495784E+02 0.  0.
         23    2    4    4    0    0  0.36668221539E+03 -0.40491941494E+03 -0.40247046257E+02  0.55612457672E+03  0.96120447449E+02 0.  0.
          4    1    3    3  502    0 -0.34012348201E+03 -0.10312689852E+01  0.83006318057E+02  0.35010726266E+03  0.00000000000E+00 0. -1.
         -3    1    3    3    0  502 -0.35237541344E+03 -0.69455075054E+02  0.12836842383E+03  0.38140646518E+03  0.00000000000E+00 0.  1.
         11    1    5    5    0    0  0.28504789179E+03  0.43660868839E+03 -0.39315291720E+02  0.52290069761E+03  0.00000000000E+00 0.  1.
        -11    1    5    5    0    0  0.40768788258E+02  0.38797070591E+02  0.23425515890E+02  0.60959507685E+02  0.00000000000E+00 0. -1.
          3    1    6    6  503    0  0.64468574547E+02 -0.13137734401E+03 -0.22959910665E+02  0.14813291708E+03  0.00000000000E+00 0. -1.
         -3    1    6    6    0  503  0.30221364085E+03 -0.27354207093E+03 -0.17287135592E+02  0.40799165964E+03  0.00000000000E+00 0.  1.
<mgrwt>
<rscale>  0 0.18650490E+04</rscale>
<asrwt>0</asrwt>
<pdfrwt beam="1">  1        2 0.15590280E+00 0.18650490E+04</pdfrwt>
<pdfrwt beam="2">  1       -1 0.13202005E+00 0.18650490E+04</pdfrwt>
<totfact> 0.12905062E+01</totfact>
</mgrwt>
</event>
<event>
12    6  0.1586493E-007  0.2233105E+04  0.7818608E-02  0.8504774E-01
          2   -1    0    0  501    0  0.00000000000E+00  0.00000000000E+00  0.28467665817E+04  0.28467665817E+04  0.00000000000E+00 0. -1.
         -1   -1    0    0    0  501 -0.00000000000E+00 -0.00000000000E+00 -0.43793161469E+03  0.43793161469E+03  0.00000000000E+00 0.  1.
         24    2    1    2    0    0 -0.51285952671E+03  0.77419804631E+03  0.96077670436E+03  0.13385292058E+04  0.78492357061E+02 0.  0.
        254    2    1    2    0    0  0.51285952671E+03 -0.77419804631E+03  0.14480582627E+04  0.19461689906E+04  0.91010631184E+03 0.  0.
         23    2    4    4    0    0 -0.23786039963E+03 -0.27855464443E+03  0.58510330907E+03  0.69636728565E+03  0.91712892200E+02 0.  0.
         23    2    4    4    0    0  0.75071992634E+03 -0.49564340188E+03  0.86295495358E+03  0.12498017049E+04  0.89834626517E+02 0.  0.
          2    1    3    3  502    0 -0.82843724752E+01  0.40158819257E+02  0.48610541998E+02  0.63595175798E+02  0.00000000000E+00 0. -1.
         -1    1    3    3    0  502 -0.50457515424E+03  0.73403922705E+03  0.91216616236E+03  0.12749340300E+04  0.00000000000E+00 0.  1.
         11    1    5    5    0    0 -0.17169266184E+02 -0.12201510441E+02  0.89795839876E+02  0.92233147064E+02  0.00000000000E+00 0.  1.
        -11    1    5    5    0    0 -0.22069113344E+03 -0.26635313399E+03  0.49530746919E+03  0.60413413859E+03  0.00000000000E+00 0. -1.
          4    1    6    6  503    0  0.59180370844E+03 -0.36372688585E+03  0.62176905980E+03  0.93226908162E+03  0.00000000000E+00 0. -1.
         -4    1    6    6    0  503  0.15891621790E+03 -0.13191651603E+03  0.24118589379E+03  0.31753262332E+03  0.00000000000E+00 0.  1.
<mgrwt>
<rscale>  0 0.22331046E+04</rscale>
<asrwt>0</asrwt>
<pdfrwt beam="1">  1        2 0.43796408E+00 0.22331046E+04</pdfrwt>
<pdfrwt beam="2">  1       -1 0.67374096E-01 0.22331046E+04</pdfrwt>
<totfact> 0.50156297E+00</totfact>
</mgrwt>
</event>
<event>
12    6  0.1586493E-007  0.2706774E+04  0.7818608E-02  0.8332810E-01
         -1   -1    0    0    0  501 -0.00000000000E+00  0.00000000000E+00  0.85271744258E+03  0.85271744258E+03  0.00000000000E+00 0.  1.
          2   -1    0    0  501    0  0.00000000000E+00 -0.00000000000E+00 -0.21480226875E+04  0.21480226875E+04  0.00000000000E+00 0. -1.
         24    2    1    2    0    0 -0.10265977372E+03 -0.65126417014E+03 -0.16921551184E+04  0.18176805403E+04  0.76743425672E+02 0.  0.
        254    2    1    2    0    0  0.10265977372E+03  0.65126417014E+03  0.39684987352E+03  0.11830595898E+04  0.89858562327E+03 0.  0.
         23    2    4    4    0    0  0.48302874133E+03  0.24622760474E+03  0.18145687768E+03  0.57918737622E+03  0.92664016928E+02 0.  0.
         23    2    4    4    0    0 -0.38036896761E+03  0.40503656540E+03  0.21539299584E+03  0.60387221354E+03  0.97633686791E+02 0.  0.
          2    1    3    3  502    0 -0.72951175312E+02 -0.30635845444E+03 -0.88743248064E+03  0.94165481164E+03  0.00000000000E+00 0. -1.
         -1    1    3    3    0  502 -0.29708598408E+02 -0.34490571570E+03 -0.80472263777E+03  0.87602572867E+03  0.00000000000E+00 0.  1.
         11    1    5    5    0    0  0.93813951304E+02  0.67460693996E+02  0.75304902691E+02  0.13792327963E+03  0.00000000000E+00 0. -1.
        -11    1    5    5    0    0  0.38921479002E+03  0.17876691074E+03  0.10615197499E+03  0.44126409659E+03  0.00000000000E+00 0.  1.
          4    1    6    6  503    0 -0.72948758759E+02  0.13630214858E+03  0.77209959364E+02  0.17280386262E+03  0.00000000000E+00 0. -1.
         -4    1    6    6    0  503 -0.30742020885E+03  0.26873441682E+03  0.13818303647E+03  0.43106835092E+03  0.00000000000E+00 0.  1.
<mgrwt>
<rscale>  0 0.27067740E+04</rscale>
<asrwt>0</asrwt>
<pdfrwt beam="1">  1        2 0.33046502E+00 0.27067740E+04</pdfrwt>
<pdfrwt beam="2">  1       -1 0.13118730E+00 0.27067740E+04</pdfrwt>
<totfact> 0.27295512E+00</totfact>
</mgrwt>
</event>
<event>
12    6  0.1586493E-007  0.3122105E+04  0.7818608E-02  0.8209697E-01
         -1   -1    0    0    0  501 -0.00000000000E+00  0.00000000000E+00  0.19379522807E+04  0.19379522807E+04  0.00000000000E+00 0.  1.
          2   -1    0    0  501    0  0.00000000000E+00 -0.00000000000E+00 -0.12574537047E+04  0.12574537047E+04  0.00000000000E+00 0. -1.
         24    2    1    2    0    0  0.82654518985E+03 -0.80740923424E+03  0.11714467700E+04  0.16473861940E+04  0.80666690279E+02 0.  0.
        254    2    1    2    0    0 -0.82654518985E+03  0.80740923424E+03 -0.49094819400E+03  0.15480197914E+04  0.90567572731E+03 0.  0.
         23    2    4    4    0    0 -0.62289114150E+03  0.89203950341E+03 -0.64207870487E+03  0.12665428847E+04  0.90210674597E+02 0.  0.
         23    2    4    4    0    0 -0.20365404836E+03 -0.84630269174E+02  0.15113051087E+03  0.28147690669E+03  0.88042965695E+02 0.  0.
          2    1    3    3  502    0  0.48156015968E+03 -0.41561985281E+03  0.63111363485E+03  0.89607168772E+03  0.00000000000E+00 0. -1.
         -1    1    3    3    0  502  0.34498503017E+03 -0.39178938143E+03  0.54033313512E+03  0.75131450628E+03  0.00000000000E+00 0.  1.
         11    1    5    5    0    0 -0.52217034336E+03  0.69921508281E+03 -0.48683785975E+03  0.99928709648E+03  0.00000000000E+00 0. -1.
        -11    1    5    5    0    0 -0.10072079814E+03  0.19282442060E+03 -0.15524084512E+03  0.26725578825E+03  0.00000000000E+00 0.  1.
          3    1    6    6  503    0 -0.18004080378E+03 -0.94210809174E+02  0.10487912935E+03  0.22867006661E+03  0.00000000000E+00 0. -1.
         -3    1    6    6    0  503 -0.23613244581E+02  0.95805400001E+01  0.46251381521E+02  0.52806840077E+02  0.00000000000E+00 0.  1.
<mgrwt>
<rscale>  0 0.31221052E+04</rscale>
<asrwt>0</asrwt>
<pdfrwt beam="1">  1        2 0.19345442E+00 0.31221052E+04</pdfrwt>
<pdfrwt beam="2">  1       -1 0.29814650E+00 0.31221052E+04</pdfrwt>
<totfact> 0.57380237E-01</totfact>
</mgrwt>
</event>
<event>
12    6  0.1586493E-007  0.1871892E+04  0.7818608E-02  0.8668975E-01
          2   -1    0    0  501    0  0.00000000000E+00  0.00000000000E+00  0.49029582639E+03  0.49029582639E+03  0.00000000000E+00 0. -1.
         -1   -1    0    0    0  501 -0.00000000000E+00 -0.00000000000E+00 -0.17866657596E+04  0.17866657596E+04  0.00000000000E+00 0.  1.
         24    2    1    2    0    0 -0.27161743083E+02  0.52929023611E+03 -0.10808160384E+04  0.12062023100E+04  0.76647175681E+02 0.  0.
        254    2    1    2    0    0  0.27161743083E+02 -0.52929023611E+03 -0.21555389476E+03  0.10707592759E+04  0.90508343873E+03 0.  0.
         23    2    4    4    0    0  0.16023080936E+03 -0.67516705999E+03  0.76995527026E+02  0.70404342576E+03  0.90688273778E+02 0.  0.
         23    2    4    4    0    0 -0.13306906628E+03  0.14587682388E+03 -0.29254942179E+03  0.36671585015E+03  0.99538567486E+02 0.  0.
          4    1    3    3  502    0  0.20911927203E+02  0.10234558285E+03 -0.24769836890E+03  0.26882412277E+03  0.00000000000E+00 0. -1.
         -3    1    3    3    0  502 -0.48073670287E+02  0.42694465326E+03 -0.83311766951E+03  0.93737818727E+03  0.00000000000E+00 0.  1.
         11    1    5    5    0    0 -0.11100614781E+01 -0.25883534975E+02  0.19736160768E+02  0.32568476494E+02  0.00000000000E+00 0. -1.
        -11    1    5    5    0    0  0.16134087084E+03 -0.64928352502E+03  0.57259366258E+02  0.67147494926E+03  0.00000000000E+00 0.  1.
          1    1    6    6  503    0 -0.10868222860E+03  0.49958393547E+02 -0.13219327904E+03  0.17827711833E+03  0.00000000000E+00 0. -1.
         -1    1    6    6    0  503 -0.24386837675E+02  0.95918430336E+02 -0.16035614276E+03  0.18843873182E+03  0.00000000000E+00 0.  1.
<mgrwt>
<rscale>  0 0.18718918E+04</rscale>
<asrwt>0</asrwt>
<pdfrwt beam="1">  1        2 0.75430127E-01 0.18718918E+04</pdfrwt>
<pdfrwt beam="2">  1       -1 0.27487165E+00 0.18718918E+04</pdfrwt>
<totfact> 0.32479081E+00</totfact>
</mgrwt>
</event>
<event>
12    6  0.1586493E-007  0.1235027E+04  0.7818608E-02  0.9082738E-01
         -1   -1    0    0    0  501 -0.00000000000E+00  0.00000000000E+00  0.42449178431E+03  0.42449178431E+03  0.00000000000E+00 0.  1.
          2   -1    0    0  501    0  0.00000000000E+00 -0.00000000000E+00 -0.89830475752E+03  0.89830475752E+03  0.00000000000E+00 0. -1.
         24    2    1    2    0    0 -0.20735880518E+03  0.18589135980E+03 -0.31248686486E+02  0.29204215939E+03  0.82212351383E+02 0.  0.
        254    2    1    2    0    0  0.20735880518E+03 -0.18589135980E+03 -0.44256428673E+03  0.10307543824E+04  0.88827820940E+03 0.  0.
         23    2    4    4    0    0  0.29099259849E+03  0.22639986490E+03  0.42531605488E+02  0.38210913431E+03  0.90911285644E+02 0.  0.
         23    2    4    4    0    0 -0.83633793304E+02 -0.41229122470E+03 -0.48509589222E+03  0.64864524813E+03  0.91891065546E+02 0.  0.
          4    1    3    3  502    0  0.25646634811E+01  0.96752678095E+01 -0.14278013982E+02  0.17437029255E+02  0.00000000000E+00 0. -1.
         -3    1    3    3    0  502 -0.20992346866E+03  0.17621609199E+03 -0.16970672504E+02  0.27460513014E+03  0.00000000000E+00 0.  1.
         11    1    5    5    0    0  0.19500498080E+03  0.14832523564E+03  0.71120723052E+02  0.25511855149E+03  0.00000000000E+00 0. -1.
        -11    1    5    5    0    0  0.95987617685E+02  0.78074629259E+02 -0.28589117564E+02  0.12699058282E+03  0.00000000000E+00 0.  1.
          3    1    6    6  503    0 -0.10300419240E+03 -0.35118502594E+03 -0.40095913864E+03  0.54287108687E+03  0.00000000000E+00 0. -1.
         -3    1    6    6    0  503  0.19370399100E+02 -0.61106198758E+02 -0.84136753572E+02  0.10577416126E+03  0.00000000000E+00 0.  1.
<mgrwt>
<rscale>  0 0.12350271E+04</rscale>
<asrwt>0</asrwt>
<pdfrwt beam="1">  1        2 0.13820073E+00 0.12350271E+04</pdfrwt>
<pdfrwt beam="2">  1       -1 0.65306430E-01 0.12350271E+04</pdfrwt>
<totfact> 0.78522985E+01</totfact>
</mgrwt>
</event>
<event>
12    6  0.1586493E-007  0.2028146E+04  0.7818608E-02  0.8593573E-01
         -1   -1    0    0    0  501 -0.00000000000E+00  0.00000000000E+00  0.65829483870E+03  0.65829483870E+03  0.00000000000E+00 0.  1.
          2   -1    0    0  501    0  0.00000000000E+00 -0.00000000000E+00 -0.15621336426E+04  0.15621336426E+04  0.00000000000E+00 0. -1.
         24    2    1    2    0    0  0.14865817438E+03  0.43788766128E+03 -0.10944396589E+04  0.11908955290E+04  0.81173502209E+02 0.  0.
        254    2    1    2    0    0 -0.14865817438E+03 -0.43788766128E+03  0.19060085498E+03  0.10295329522E+04  0.89986918890E+03 0.  0.
         23    2    4    4    0    0  0.37026037154E+03 -0.15589694789E+03  0.46764911828E+02  0.41507963570E+03  0.93314232038E+02 0.  0.
         23    2    4    4    0    0 -0.51891854592E+03 -0.28199071339E+03  0.14383594315E+03  0.61445331655E+03  0.89826944361E+02 0.  0.
          4    1    3    3  502    0  0.62908607924E+02  0.29855985533E+03 -0.67900914085E+03  0.74441177686E+03  0.00000000000E+00 0. -1.
         -3    1    3    3    0  502  0.85749566457E+02  0.13932780595E+03 -0.41543051800E+03  0.44648375216E+03  0.00000000000E+00 0.  1.
         11    1    5    5    0    0  0.10051438085E+03 -0.44119395607E+01 -0.78803641599E+01  0.10091930493E+03  0.00000000000E+00 0.  1.
        -11    1    5    5    0    0  0.26974599069E+03 -0.15148500833E+03  0.54645275988E+02  0.31416033077E+03  0.00000000000E+00 0. -1.
          1    1    6    6  503    0 -0.33061424894E+03 -0.13007770270E+03  0.92447548637E+02  0.36711379651E+03  0.00000000000E+00 0. -1.
         -1    1    6    6    0  503 -0.18830429698E+03 -0.15191301069E+03  0.51388394516E+02  0.24733952003E+03  0.00000000000E+00 0.  1.
<mgrwt>
<rscale>  0 0.20281465E+04</rscale>
<asrwt>0</asrwt>
<pdfrwt beam="1">  1        2 0.24032825E+00 0.20281465E+04</pdfrwt>
<pdfrwt beam="2">  1       -1 0.10127613E+00 0.20281465E+04</pdfrwt>
<totfact> 0.11447973E+01</totfact>
</mgrwt>
</event>
<event>
12    6  0.1586493E-007  0.1503084E+04  0.7818608E-02  0.8882405E-01
          2   -1    0    0  501    0  0.00000000000E+00  0.00000000000E+00  0.81034777025E+03  0.81034777025E+03  0.00000000000E+00 0. -1.
         -1   -1    0    0    0  501 -0.00000000000E+00 -0.00000000000E+00 -0.69700367873E+03  0.69700367873E+03  0.00000000000E+00 0.  1.
         24    2    1    2    0    0  0.42680035806E+02  0.45627167617E+03 -0.11221082049E+03  0.47888971113E+03  0.82089337085E+02 0.  0.
        254    2    1    2    0    0 -0.42680035806E+02 -0.45627167617E+03  0.22555491201E+03  0.10284617378E+04  0.89266628700E+03 0.  0.
         23    2    4    4    0    0  0.35035446298E+03 -0.37202259654E+03  0.31427549139E+03  0.60687551105E+03  0.91540916343E+02 0.  0.
         23    2    4    4    0    0 -0.39303449878E+03 -0.84249079628E+02 -0.88720579378E+02  0.42158622679E+03  0.91047134819E+02 0.  0.
          2    1    3    3  502    0 -0.22697677859E+02  0.89573225687E+02 -0.12123150490E+02  0.93196127162E+02  0.00000000000E+00 0. -1.
         -3    1    3    3    0  502  0.65377713665E+02  0.36669845048E+03 -0.10008767000E+03  0.38569358397E+03  0.00000000000E+00 0.  1.
         11    1    5    5    0    0  0.31009633856E+01 -0.35340861263E+02  0.22522655358E+02  0.42022166211E+02  0.00000000000E+00 0.  1.
        -11    1    5    5    0    0  0.34725349959E+03 -0.33668173528E+03  0.29175283603E+03  0.56485334484E+03  0.00000000000E+00 0. -1.
          2    1    6    6  503    0 -0.39104973451E+03 -0.74097626804E+02 -0.76013911747E+02  0.40520176201E+03  0.00000000000E+00 0. -1.
         -2    1    6    6    0  503 -0.19847642725E+01 -0.10151452823E+02 -0.12706667630E+02  0.16384464773E+02  0.00000000000E+00 0.  1.
<mgrwt>
<rscale>  0 0.15030840E+04</rscale>
<asrwt>0</asrwt>
<pdfrwt beam="1">  1        2 0.12466889E+00 0.15030840E+04</pdfrwt>
<pdfrwt beam="2">  1       -1 0.10723133E+00 0.15030840E+04</pdfrwt>
<totfact> 0.30273775E+01</totfact>
</mgrwt>
</event>
<event>
12    6  0.1586493E-007  0.1242895E+04  0.7818608E-02  0.9076118E-01
         -1   -1    0    0    0  501 -0.00000000000E+00  0.00000000000E+00  0.17619326956E+03  0.17619326956E+03  0.00000000000E+00 0.  1.
          2   -1    0    0  501    0  0.00000000000E+00 -0.00000000000E+00 -0.21918930146E+04  0.21918930146E+04  0.00000000000E+00 0. -1.
         24    2    1    2    0    0 -0.17710898554E+03 -0.10380918393E+03 -0.69303063981E+03  0.72679708464E+03  0.76148506858E+02 0.  0.
        254    2    1    2    0    0  0.17710898554E+03  0.10380918393E+03 -0.13226691052E+04  0.16412891995E+04  0.94985932384E+03 0.  0.
         23    2    4    4    0    0 -0.15602286896E+03  0.44382869348E+03 -0.56031811394E+03  0.73784358614E+03  0.95549589232E+02 0.  0.
         23    2    4    4    0    0  0.33313185450E+03 -0.34001950955E+03 -0.76235099130E+03  0.90344561338E+03  0.91895827199E+02 0.  0.
          2    1    3    3  502    0 -0.14480479270E+03 -0.75698012519E+02 -0.62818366761E+03  0.64908654072E+03  0.00000000000E+00 0. -1.
         -1    1    3    3    0  502 -0.32304192837E+02 -0.28111171410E+02 -0.64846972197E+02  0.77710543918E+02  0.00000000000E+00 0.  1.
         11    1    5    5    0    0 -0.81230319491E+02  0.20929985209E+03 -0.19525783490E+03  0.29754061064E+03  0.00000000000E+00 0. -1.
        -11    1    5    5    0    0 -0.74792549464E+02  0.23452884138E+03 -0.36506027904E+03  0.44030297550E+03  0.00000000000E+00 0.  1.
          4    1    6    6  503    0  0.31706608613E+03 -0.28110748203E+03 -0.66761535739E+03  0.79073547085E+03  0.00000000000E+00 0. -1.
         -4    1    6    6    0  503  0.16065768364E+02 -0.58912027517E+02 -0.94735633903E+02  0.11271014254E+03  0.00000000000E+00 0.  1.
<mgrwt>
<rscale>  0 0.12428947E+04</rscale>
<asrwt>0</asrwt>
<pdfrwt beam="1">  1        2 0.33721435E+00 0.12428947E+04</pdfrwt>
<pdfrwt beam="2">  1       -1 0.27106653E-01 0.12428947E+04</pdfrwt>
<totfact> 0.71422983E+01</totfact>
</mgrwt>
</event>
<event>
12    6  0.1586493E-007  0.1405202E+04  0.7818608E-02  0.8950062E-01
         -1   -1    0    0    0  501 -0.00000000000E+00  0.00000000000E+00  0.20978802102E+03  0.20978802102E+03  0.00000000000E+00 0.  1.
          2   -1    0    0  501    0  0.00000000000E+00 -0.00000000000E+00 -0.23530793204E+04  0.23530793204E+04  0.00000000000E+00 0. -1.
         24    2    1    2    0    0 -0.63212639441E+02 -0.39361719042E+03 -0.51779381253E+03  0.65825490582E+03  0.79112314860E+02 0.  0.
        254    2    1    2    0    0  0.63212639441E+02  0.39361719042E+03 -0.16254974869E+04  0.19046124356E+04  0.90905231957E+03 0.  0.
         23    2    4    4    0    0  0.31508935550E+03  0.32272349767E+03 -0.15512225073E+04  0.16177986741E+04  0.86888002304E+02 0.  0.
         23    2    4    4    0    0 -0.25187671606E+03  0.70893692750E+02 -0.74274979603E+02  0.28681376153E+03  0.90981126859E+02 0.  0.
          2    1    3    3  502    0 -0.35258278773E+02 -0.65544542501E+02 -0.67905020536E+02  0.10074882177E+03  0.00000000000E+00 0. -1.
         -1    1    3    3    0  502 -0.27954360668E+02 -0.32807264792E+03 -0.44988879199E+03  0.55750608405E+03  0.00000000000E+00 0.  1.
         11    1    5    5    0    0  0.15136841961E+03  0.11979066957E+03 -0.78667061310E+03  0.81000793606E+03  0.00000000000E+00 0.  1.
        -11    1    5    5    0    0  0.16372093589E+03  0.20293282811E+03 -0.76455189419E+03  0.80779073805E+03  0.00000000000E+00 0. -1.
          3    1    6    6  503    0 -0.42628157792E+02  0.58817295347E+00 -0.48494665003E+02  0.64569639289E+02  0.00000000000E+00 0. -1.
         -3    1    6    6    0  503 -0.20924855826E+03  0.70305519797E+02 -0.25780314601E+02  0.22224412224E+03  0.00000000000E+00 0.  1.
<mgrwt>
<rscale>  0 0.14052016E+04</rscale>
<asrwt>0</asrwt>
<pdfrwt beam="1">  1        2 0.36201220E+00 0.14052016E+04</pdfrwt>
<pdfrwt beam="2">  1       -1 0.32275080E-01 0.14052016E+04</pdfrwt>
<totfact> 0.42129991E+01</totfact>
</mgrwt>
</event>
<event>
12    6  0.1586493E-007  0.1578554E+04  0.7818608E-02  0.8833832E-01
         -1   -1    0    0    0  501 -0.00000000000E+00  0.00000000000E+00  0.31012837404E+04  0.31012837404E+04  0.00000000000E+00 0.  1.
          2   -1    0    0  501    0  0.00000000000E+00 -0.00000000000E+00 -0.20087118805E+03  0.20087118805E+03  0.00000000000E+00 0. -1.
         24    2    1    2    0    0  0.31784423422E+03  0.14248620587E+03  0.14656704708E+03  0.38637252853E+03  0.80464622199E+02 0.  0.
        254    2    1    2    0    0 -0.31784423422E+03 -0.14248620587E+03  0.27538455053E+04  0.29157823999E+04  0.89263355340E+03 0.  0.
         23    2    4    4    0    0 -0.49100394207E+03 -0.27543253442E+03  0.10403500582E+04  0.11860774804E+04  0.86623286842E+02 0.  0.
         23    2    4    4    0    0  0.17315970785E+03  0.13294632855E+03  0.17134954471E+04  0.17297049195E+04  0.90296459961E+02 0.  0.
          2    1    3    3  502    0  0.21940341255E+03  0.56194576189E+02  0.88455900290E+02  0.24314632247E+03  0.00000000000E+00 0. -1.
         -1    1    3    3    0  502  0.98440821669E+02  0.86291629678E+02  0.58111146786E+02  0.14322620607E+03  0.00000000000E+00 0.  1.
         11    1    5    5    0    0 -0.75114502288E+00 -0.92234556992E+01  0.36245950303E+02  0.37408625573E+02  0.00000000000E+00 0. -1.
        -11    1    5    5    0    0 -0.49025279704E+03 -0.26620907872E+03  0.10041041079E+04  0.11486688548E+04  0.00000000000E+00 0.  1.
          2    1    6    6  503    0  0.21885831148E+02  0.21930753468E+02  0.57637374232E+03  0.57720588908E+03  0.00000000000E+00 0. -1.
         -2    1    6    6    0  503  0.15127387670E+03  0.11101557508E+03  0.11371217048E+04  0.11524990304E+04  0.00000000000E+00 0.  1.
<mgrwt>
<rscale>  0 0.15785545E+04</rscale>
<asrwt>0</asrwt>
<pdfrwt beam="1">  1        2 0.30903262E-01 0.15785545E+04</pdfrwt>
<pdfrwt beam="2">  1       -1 0.47712054E+00 0.15785545E+04</pdfrwt>
<totfact> 0.40125517E-01</totfact>
</mgrwt>
</event>
<event>
12    6  0.1586493E-007  0.1333928E+04  0.7818608E-02  0.9003084E-01
          2   -1    0    0  501    0  0.00000000000E+00  0.00000000000E+00  0.13291300786E+04  0.13291300786E+04  0.00000000000E+00 0. -1.
         -1   -1    0    0    0  501 -0.00000000000E+00 -0.00000000000E+00 -0.33468584009E+03  0.33468584009E+03  0.00000000000E+00 0.  1.
         24    2    1    2    0    0 -0.14854235704E+03  0.10851282029E+03  0.63926972218E+03  0.67020271288E+03  0.81645787714E+02 0.  0.
        254    2    1    2    0    0  0.14854235704E+03 -0.10851282029E+03  0.35517451636E+03  0.99361320583E+03  0.90954846035E+03 0.  0.
         23    2    4    4    0    0  0.92945900369E+02  0.78707027209E+02  0.62769757237E+03  0.64590643522E+03  0.91417417205E+02 0.  0.
         23    2    4    4    0    0  0.55596456671E+02 -0.18721984750E+03 -0.27252305601E+03  0.34770677061E+03  0.92135470811E+02 0.  0.
          4    1    3    3  502    0 -0.11009331597E+03  0.50024094300E+02  0.49894541190E+03  0.51339017548E+03  0.00000000000E+00 0. -1.
         -3    1    3    3    0  502 -0.38449041071E+02  0.58488725992E+02  0.14032431028E+03  0.15681253739E+03  0.00000000000E+00 0.  1.
         11    1    5    5    0    0  0.35842556181E+02  0.87288975490E+02  0.37400368006E+03  0.38572374412E+03  0.00000000000E+00 0.  1.
        -11    1    5    5    0    0  0.57103344188E+02 -0.85819482813E+01  0.25369389231E+03  0.26018269110E+03  0.00000000000E+00 0. -1.
          4    1    6    6  503    0  0.77661668956E+01 -0.11669948218E+03 -0.21545011293E+03  0.24514859504E+03  0.00000000000E+00 0. -1.
         -4    1    6    6    0  503  0.47830289775E+02 -0.70520365323E+02 -0.57072943081E+02  0.10255817557E+03  0.00000000000E+00 0.  1.
<mgrwt>
<rscale>  0 0.13339281E+04</rscale>
<asrwt>0</asrwt>
<pdfrwt beam="1">  1        2 0.20448155E+00 0.13339281E+04</pdfrwt>
<pdfrwt beam="2">  1       -1 0.51490130E-01 0.13339281E+04</pdfrwt>
<totfact> 0.67229644E+01</totfact>
</mgrwt>
</event>
<event>
12    6  0.1586493E-007  0.1937059E+04  0.7818608E-02  0.8636626E-01
          2   -1    0    0  501    0  0.00000000000E+00  0.00000000000E+00  0.25617238294E+04  0.25617238294E+04  0.00000000000E+00 0. -1.
         -1   -1    0    0    0  501 -0.00000000000E+00 -0.00000000000E+00 -0.36617909096E+03  0.36617909096E+03  0.00000000000E+00 0.  1.
         24    2    1    2    0    0 -0.16189797200E+03  0.47833777069E+02  0.19727912967E+04  0.19815286658E+04  0.77790291607E+02 0.  0.
        254    2    1    2    0    0  0.16189797200E+03 -0.47833777069E+02  0.22275344167E+03  0.94637425450E+03  0.90416044496E+03 0.  0.
         23    2    4    4    0    0  0.26348002214E+02 -0.38653054525E+03 -0.14176292832E+03  0.42274566985E+03  0.92288102699E+02 0.  0.
         23    2    4    4    0    0  0.13554996978E+03  0.33869676818E+03  0.36451637000E+03  0.52362858464E+03  0.90694076835E+02 0.  0.
          4    1    3    3  502    0 -0.15101057761E+03  0.16971586540E+02  0.17009466784E+04  0.17077212395E+04  0.00000000000E+00 0. -1.
         -3    1    3    3    0  502 -0.10887394393E+02  0.30862190529E+02  0.27184461838E+03  0.27380742631E+03  0.00000000000E+00 0.  1.
         11    1    5    5    0    0  0.32107182794E+02 -0.40264607810E+02 -0.11678829135E+02  0.52806295828E+02  0.00000000000E+00 0.  1.
        -11    1    5    5    0    0 -0.57591805793E+01 -0.34626593744E+03 -0.13008409919E+03  0.36993937403E+03  0.00000000000E+00 0. -1.
          2    1    6    6  503    0  0.97662345118E+02  0.24674637742E+03  0.20366549655E+03  0.33451658092E+03  0.00000000000E+00 0. -1.
         -2    1    6    6    0  503  0.37887624666E+02  0.91950390762E+02  0.16085087344E+03  0.18911200372E+03  0.00000000000E+00 0.  1.
<mgrwt>
<rscale>  0 0.19370593E+04</rscale>
<asrwt>0</asrwt>
<pdfrwt beam="1">  1        2 0.39411135E+00 0.19370593E+04</pdfrwt>
<pdfrwt beam="2">  1       -1 0.56335246E-01 0.19370593E+04</pdfrwt>
<totfact> 0.10871693E+01</totfact>
</mgrwt>
</event>
<event>
12    6  0.1586493E-007  0.1551716E+04  0.7818608E-02  0.8850772E-01
         -1   -1    0    0    0  501 -0.00000000000E+00  0.00000000000E+00  0.10083259015E+04  0.10083259015E+04  0.00000000000E+00 0.  1.
          2   -1    0    0  501    0  0.00000000000E+00 -0.00000000000E+00 -0.59698513784E+03  0.59698513784E+03  0.00000000000E+00 0. -1.
         24    2    1    2    0    0 -0.35800807060E+03  0.23791675122E+03 -0.15403901901E+03  0.46368580847E+03  0.80637153175E+02 0.  0.
        254    2    1    2    0    0  0.35800807060E+03 -0.23791675122E+03  0.56537978263E+03  0.11416252308E+04  0.89380071042E+03 0.  0.
         23    2    4    4    0    0 -0.27595413216E+03 -0.19324062349E+03  0.19904476470E+03  0.40175832516E+03  0.91095070463E+02 0.  0.
         23    2    4    4    0    0  0.63396220276E+03 -0.44676127733E+02  0.36633501793E+03  0.73986690567E+03  0.96424384027E+02 0.  0.
          2    1    3    3  502    0 -0.13188718317E+03  0.87469064585E+02 -0.98687440986E+02  0.18650543518E+03  0.00000000000E+00 0. -1.
         -1    1    3    3    0  502 -0.22612088743E+03  0.15044768663E+03 -0.55351578026E+02  0.27718037329E+03  0.00000000000E+00 0.  1.
         11    1    5    5    0    0 -0.28210547488E+03 -0.19396280387E+03  0.19255805504E+03  0.39278960374E+03  0.00000000000E+00 0.  1.
        -11    1    5    5    0    0  0.61513427247E+01  0.72218038023E+00  0.64867096585E+01  0.89687214257E+01  0.00000000000E+00 0. -1.
          1    1    6    6  503    0  0.33713351482E+03  0.11288006227E+02  0.15507227296E+03  0.37125979548E+03  0.00000000000E+00 0. -1.
         -1    1    6    6    0  503  0.29682868793E+03 -0.55964133960E+02  0.21126274496E+03  0.36860711019E+03  0.00000000000E+00 0.  1.
<mgrwt>
<rscale>  0 0.15517159E+04</rscale>
<asrwt>0</asrwt>
<pdfrwt beam="1">  1        2 0.91843868E-01 0.15517159E+04</pdfrwt>
<pdfrwt beam="2">  1       -1 0.15512706E+00 0.15517159E+04</pdfrwt>
<totfact> 0.17473504E+01</totfact>
</mgrwt>
</event>
<event>
12    6  0.1586493E-007  0.1210624E+04  0.7818608E-02  0.9103608E-01
         -1   -1    0    0    0  501 -0.00000000000E+00  0.00000000000E+00  0.25500684049E+04  0.25500684049E+04  0.00000000000E+00 0.  1.
          2   -1    0    0  501    0  0.00000000000E+00 -0.00000000000E+00 -0.14368334293E+03  0.14368334293E+03  0.00000000000E+00 0. -1.
         24    2    1    2    0    0  0.21352153735E+03  0.19889498641E+03  0.12520615613E+04  0.12881954866E+04  0.81478806734E+02 0.  0.
        254    2    1    2    0    0 -0.21352153735E+03 -0.19889498641E+03  0.11543235007E+04  0.14055562612E+04  0.74697723974E+03 0.  0.
         23    2    4    4    0    0  0.25419266968E+03 -0.36221767569E+02  0.58963807423E+03  0.64946951174E+03  0.90618200880E+02 0.  0.
         23    2    4    4    0    0 -0.46771420703E+03 -0.16267321884E+03  0.56468542648E+03  0.75608674950E+03  0.87053927592E+02 0.  0.
          4    1    3    3  502    0 -0.34571192849E+01 -0.31068163223E+01  0.45979880151E+02  0.46214211668E+02  0.00000000000E+00 0. -1.
         -3    1    3    3    0  502  0.21697865664E+03  0.20200180273E+03  0.12060816811E+04  0.12419812749E+04  0.00000000000E+00 0.  1.
         11    1    5    5    0    0  0.55850799624E+02  0.26120952775E+02  0.99449477301E+02  0.11701202728E+03  0.00000000000E+00 0.  1.
        -11    1    5    5    0    0  0.19834187005E+03 -0.62342720344E+02  0.49018859693E+03  0.53245748446E+03  0.00000000000E+00 0. -1.
          4    1    6    6  503    0 -0.42611154443E+03 -0.11887562675E+03  0.49688347580E+03  0.66527862693E+03  0.00000000000E+00 0. -1.
         -4    1    6    6    0  503 -0.41602662599E+02 -0.43797592093E+02  0.67801950680E+02  0.90808122569E+02  0.00000000000E+00 0.  1.
<mgrwt>
<rscale>  0 0.12106236E+04</rscale>
<asrwt>0</asrwt>
<pdfrwt beam="1">  1        2 0.22105132E-01 0.12106236E+04</pdfrwt>
<pdfrwt beam="2">  1       -1 0.39231818E+00 0.12106236E+04</pdfrwt>
<totfact> 0.23466408E+00</totfact>
</mgrwt>
</event>
<event>
12    6  0.1586493E-007  0.1774329E+04  0.7818608E-02  0.8720071E-01
          2   -1    0    0  501    0  0.00000000000E+00  0.00000000000E+00  0.20450969328E+04  0.20450969328E+04  0.00000000000E+00 0. -1.
         -1   -1    0    0    0  501 -0.00000000000E+00 -0.00000000000E+00 -0.38485258443E+03  0.38485258443E+03  0.00000000000E+00 0.  1.
         24    2    1    2    0    0 -0.11604191032E+03 -0.39033724836E+03  0.13366793960E+04  0.13994748208E+04  0.77389106830E+02 0.  0.
        254    2    1    2    0    0  0.11604191032E+03  0.39033724836E+03  0.32356495240E+03  0.10304746965E+04  0.88958132247E+03 0.  0.
         23    2    4    4    0    0  0.36953274015E+03  0.54685258665E+03  0.20874207899E+03  0.69841535118E+03  0.92782270176E+02 0.  0.
         23    2    4    4    0    0 -0.25349082983E+03 -0.15651533828E+03  0.11482287341E+03  0.33205934531E+03  0.91238504083E+02 0.  0.
          2    1    3    3  502    0 -0.37776974218E+02 -0.24879620131E+03  0.76266263634E+03  0.80310705790E+03  0.00000000000E+00 0. -1.
         -1    1    3    3    0  502 -0.78264936105E+02 -0.14154104705E+03  0.57401675965E+03  0.59636776287E+03  0.00000000000E+00 0.  1.
         11    1    5    5    0    0  0.29954488945E+02  0.12773957523E+02  0.18953200633E+02  0.37678498019E+02  0.00000000000E+00 0. -1.
        -11    1    5    5    0    0  0.33957825121E+03  0.53407862913E+03  0.18978887836E+03  0.66073685317E+03  0.00000000000E+00 0.  1.
          2    1    6    6  503    0 -0.68755895212E+01 -0.11265420136E+02 -0.13069438440E+02  0.18574004502E+02  0.00000000000E+00 0. -1.
         -2    1    6    6    0  503 -0.24661524031E+03 -0.14524991815E+03  0.12789231185E+03  0.31348534081E+03  0.00000000000E+00 0.  1.
<mgrwt>
<rscale>  0 0.17743290E+04</rscale>
<asrwt>0</asrwt>
<pdfrwt beam="1">  1        2 0.31463029E+00 0.17743290E+04</pdfrwt>
<pdfrwt beam="2">  1       -1 0.59208091E-01 0.17743290E+04</pdfrwt>
<totfact> 0.19645324E+01</totfact>
</mgrwt>
</event>
<event>
12    6  0.1586493E-007  0.1402704E+04  0.7818608E-02  0.8951863E-01
         -1   -1    0    0    0  501 -0.00000000000E+00  0.00000000000E+00  0.65887644051E+03  0.65887644051E+03  0.00000000000E+00 0.  1.
          2   -1    0    0  501    0  0.00000000000E+00 -0.00000000000E+00 -0.74656599422E+03  0.74656599422E+03  0.00000000000E+00 0. -1.
         24    2    1    2    0    0 -0.33069258316E+03 -0.10667660288E+03 -0.18607455467E+03  0.40238661805E+03  0.80955347758E+02 0.  0.
        254    2    1    2    0    0  0.33069258316E+03  0.10667660288E+03  0.98385000964E+02  0.10030558167E+04  0.93579051118E+03 0.  0.
         23    2    4    4    0    0 -0.19335978841E+03 -0.17383902187E+03  0.26125018912E+03  0.37991519688E+03  0.92064554555E+02 0.  0.
         23    2    4    4    0    0  0.52405237157E+03  0.28051562475E+03 -0.16286518816E+03  0.62314061981E+03  0.91974228279E+02 0.  0.
          4    1    3    3  502    0 -0.76980488863E+02 -0.17855291767E+02 -0.68788495950E+01  0.79322920278E+02  0.00000000000E+00 0. -1.
         -3    1    3    3    0  502 -0.25371209430E+03 -0.88821311112E+02 -0.17919570508E+03  0.32306369777E+03  0.00000000000E+00 0.  1.
         11    1    5    5    0    0 -0.19401764874E+03 -0.17415101952E+03  0.22709056226E+03  0.34574781140E+03  0.00000000000E+00 0.  1.
        -11    1    5    5    0    0  0.65786032868E+00  0.31199765615E+00  0.34159626865E+02  0.34167385477E+02  0.00000000000E+00 0. -1.
          3    1    6    6  503    0  0.19059331078E+02  0.80413207928E+01 -0.26011977507E+02  0.33234679404E+02  0.00000000000E+00 0. -1.
         -3    1    6    6    0  503  0.50499304049E+03  0.27247430395E+03 -0.13685321065E+03  0.58990594041E+03  0.00000000000E+00 0.  1.
<mgrwt>
<rscale>  0 0.14027042E+04</rscale>
<asrwt>0</asrwt>
<pdfrwt beam="1">  1        2 0.11485631E+00 0.14027042E+04</pdfrwt>
<pdfrwt beam="2">  1       -1 0.10136561E+00 0.14027042E+04</pdfrwt>
<totfact> 0.38745982E+01</totfact>
</mgrwt>
</event>
<event>
12    6  0.1586493E-007  0.1517940E+04  0.7818608E-02  0.8872610E-01
          2   -1    0    0  501    0  0.00000000000E+00  0.00000000000E+00  0.21875131395E+04  0.21875131395E+04  0.00000000000E+00 0. -1.
         -1   -1    0    0    0  501 -0.00000000000E+00 -0.00000000000E+00 -0.26332908104E+03  0.26332908104E+03  0.00000000000E+00 0.  1.
         24    2    1    2    0    0  0.34243646110E+03  0.10616084237E+03  0.11325926247E+04  0.11904743666E+04  0.77008503545E+02 0.  0.
        254    2    1    2    0    0 -0.34243646110E+03 -0.10616084237E+03  0.79159143378E+03  0.12603678540E+04  0.91289499667E+03 0.  0.
         23    2    4    4    0    0 -0.66206570802E+02  0.32838567638E+03  0.43920695884E+02  0.34815822970E+03  0.84051549138E+02 0.  0.
         23    2    4    4    0    0 -0.27622989029E+03 -0.43454651875E+03  0.74767073790E+03  0.91220962427E+03  0.89337769514E+02 0.  0.
          4    1    3    3  502    0  0.26088109648E+03  0.51354392518E+02  0.88563288389E+03  0.92468471663E+03  0.00000000000E+00 0. -1.
         -3    1    3    3    0  502  0.81555364614E+02  0.54806449848E+02  0.24695974083E+03  0.26578964997E+03  0.00000000000E+00 0.  1.
         11    1    5    5    0    0 -0.82465185483E+02  0.29961219217E+03  0.29668841770E+02  0.31216696283E+03  0.00000000000E+00 0. -1.
        -11    1    5    5    0    0  0.16258614681E+02  0.28773484214E+02  0.14251854114E+02  0.35991266869E+02  0.00000000000E+00 0.  1.
          4    1    6    6  503    0 -0.96711778632E+02 -0.10354846913E+03  0.15465353877E+03  0.20974549015E+03  0.00000000000E+00 0. -1.
         -4    1    6    6    0  503 -0.17951811166E+03 -0.33099804962E+03  0.59301719913E+03  0.70246413412E+03  0.00000000000E+00 0.  1.
<mgrwt>
<rscale>  0 0.15179405E+04</rscale>
<asrwt>0</asrwt>
<pdfrwt beam="1">  1        2 0.33654047E+00 0.15179405E+04</pdfrwt>
<pdfrwt beam="2">  1       -1 0.40512168E-01 0.15179405E+04</pdfrwt>
<totfact> 0.34351796E+01</totfact>
</mgrwt>
</event>
<event>
12    6  0.1586493E-007  0.1890642E+04  0.7818608E-02  0.8659528E-01
          2   -1    0    0  501    0  0.00000000000E+00  0.00000000000E+00  0.86695094262E+03  0.86695094262E+03  0.00000000000E+00 0. -1.
         -1   -1    0    0    0  501 -0.00000000000E+00 -0.00000000000E+00 -0.10307756261E+04  0.10307756261E+04  0.00000000000E+00 0.  1.
         24    2    1    2    0    0 -0.28298490816E+03  0.67333557552E+03 -0.66856178294E+02  0.73785632867E+03  0.80628516502E+02 0.  0.
        254    2    1    2    0    0  0.28298490816E+03 -0.67333557552E+03 -0.96968505181E+02  0.11598702400E+04  0.89578726673E+03 0.  0.
         23    2    4    4    0    0 -0.14705155488E+03 -0.60654998700E+03 -0.26558045301E+03  0.68426199000E+03  0.90301979006E+02 0.  0.
         23    2    4    4    0    0  0.43003646304E+03 -0.66785588516E+02  0.16861194782E+03  0.47560825004E+03  0.91550773824E+02 0.  0.
          2    1    3    3  502    0 -0.21934581736E+03  0.59219933672E+03 -0.51652659796E+02  0.63362499893E+03  0.00000000000E+00 0. -1.
         -1    1    3    3    0  502 -0.63639090797E+02  0.81136238797E+02 -0.15203518498E+02  0.10423132973E+03  0.00000000000E+00 0.  1.
         11    1    5    5    0    0 -0.56313136378E+02 -0.21947527027E+03 -0.50112763636E+02  0.23206001954E+03  0.00000000000E+00 0. -1.
        -11    1    5    5    0    0 -0.90738418501E+02 -0.38707471674E+03 -0.21546768937E+03  0.45220197046E+03  0.00000000000E+00 0.  1.
          3    1    6    6  503    0  0.43085952684E+02 -0.26890905693E+02 -0.20193478599E+01  0.50829104787E+02  0.00000000000E+00 0. -1.
         -3    1    6    6    0  503  0.38695051035E+03 -0.39894682823E+02  0.17063129568E+03  0.42477914526E+03  0.00000000000E+00 0.  1.
<mgrwt>
<rscale>  0 0.18906421E+04</rscale>
<asrwt>0</asrwt>
<pdfrwt beam="1">  1        2 0.13337707E+00 0.18906421E+04</pdfrwt>
<pdfrwt beam="2">  1       -1 0.15858087E+00 0.18906421E+04</pdfrwt>
<totfact> 0.98983853E+00</totfact>
</mgrwt>
</event>
<event>
12    6  0.1586493E-007  0.2224108E+04  0.7818608E-02  0.8508460E-01
          2   -1    0    0  501    0  0.00000000000E+00  0.00000000000E+00  0.79920347682E+03  0.79920347682E+03  0.00000000000E+00 0. -1.
         -1   -1    0    0    0  501 -0.00000000000E+00 -0.00000000000E+00 -0.15473713254E+04  0.15473713254E+04  0.00000000000E+00 0.  1.
         24    2    1    2    0    0  0.84904461148E+03 -0.23035317066E+03  0.37578239417E+01  0.88344948819E+03  0.80805577867E+02 0.  0.
        254    2    1    2    0    0 -0.84904461148E+03  0.23035317066E+03 -0.75192567252E+03  0.14631253140E+04  0.89521178054E+03 0.  0.
         23    2    4    4    0    0 -0.26191959683E+03  0.85798325020E+02 -0.79875632913E+03  0.84977859618E+03  0.90270490298E+02 0.  0.
         23    2    4    4    0    0 -0.58712501466E+03  0.14455484564E+03  0.46830656615E+02  0.61334671784E+03  0.91592574218E+02 0.  0.
          4    1    3    3  502    0  0.34233901588E+03 -0.10925676721E+03  0.37976414851E+02  0.36135197670E+03  0.00000000000E+00 0. -1.
         -3    1    3    3    0  502  0.50670559560E+03 -0.12109640345E+03 -0.34218590909E+02  0.52209751149E+03  0.00000000000E+00 0.  1.
         11    1    5    5    0    0 -0.52065529468E+01 -0.12812013891E+02 -0.57921871443E+02  0.59549971327E+02  0.00000000000E+00 0.  1.
        -11    1    5    5    0    0 -0.25671304388E+03  0.98610338911E+02 -0.74083445769E+03  0.79022862485E+03  0.00000000000E+00 0. -1.
          1    1    6    6  503    0 -0.33360134775E+03  0.10342046616E+03  0.67314572558E+02  0.35569214740E+03  0.00000000000E+00 0. -1.
         -1    1    6    6    0  503 -0.25352366691E+03  0.41134379472E+02 -0.20483915943E+02  0.25765457044E+03  0.00000000000E+00 0.  1.
<mgrwt>
<rscale>  0 0.22241084E+04</rscale>
<asrwt>0</asrwt>
<pdfrwt beam="1">  1        2 0.12295438E+00 0.22241084E+04</pdfrwt>
<pdfrwt beam="2">  1       -1 0.23805712E+00 0.22241084E+04</pdfrwt>
<totfact> 0.29972132E+00</totfact>
</mgrwt>
</event>
<event>
12    6  0.1586493E-007  0.1679672E+04  0.7818608E-02  0.8773044E-01
          2   -1    0    0  501    0  0.00000000000E+00  0.00000000000E+00  0.12957202983E+04  0.12957202983E+04  0.00000000000E+00 0. -1.
         -1   -1    0    0    0  501 -0.00000000000E+00 -0.00000000000E+00 -0.54434904385E+03  0.54434904385E+03  0.00000000000E+00 0.  1.
         24    2    1    2    0    0  0.28538650779E+03 -0.52485203019E+03  0.21257820345E+03  0.63920256474E+03  0.80469334340E+02 0.  0.
        254    2    1    2    0    0 -0.28538650779E+03  0.52485203019E+03  0.53879305104E+03  0.12008667775E+04  0.89155367361E+03 0.  0.
         23    2    4    4    0    0 -0.27832810567E+03 -0.51611746209E+02  0.54099882364E+03  0.61705201399E+03  0.89124373948E+02 0.  0.
         23    2    4    4    0    0 -0.70584021182E+01  0.57646377640E+03 -0.22057726052E+01  0.58381476347E+03  0.92057080503E+02 0.  0.
          4    1    3    3  502    0  0.10617328826E+03 -0.15678177085E+03  0.10234896581E+03  0.21524079914E+03  0.00000000000E+00 0. -1.
         -3    1    3    3    0  502  0.17921321953E+03 -0.36807025934E+03  0.11022923764E+03  0.42396176560E+03  0.00000000000E+00 0.  1.
         11    1    5    5    0    0 -0.37422440542E+02 -0.35695011439E+00  0.24210649001E+02  0.44572659720E+02  0.00000000000E+00 0.  1.
        -11    1    5    5    0    0 -0.24090566513E+03 -0.51254796094E+02  0.51678817464E+03  0.57247935427E+03  0.00000000000E+00 0. -1.
          3    1    6    6  503    0  0.32283347308E+01  0.49699329888E+03 -0.32692517278E+02  0.49807786737E+03  0.00000000000E+00 0. -1.
         -3    1    6    6    0  503 -0.10286736849E+02  0.79470477518E+02  0.30486744673E+02  0.85736896099E+02  0.00000000000E+00 0.  1.
<mgrwt>
<rscale>  0 0.16796715E+04</rscale>
<asrwt>0</asrwt>
<pdfrwt beam="1">  1        2 0.19934158E+00 0.16796715E+04</pdfrwt>
<pdfrwt beam="2">  1       -1 0.83746007E-01 0.16796715E+04</pdfrwt>
<totfact> 0.25543927E+01</totfact>
</mgrwt>
</event>
<event>
12    6  0.1939750E-007  0.1367766E+04  0.7818608E-02  0.8977487E-01
         -1   -1    0    0    0  501 -0.00000000000E+00  0.00000000000E+00  0.51572332435E+03  0.51572332435E+03  0.00000000000E+00 0.  1.
          2   -1    0    0  501    0  0.00000000000E+00 -0.00000000000E+00 -0.90687428163E+03  0.90687428163E+03  0.00000000000E+00 0. -1.
         24    2    1    2    0    0 -0.20041961735E+03 -0.15348162081E+03  0.17761368835E+03  0.32284554200E+03  0.94646662652E+02 0.  0.
        254    2    1    2    0    0  0.20041961735E+03  0.15348162081E+03 -0.56876464563E+03  0.10997520640E+04  0.90677271086E+03 0.  0.
         23    2    4    4    0    0  0.23887528269E+03 -0.34023199323E+03 -0.17096469426E+03  0.45872439679E+03  0.91541988331E+02 0.  0.
         23    2    4    4    0    0 -0.38455665337E+02  0.49371361405E+03 -0.39779995137E+03  0.64102766719E+03  0.86253683385E+02 0.  0.
          2    1    3    3  502    0 -0.14263144393E+02  0.12950332682E+02  0.73746540011E+01  0.20628473676E+02  0.00000000000E+00 0. -1.
         -1    1    3    3    0  502 -0.18615647296E+03 -0.16643195350E+03  0.17023903435E+03  0.30221706832E+03  0.00000000000E+00 0.  1.
         11    1    5    5    0    0  0.38900524844E+02 -0.12326573021E+02 -0.24965661972E+02  0.47838055074E+02  0.00000000000E+00 0. -1.
        -11    1    5    5    0    0  0.19997475785E+03 -0.32790542021E+03 -0.14599903229E+03  0.41088634171E+03  0.00000000000E+00 0.  1.
          1    1    6    6  503    0 -0.88722764436E+01  0.29492607495E+02 -0.55574282282E+02  0.63537642680E+02  0.00000000000E+00 0. -1.
         -1    1    6    6    0  503 -0.29583388893E+02  0.46422100655E+03 -0.34222566909E+03  0.57749002451E+03  0.00000000000E+00 0.  1.
<mgrwt>
<rscale>  0 0.13677664E+04</rscale>
<asrwt>0</asrwt>
<pdfrwt beam="1">  1        2 0.13951912E+00 0.13677664E+04</pdfrwt>
<pdfrwt beam="2">  1       -1 0.79342050E-01 0.13677664E+04</pdfrwt>
<totfact> 0.51290805E+01</totfact>
</mgrwt>
</event>
<event>
12    6  0.1586493E-007  0.1359562E+04  0.7818608E-02  0.8983621E-01
          2   -1    0    0  501    0  0.00000000000E+00  0.00000000000E+00  0.15872542185E+04  0.15872542185E+04  0.00000000000E+00 0. -1.
         -1   -1    0    0    0  501 -0.00000000000E+00 -0.00000000000E+00 -0.29113309402E+03  0.29113309402E+03  0.00000000000E+00 0.  1.
         24    2    1    2    0    0  0.11276976721E+03  0.15301294683E+03 -0.81075969819E+02  0.22017398238E+03  0.75982151470E+02 0.  0.
        254    2    1    2    0    0 -0.11276976721E+03 -0.15301294683E+03  0.13771970943E+04  0.16582133302E+04  0.90380840306E+03 0.  0.
         23    2    4    4    0    0  0.34656998758E+03  0.33528278847E+02  0.29778010472E+03  0.46705413402E+03  0.90728559798E+02 0.  0.
         23    2    4    4    0    0 -0.45933975478E+03 -0.18654122567E+03  0.10794169896E+04  0.11911591962E+04  0.89042427739E+02 0.  0.
          4    1    3    3  502    0  0.85218450545E+02  0.56922727951E+02 -0.24720249925E+02  0.10542045355E+03  0.00000000000E+00 0. -1.
         -3    1    3    3    0  502  0.27551316660E+02  0.96090218876E+02 -0.56355719894E+02  0.11475352883E+03  0.00000000000E+00 0.  1.
         11    1    5    5    0    0  0.27578730671E+03  0.54614864186E+02  0.20239456584E+03  0.34641735264E+03  0.00000000000E+00 0. -1.
        -11    1    5    5    0    0  0.70782680870E+02 -0.21086585338E+02  0.95385538886E+02  0.12063678138E+03  0.00000000000E+00 0.  1.
          3    1    6    6  503    0 -0.29321809274E+03 -0.14924262912E+03  0.78314735618E+03  0.84945276134E+03  0.00000000000E+00 0. -1.
         -3    1    6    6    0  503 -0.16612166205E+03 -0.37298596558E+02  0.29626963344E+03  0.34170643483E+03  0.00000000000E+00 0.  1.
<mgrwt>
<rscale>  0 0.13595620E+04</rscale>
<asrwt>0</asrwt>
<pdfrwt beam="1">  1        2 0.24419295E+00 0.13595620E+04</pdfrwt>
<pdfrwt beam="2">  1       -1 0.44789708E-01 0.13595620E+04</pdfrwt>
<totfact> 0.62281411E+01</totfact>
</mgrwt>
</event>
<event>
12    6  0.1586493E-007  0.1378323E+04  0.7818608E-02  0.8969660E-01
          2   -1    0    0  501    0  0.00000000000E+00  0.00000000000E+00  0.10816405769E+04  0.10816405769E+04  0.00000000000E+00 0. -1.
         -1   -1    0    0    0  501 -0.00000000000E+00 -0.00000000000E+00 -0.43909586806E+03  0.43909586806E+03  0.00000000000E+00 0.  1.
         24    2    1    2    0    0  0.20333665263E+03  0.73793807752E+02  0.53590321802E+03  0.58349301289E+03  0.80501656132E+02 0.  0.
        254    2    1    2    0    0 -0.20333665263E+03 -0.73793807752E+02  0.10664149083E+03  0.93724343209E+03  0.90568290425E+03 0.  0.
         23    2    4    4    0    0  0.12773853849E+03 -0.18221251763E+03 -0.30661584320E+03  0.38897279025E+03  0.88136374194E+02 0.  0.
         23    2    4    4    0    0 -0.33107519113E+03  0.10841870988E+03  0.41325733403E+03  0.54827064183E+03  0.91943861829E+02 0.  0.
          2    1    3    3  502    0  0.18555619787E+03  0.65554850047E+02  0.52584959404E+03  0.56146801911E+03  0.00000000000E+00 0. -1.
         -1    1    3    3    0  502  0.17780454766E+02  0.82389577050E+01  0.10053623976E+02  0.22024993776E+02  0.00000000000E+00 0.  1.
         11    1    5    5    0    0  0.24120131374E+02 -0.87684442005E+02 -0.17202453920E+03  0.19458361749E+03  0.00000000000E+00 0. -1.
        -11    1    5    5    0    0  0.10361840712E+03 -0.94528075629E+02 -0.13459130400E+03  0.19438917277E+03  0.00000000000E+00 0.  1.
          3    1    6    6  503    0 -0.19442668125E+02 -0.10476834535E+02  0.82000081339E+01  0.23558895116E+02  0.00000000000E+00 0. -1.
         -3    1    6    6    0  503 -0.31163252300E+03  0.11889554442E+03  0.40505732590E+03  0.52471174672E+03  0.00000000000E+00 0.  1.
<mgrwt>
<rscale>  0 0.13783235E+04</rscale>
<asrwt>0</asrwt>
<pdfrwt beam="1">  1        2 0.16640624E+00 0.13783235E+04</pdfrwt>
<pdfrwt beam="2">  1       -1 0.67553211E-01 0.13783235E+04</pdfrwt>
<totfact> 0.55189510E+01</totfact>
</mgrwt>
</event>
<event>
12    6  0.1586493E-007  0.1783173E+04  0.7818608E-02  0.8715300E-01
         -1   -1    0    0    0  501 -0.00000000000E+00  0.00000000000E+00  0.84682685599E+03  0.84682685599E+03  0.00000000000E+00 0.  1.
          2   -1    0    0  501    0  0.00000000000E+00 -0.00000000000E+00 -0.93871164874E+03  0.93871164874E+03  0.00000000000E+00 0. -1.
         24    2    1    2    0    0  0.37506540775E+03 -0.54597409689E+03 -0.24525054377E+02  0.66753754837E+03  0.79013452244E+02 0.  0.
        254    2    1    2    0    0 -0.37506540775E+03  0.54597409689E+03 -0.67359738375E+02  0.11180009564E+04  0.89812417265E+03 0.  0.
         23    2    4    4    0    0 -0.51983925412E+03  0.23760628907E+03  0.26185987376E+03  0.63572980422E+03  0.94298418649E+02 0.  0.
         23    2    4    4    0    0  0.14477384637E+03  0.30836780782E+03 -0.32921961214E+03  0.48227115213E+03  0.90275908612E+02 0.  0.
          4    1    3    3  502    0  0.22362532671E+03 -0.30883386743E+03  0.23838223876E+02  0.38204044987E+03  0.00000000000E+00 0. -1.
         -3    1    3    3    0  502  0.15144008104E+03 -0.23714022946E+03 -0.48363278252E+02  0.28549709851E+03  0.00000000000E+00 0.  1.
         11    1    5    5    0    0 -0.50079999112E+03  0.24609525874E+03  0.24755811526E+03  0.61044944746E+03  0.00000000000E+00 0.  1.
        -11    1    5    5    0    0 -0.19039263004E+02 -0.84889696665E+01  0.14301758498E+02  0.25280356759E+02  0.00000000000E+00 0. -1.
          3    1    6    6  503    0 -0.83143474748E+01  0.74081006182E+01 -0.26648516679E+02  0.28881685718E+02  0.00000000000E+00 0. -1.
         -3    1    6    6    0  503  0.15308819384E+03  0.30095970720E+03 -0.30257109546E+03  0.45338946642E+03  0.00000000000E+00 0.  1.
<mgrwt>
<rscale>  0 0.17831727E+04</rscale>
<asrwt>0</asrwt>
<pdfrwt beam="1">  1        2 0.14441718E+00 0.17831727E+04</pdfrwt>
<pdfrwt beam="2">  1       -1 0.13028105E+00 0.17831727E+04</pdfrwt>
<totfact> 0.15029467E+01</totfact>
</mgrwt>
</event>
<event>
12    6  0.1586493E-007  0.1899772E+04  0.7818608E-02  0.8654970E-01
          2   -1    0    0  501    0  0.00000000000E+00  0.00000000000E+00  0.25924549715E+04  0.25924549715E+04  0.00000000000E+00 0. -1.
         -1   -1    0    0    0  501 -0.00000000000E+00 -0.00000000000E+00 -0.34804209127E+03  0.34804209127E+03  0.00000000000E+00 0.  1.
         24    2    1    2    0    0 -0.40205935310E+03  0.54385995897E+03  0.43757047480E+03  0.80937298596E+03  0.78621444923E+02 0.  0.
        254    2    1    2    0    0  0.40205935310E+03 -0.54385995897E+03  0.18068424055E+04  0.21311240768E+04  0.90530380220E+03 0.  0.
         23    2    4    4    0    0  0.26021116418E+03 -0.66834918747E+03  0.70645115053E+03  0.10109206690E+04  0.92124288223E+02 0.  0.
         23    2    4    4    0    0  0.14184818892E+03  0.12448922849E+03  0.11003912549E+04  0.11202034079E+04  0.91522043106E+02 0.  0.
          2    1    3    3  502    0 -0.34194254453E+02  0.17452225827E+02  0.30370784110E+02  0.48951115936E+02  0.00000000000E+00 0. -1.
         -1    1    3    3    0  502 -0.36786509865E+03  0.52640773315E+03  0.40719969069E+03  0.76042187003E+03  0.00000000000E+00 0.  1.
         11    1    5    5    0    0  0.56886733730E+02 -0.11859300678E+03  0.18088957645E+03  0.22365473525E+03  0.00000000000E+00 0. -1.
        -11    1    5    5    0    0  0.20332443045E+03 -0.54975618068E+03  0.52556157408E+03  0.78726593370E+03  0.00000000000E+00 0.  1.
          2    1    6    6  503    0  0.62035897562E+01 -0.13578603272E+02  0.52233535556E+02  0.54324996359E+02  0.00000000000E+00 0. -1.
         -2    1    6    6    0  503  0.13564459916E+03  0.13806783176E+03  0.10481577194E+04  0.10658784115E+04  0.00000000000E+00 0.  1.
<mgrwt>
<rscale>  0 0.18997720E+04</rscale>
<asrwt>0</asrwt>
<pdfrwt beam="1">  1        2 0.39883921E+00 0.18997720E+04</pdfrwt>
<pdfrwt beam="2">  1       -1 0.53544939E-01 0.18997720E+04</pdfrwt>
<totfact> 0.11549805E+01</totfact>
</mgrwt>
</event>
<event>
12    6  0.1586493E-007  0.3409955E+04  0.7818608E-02  0.8135467E-01
          2   -1    0    0  501    0  0.00000000000E+00  0.00000000000E+00  0.34887135446E+04  0.34887135446E+04  0.00000000000E+00 0. -1.
         -1   -1    0    0    0  501 -0.00000000000E+00 -0.00000000000E+00 -0.83324367891E+03  0.83324367891E+03  0.00000000000E+00 0.  1.
         24    2    1    2    0    0  0.68686893451E+03  0.12874263087E+04  0.20202422799E+04  0.24933410683E+04  0.78200893470E+02 0.  0.
        254    2    1    2    0    0 -0.68686893451E+03 -0.12874263087E+04  0.63522758587E+03  0.18286161553E+04  0.90059287358E+03 0.  0.
         23    2    4    4    0    0 -0.17400599915E+03 -0.10824380686E+04  0.63110774214E+03  0.12680876044E+04  0.88311551304E+02 0.  0.
         23    2    4    4    0    0 -0.51286293536E+03 -0.20498824012E+03  0.41198437276E+01  0.56052855091E+03  0.95533838057E+02 0.  0.
          2    1    3    3  502    0  0.41260054962E+03  0.82270148555E+03  0.13238481481E+04  0.16123432845E+04  0.00000000000E+00 0. -1.
         -1    1    3    3    0  502  0.27426838489E+03  0.46472482317E+03  0.69639413181E+03  0.88099778379E+03  0.00000000000E+00 0.  1.
         11    1    5    5    0    0 -0.16572286088E+03 -0.10136450560E+04  0.61429609577E+03  0.11967873910E+04  0.00000000000E+00 0. -1.
        -11    1    5    5    0    0 -0.82831382783E+01 -0.68793012640E+02  0.16811646376E+02  0.71300213336E+02  0.00000000000E+00 0.  1.
          2    1    6    6  503    0 -0.84920842265E+02 -0.54247389926E+02 -0.31073095038E+02  0.10545077525E+03  0.00000000000E+00 0.  1.
         -2    1    6    6    0  503 -0.42794209310E+03 -0.15074085019E+03  0.35192938765E+02  0.45507777566E+03  0.00000000000E+00 0. -1.
<mgrwt>
<rscale>  0 0.34099551E+04</rscale>
<asrwt>0</asrwt>
<pdfrwt beam="1">  1        2 0.53672515E+00 0.34099551E+04</pdfrwt>
<pdfrwt beam="2">  1       -1 0.12819134E+00 0.34099551E+04</pdfrwt>
<totfact> 0.40813901E-01</totfact>
</mgrwt>
</event>
<event>
12    6  0.1586493E-007  0.1739886E+04  0.7818608E-02  0.8738937E-01
         -1   -1    0    0    0  501 -0.00000000000E+00  0.00000000000E+00  0.57479067193E+03  0.57479067193E+03  0.00000000000E+00 0.  1.
          2   -1    0    0  501    0  0.00000000000E+00 -0.00000000000E+00 -0.13166546091E+04  0.13166546091E+04  0.00000000000E+00 0. -1.
         24    2    1    2    0    0 -0.54991540664E+03  0.68680913577E+02 -0.60414247103E+03  0.82361213721E+03  0.78897432890E+02 0.  0.
        254    2    1    2    0    0  0.54991540664E+03 -0.68680913577E+02 -0.13772146614E+03  0.10678331438E+04  0.90231723824E+03 0.  0.
         23    2    4    4    0    0  0.63667034472E+03 -0.18214655801E+03  0.19374790874E+03  0.69549906985E+03  0.87488328253E+02 0.  0.
         23    2    4    4    0    0 -0.86754938077E+02  0.11346564443E+03 -0.33146937487E+03  0.37233407396E+03  0.91432184723E+02 0.  0.
          2    1    3    3  502    0 -0.27237760619E+03  0.17353005394E+02 -0.34977335894E+03  0.44365762675E+03  0.00000000000E+00 0. -1.
         -1    1    3    3    0  502 -0.27753780045E+03  0.51327908183E+02 -0.25436911209E+03  0.37995451046E+03  0.00000000000E+00 0.  1.
         11    1    5    5    0    0  0.58251936361E+03 -0.18485993606E+03  0.19425545101E+03  0.64127777537E+03  0.00000000000E+00 0. -1.
        -11    1    5    5    0    0  0.54150981108E+02  0.27133780498E+01 -0.50754226953E+00  0.54221294475E+02  0.00000000000E+00 0.  1.
          3    1    6    6  503    0 -0.49134643061E+02  0.11686938438E+03 -0.28846968774E+03  0.31509907473E+03  0.00000000000E+00 0. -1.
         -3    1    6    6    0  503 -0.37620295015E+02 -0.34037399417E+01 -0.42999687137E+02  0.57234999227E+02  0.00000000000E+00 0.  1.
<mgrwt>
<rscale>  0 0.17398860E+04</rscale>
<asrwt>0</asrwt>
<pdfrwt beam="1">  1        2 0.20256225E+00 0.17398860E+04</pdfrwt>
<pdfrwt beam="2">  1       -1 0.88429335E-01 0.17398860E+04</pdfrwt>
<totfact> 0.21952577E+01</totfact>
</mgrwt>
</event>
<event>
12    6  0.1586493E-007  0.1915513E+04  0.7818608E-02  0.8647173E-01
          2   -1    0    0  501    0  0.00000000000E+00  0.00000000000E+00  0.12238020567E+04  0.12238020567E+04  0.00000000000E+00 0. -1.
         -1   -1    0    0    0  501 -0.00000000000E+00 -0.00000000000E+00 -0.74954711859E+03  0.74954711859E+03  0.00000000000E+00 0.  1.
         24    2    1    2    0    0 -0.50728211652E+03 -0.47099338608E+03  0.46174212685E+03  0.83584488111E+03  0.79126216242E+02 0.  0.
        254    2    1    2    0    0  0.50728211652E+03  0.47099338608E+03  0.12512811288E+02  0.11375042942E+04  0.90254613921E+03 0.  0.
         23    2    4    4    0    0 -0.39300183315E+02  0.29887963272E+03  0.34682175623E+03  0.46801799161E+03  0.88780462994E+02 0.  0.
         23    2    4    4    0    0  0.54658229984E+03  0.17211375336E+03 -0.33430894494E+03  0.66948630259E+03  0.89855907422E+02 0.  0.
          4    1    3    3  502    0 -0.24676209205E+03 -0.21985247162E+03  0.17383218313E+03  0.37342237111E+03  0.00000000000E+00 0. -1.
         -3    1    3    3    0  502 -0.26052002447E+03 -0.25114091446E+03  0.28790994372E+03  0.46242251000E+03  0.00000000000E+00 0.  1.
         11    1    5    5    0    0  0.23923898932E+02  0.14608709585E+03  0.14656241317E+03  0.20831306601E+03  0.00000000000E+00 0.  1.
        -11    1    5    5    0    0 -0.63224082246E+02  0.15279253687E+03  0.20025934306E+03  0.25970492560E+03  0.00000000000E+00 0. -1.
          2    1    6    6  503    0  0.54555848184E+03  0.17546373282E+03 -0.32341206006E+03  0.65804022615E+03  0.00000000000E+00 0. -1.
         -2    1    6    6    0  503  0.10238179984E+01 -0.33499794603E+01 -0.10896884888E+02  0.11446076443E+02  0.00000000000E+00 0.  1.
<mgrwt>
<rscale>  0 0.19155128E+04</rscale>
<asrwt>0</asrwt>
<pdfrwt beam="1">  1        2 0.18827724E+00 0.19155128E+04</pdfrwt>
<pdfrwt beam="2">  1       -1 0.11531494E+00 0.19155128E+04</pdfrwt>
<totfact> 0.13332735E+01</totfact>
</mgrwt>
</event>
<event>
12    6  0.1586493E-007  0.1164252E+04  0.7818608E-02  0.9144735E-01
          2   -1    0    0  501    0  0.00000000000E+00  0.00000000000E+00  0.37332455388E+04  0.37332455388E+04  0.00000000000E+00 0. -1.
         -1   -1    0    0    0  501 -0.00000000000E+00 -0.00000000000E+00 -0.90771074165E+02  0.90771074165E+02  0.00000000000E+00 0.  1.
         24    2    1    2    0    0 -0.17382081943E+03 -0.12867898490E+03  0.68435250442E+03  0.72201607542E+03  0.78720419437E+02 0.  0.
        254    2    1    2    0    0  0.17382081943E+03  0.12867898490E+03  0.29581219602E+04  0.31020005376E+04  0.90837758945E+03 0.  0.
         23    2    4    4    0    0  0.47760641764E+03 -0.10322216257E+03  0.11582253651E+04  0.12598214823E+04  0.83075062094E+02 0.  0.
         23    2    4    4    0    0 -0.30378559821E+03  0.23190114747E+03  0.17998965952E+04  0.18421790553E+04  0.89062262069E+02 0.  0.
          2    1    3    3  502    0 -0.31694772935E+02  0.37617723453E+01  0.15224009698E+03  0.15554985276E+03  0.00000000000E+00 0. -1.
         -1    1    3    3    0  502 -0.14212604649E+03 -0.13244075725E+03  0.53211240743E+03  0.56646622266E+03  0.00000000000E+00 0.  1.
         11    1    5    5    0    0  0.25255114396E+03 -0.14238092140E+02  0.62497181076E+03  0.67422145311E+03  0.00000000000E+00 0. -1.
        -11    1    5    5    0    0  0.22505527367E+03 -0.88984070429E+02  0.53325355431E+03  0.58560002918E+03  0.00000000000E+00 0.  1.
          4    1    6    6  503    0 -0.21861967467E+03  0.12407685293E+03  0.10390349920E+04  0.10690104500E+04  0.00000000000E+00 0. -1.
         -4    1    6    6    0  503 -0.85165923534E+02  0.10782429453E+03  0.76086160320E+03  0.77316860531E+03  0.00000000000E+00 0.  1.
<mgrwt>
<rscale>  0 0.11642520E+04</rscale>
<asrwt>0</asrwt>
<pdfrwt beam="1">  1        2 0.57434535E+00 0.11642520E+04</pdfrwt>
<pdfrwt beam="2">  1       -1 0.13964783E-01 0.11642520E+04</pdfrwt>
<totfact> 0.23761199E+01</totfact>
</mgrwt>
</event>
<event>
12    6  0.1586493E-007  0.1263695E+04  0.7818608E-02  0.9058862E-01
          2   -1    0    0  501    0  0.00000000000E+00  0.00000000000E+00  0.22831396023E+04  0.22831396023E+04  0.00000000000E+00 0. -1.
         -1   -1    0    0    0  501 -0.00000000000E+00 -0.00000000000E+00 -0.17486057099E+03  0.17486057099E+03  0.00000000000E+00 0.  1.
         24    2    1    2    0    0  0.24071170039E+02 -0.15930488335E+03  0.10397242089E+04  0.10552698995E+04  0.81305984753E+02 0.  0.
        254    2    1    2    0    0 -0.24071170039E+02  0.15930488335E+03  0.10685548225E+04  0.14027302738E+04  0.89436309485E+03 0.  0.
         23    2    4    4    0    0  0.12837098143E+03 -0.17273576946E+03  0.99052008971E+03  0.10179902829E+04  0.94113830050E+02 0.  0.
         23    2    4    4    0    0 -0.15244215147E+03  0.33204065281E+03  0.78034732780E+02  0.38473999096E+03  0.91901232110E+02 0.  0.
          4    1    3    3  502    0  0.30537254665E+02 -0.15781113728E+03  0.10342527644E+04  0.10466688395E+04  0.00000000000E+00 0. -1.
         -3    1    3    3    0  502 -0.64660846259E+01 -0.14937460642E+01  0.54714444666E+01  0.86010599489E+01  0.00000000000E+00 0.  1.
         11    1    5    5    0    0  0.83218203131E+02 -0.17030831356E+03  0.81232679174E+03  0.83414927176E+03  0.00000000000E+00 0.  1.
        -11    1    5    5    0    0  0.45152778304E+02 -0.24274559044E+01  0.17819329797E+03  0.18384101113E+03  0.00000000000E+00 0. -1.
          4    1    6    6  503    0 -0.19427647650E+02  0.13296561374E+03  0.51806530060E+01  0.13447723635E+03  0.00000000000E+00 0. -1.
         -4    1    6    6    0  503 -0.13301450382E+03  0.19907503907E+03  0.72854079774E+02  0.25026275461E+03  0.00000000000E+00 0.  1.
<mgrwt>
<rscale>  0 0.12636947E+04</rscale>
<asrwt>0</asrwt>
<pdfrwt beam="1">  1        2 0.35125223E+00 0.12636947E+04</pdfrwt>
<pdfrwt beam="2">  1       -1 0.26901628E-01 0.12636947E+04</pdfrwt>
<totfact> 0.64218881E+01</totfact>
</mgrwt>
</event>
<event>
12    6  0.1586493E-007  0.2191255E+04  0.7818608E-02  0.8522077E-01
         -1   -1    0    0    0  501 -0.00000000000E+00  0.00000000000E+00  0.12283990648E+04  0.12283990648E+04  0.00000000000E+00 0.  1.
          2   -1    0    0  501    0  0.00000000000E+00 -0.00000000000E+00 -0.97720629083E+03  0.97720629083E+03  0.00000000000E+00 0. -1.
         24    2    1    2    0    0 -0.50146428714E+02  0.65562447575E+03 -0.51580466201E+03  0.84114338891E+03  0.95444401850E+02 0.  0.
        254    2    1    2    0    0  0.50146428714E+02 -0.65562447575E+03  0.76699743602E+03  0.13644619668E+04  0.91712227884E+03 0.  0.
         23    2    4    4    0    0  0.42512012092E+03 -0.21550374303E+03  0.13716468337E+03  0.50454770140E+03  0.92656635784E+02 0.  0.
         23    2    4    4    0    0 -0.37497369221E+03 -0.44012073272E+03  0.62983275265E+03  0.85991426536E+03  0.91933227048E+02 0.  0.
          4    1    3    3  502    0 -0.70928342641E+02  0.60821472843E+03 -0.46827597794E+03  0.77086858619E+03  0.00000000000E+00 0. -1.
         -3    1    3    3    0  502  0.20781913927E+02  0.47409747324E+02 -0.47528684067E+02  0.70274802718E+02  0.00000000000E+00 0.  1.
         11    1    5    5    0    0  0.40030683774E+03 -0.18130256336E+03  0.14245685363E+03  0.46196335241E+03  0.00000000000E+00 0.  1.
        -11    1    5    5    0    0  0.24813283181E+02 -0.34201179671E+02 -0.52921702641E+01  0.42584348993E+02  0.00000000000E+00 0. -1.
          3    1    6    6  503    0 -0.72844408615E+02 -0.12814197991E+03  0.11915526807E+03  0.18953799828E+03  0.00000000000E+00 0. -1.
         -3    1    6    6    0  503 -0.30212928359E+03 -0.31197875281E+03  0.51067748458E+03  0.67037626708E+03  0.00000000000E+00 0.  1.
<mgrwt>
<rscale>  0 0.21912547E+04</rscale>
<asrwt>0</asrwt>
<pdfrwt beam="1">  1        2 0.15033943E+00 0.21912547E+04</pdfrwt>
<pdfrwt beam="2">  1       -1 0.18898447E+00 0.21912547E+04</pdfrwt>
<totfact> 0.48831476E+00</totfact>
</mgrwt>
</event>
<event>
12    6  0.1586493E-007  0.1437959E+04  0.7818608E-02  0.8926791E-01
          2   -1    0    0  501    0  0.00000000000E+00  0.00000000000E+00  0.20225409438E+03  0.20225409438E+03  0.00000000000E+00 0. -1.
         -1   -1    0    0    0  501 -0.00000000000E+00 -0.00000000000E+00 -0.25558515499E+04  0.25558515499E+04  0.00000000000E+00 0.  1.
         24    2    1    2    0    0 -0.19336707908E+03  0.24789430788E+03 -0.12891259951E+04  0.13293319787E+04  0.80220091427E+02 0.  0.
        254    2    1    2    0    0  0.19336707908E+03 -0.24789430788E+03 -0.10644714604E+04  0.14287736656E+04  0.89969566097E+03 0.  0.
         23    2    4    4    0    0 -0.35237787216E+03 -0.10080657276E+03 -0.44803808224E+03  0.58744930740E+03  0.10013209145E+03 0.  0.
         23    2    4    4    0    0  0.54574495124E+03 -0.14708773512E+03 -0.61643337814E+03  0.84132435819E+03  0.91456067958E+02 0.  0.
          4    1    3    3  502    0 -0.17239007391E+03  0.19604873251E+03 -0.93278230076E+03  0.96862596688E+03  0.00000000000E+00 0. -1.
         -3    1    3    3    0  502 -0.20977005169E+02  0.51845575371E+02 -0.35634369438E+03  0.36070601181E+03  0.00000000000E+00 0.  1.
         11    1    5    5    0    0 -0.32840805915E+03 -0.89549595672E+02 -0.35972153589E+03  0.49524798514E+03  0.00000000000E+00 0. -1.
        -11    1    5    5    0    0 -0.23969813003E+02 -0.11256977090E+02 -0.88316546348E+02  0.92201322265E+02  0.00000000000E+00 0.  1.
          1    1    6    6  503    0  0.11178079261E+03  0.23684284156E+01 -0.14830713287E+03  0.18572980566E+03  0.00000000000E+00 0.  1.
         -1    1    6    6    0  503  0.43396415863E+03 -0.14945616354E+03 -0.46812624527E+03  0.65559455253E+03  0.00000000000E+00 0. -1.
<mgrwt>
<rscale>  0 0.14379589E+04</rscale>
<asrwt>0</asrwt>
<pdfrwt beam="1">  1        2 0.31116012E-01 0.14379589E+04</pdfrwt>
<pdfrwt beam="2">  1       -1 0.39320796E+00 0.14379589E+04</pdfrwt>
<totfact> 0.15255589E+00</totfact>
</mgrwt>
</event>
<event>
12    6  0.1586493E-007  0.1315373E+04  0.7818608E-02  0.9017463E-01
          2   -1    0    0  501    0  0.00000000000E+00  0.00000000000E+00  0.11108994807E+04  0.11108994807E+04  0.00000000000E+00 0. -1.
         -3   -1    0    0    0  501 -0.00000000000E+00 -0.00000000000E+00 -0.38937034760E+03  0.38937034760E+03  0.00000000000E+00 0.  1.
         24    2    1    2    0    0 -0.10153451986E+03  0.23258651492E+03 -0.73699605348E+02  0.27519581569E+03  0.76781244453E+02 0.  0.
        254    2    1    2    0    0  0.10153451986E+03 -0.23258651492E+03  0.79522873842E+03  0.12250740126E+04  0.89666707548E+03 0.  0.
         23    2    4    4    0    0 -0.23495263694E+02 -0.56066580350E+03  0.47398734878E+03  0.74016606967E+03  0.91014467255E+02 0.  0.
         23    2    4    4    0    0  0.12502978355E+03  0.32807928858E+03  0.32124138964E+03  0.48490794291E+03  0.93119365943E+02 0.  0.
          2    1    3    3  502    0  0.56707702497E+01  0.40040200805E+02  0.59282641788E+01  0.40871990800E+02  0.00000000000E+00 0. -1.
         -1    1    3    3    0  502 -0.10720529011E+03  0.19254631411E+03 -0.79627869527E+02  0.23432382489E+03  0.00000000000E+00 0.  1.
         11    1    5    5    0    0 -0.11283213285E+01 -0.22318874145E+02  0.49226266890E+02  0.54061359621E+02  0.00000000000E+00 0. -1.
        -11    1    5    5    0    0 -0.22366942365E+02 -0.53834692935E+03  0.42476108189E+03  0.68610471004E+03  0.00000000000E+00 0.  1.
          4    1    6    6  503    0  0.74494789898E+02  0.10288823083E+03  0.75439099649E+02  0.14773800974E+03  0.00000000000E+00 0. -1.
         -4    1    6    6    0  503  0.50534993653E+02  0.22519105775E+03  0.24580228999E+03  0.33716993318E+03  0.00000000000E+00 0.  1.
<mgrwt>
<rscale>  0 0.13153727E+04</rscale>
<asrwt>0</asrwt>
<pdfrwt beam="1">  1        2 0.17090761E+00 0.13153727E+04</pdfrwt>
<pdfrwt beam="2">  1       -3 0.59903131E-01 0.13153727E+04</pdfrwt>
<totfact> 0.36467349E+01</totfact>
</mgrwt>
</event>
<event>
12    6  0.1586493E-007  0.1688138E+04  0.7818608E-02  0.8768159E-01
         -1   -1    0    0    0  501 -0.00000000000E+00  0.00000000000E+00  0.26964272553E+03  0.26964272553E+03  0.00000000000E+00 0.  1.
          2   -1    0    0  501    0  0.00000000000E+00 -0.00000000000E+00 -0.26422078930E+04  0.26422078930E+04  0.00000000000E+00 0. -1.
         24    2    1    2    0    0  0.12182211255E+03  0.36202326841E+03 -0.15953801053E+04  0.16426142264E+04  0.83918666273E+02 0.  0.
        254    2    1    2    0    0 -0.12182211255E+03 -0.36202326841E+03 -0.77718506215E+03  0.12692363921E+04  0.92792398618E+03 0.  0.
         23    2    4    4    0    0 -0.37057667350E+03 -0.66063627442E+02 -0.78108142256E+03  0.87174139937E+03  0.90296206389E+02 0.  0.
         23    2    4    4    0    0  0.24875456095E+03 -0.29595964097E+03  0.38963604137E+01  0.39749499269E+03  0.92282971969E+02 0.  0.
          4    1    3    3  502    0  0.12873560434E+03  0.27415750577E+03 -0.12231304465E+04  0.12600727293E+04  0.00000000000E+00 0. -1.
         -3    1    3    3    0  502 -0.69134917897E+01  0.87865762636E+02 -0.37224965876E+03  0.38254149718E+03  0.00000000000E+00 0.  1.
         11    1    5    5    0    0 -0.81985440920E+02 -0.43885174577E+01 -0.26286190819E+03  0.27538564666E+03  0.00000000000E+00 0. -1.
        -11    1    5    5    0    0 -0.28859123258E+03 -0.61675109985E+02 -0.51821951437E+03  0.59635575270E+03  0.00000000000E+00 0.  1.
          3    1    6    6  503    0  0.25538170333E+02 -0.14741981279E+01  0.11139829183E+02  0.27901025041E+02  0.00000000000E+00 0. -1.
         -3    1    6    6    0  503  0.22321639062E+03 -0.29448544284E+03 -0.72434687689E+01  0.36959396765E+03  0.00000000000E+00 0.  1.
<mgrwt>
<rscale>  0 0.16881376E+04</rscale>
<asrwt>0</asrwt>
<pdfrwt beam="1">  1        2 0.40649352E+00 0.16881376E+04</pdfrwt>
<pdfrwt beam="2">  1       -1 0.41483497E-01 0.16881376E+04</pdfrwt>
<totfact> 0.17797251E+01</totfact>
</mgrwt>
</event>
<event>
12    6  0.1586493E-007  0.1273982E+04  0.7818608E-02  0.9050456E-01
          2   -1    0    0  501    0  0.00000000000E+00  0.00000000000E+00  0.88876172641E+03  0.88876172641E+03  0.00000000000E+00 0. -1.
         -1   -1    0    0    0  501 -0.00000000000E+00 -0.00000000000E+00 -0.45654232803E+03  0.45654232803E+03  0.00000000000E+00 0.  1.
         24    2    1    2    0    0  0.12553179446E+03 -0.54708557960E+02  0.40524532794E+03  0.43502999888E+03  0.79221628207E+02 0.  0.
        254    2    1    2    0    0 -0.12553179446E+03  0.54708557960E+02  0.26974070443E+02  0.91027405556E+03  0.89951097715E+03 0.  0.
         23    2    4    4    0    0 -0.26742998577E+03 -0.53662710580E+02  0.39572431673E+03  0.48928967774E+03  0.91696074582E+02 0.  0.
         23    2    4    4    0    0  0.14189819130E+03  0.10837126854E+03 -0.36875024629E+03  0.42098437782E+03  0.96807405132E+02 0.  0.
          4    1    3    3  502    0  0.12760147072E+03 -0.67721167371E+02  0.35991517822E+03  0.38782370654E+03  0.00000000000E+00 0. -1.
         -3    1    3    3    0  502 -0.20696762514E+01  0.13012609411E+02  0.45330149719E+02  0.47206292345E+02  0.00000000000E+00 0.  1.
         11    1    5    5    0    0 -0.22408399685E+02  0.19991817113E+01  0.24903757016E+01  0.22634819971E+02  0.00000000000E+00 0. -1.
        -11    1    5    5    0    0 -0.24502158608E+03 -0.55661892291E+02  0.39323394103E+03  0.46665485777E+03  0.00000000000E+00 0.  1.
          3    1    6    6  503    0  0.23771782632E+02  0.13624826154E+02 -0.16426297770E+03  0.16653245744E+03  0.00000000000E+00 0. -1.
         -3    1    6    6    0  503  0.11812640867E+03  0.94746442386E+02 -0.20448726859E+03  0.25445192038E+03  0.00000000000E+00 0.  1.
<mgrwt>
<rscale>  0 0.12739817E+04</rscale>
<asrwt>0</asrwt>
<pdfrwt beam="1">  1        2 0.13673257E+00 0.12739817E+04</pdfrwt>
<pdfrwt beam="2">  1       -1 0.70237281E-01 0.12739817E+04</pdfrwt>
<totfact> 0.68536032E+01</totfact>
</mgrwt>
</event>
<event>
12    6  0.1586493E-007  0.1481099E+04  0.7818608E-02  0.8897120E-01
          2   -1    0    0  501    0  0.00000000000E+00  0.00000000000E+00  0.36595418439E+04  0.36595418439E+04  0.00000000000E+00 0. -1.
         -1   -1    0    0    0  501 -0.00000000000E+00 -0.00000000000E+00 -0.14985856674E+03  0.14985856674E+03  0.00000000000E+00 0.  1.
         24    2    1    2    0    0 -0.25524136289E+03 -0.32878093709E+03  0.17367000578E+04  0.17880723194E+04  0.88489945847E+02 0.  0.
        254    2    1    2    0    0  0.25524136289E+03  0.32878093709E+03  0.17729832193E+04  0.20213280913E+04  0.87695649756E+03 0.  0.
         23    2    4    4    0    0  0.74826746502E+02  0.53467542802E+03  0.15848752643E+04  0.16767972714E+04  0.91338001760E+02 0.  0.
         23    2    4    4    0    0  0.18041461639E+03 -0.20589449093E+03  0.18810795506E+03  0.34453081992E+03  0.91514523002E+02 0.  0.
          4    1    3    3  502    0 -0.23638314870E+03 -0.26687465435E+03  0.15501035216E+04  0.15905722247E+04  0.00000000000E+00 0. -1.
         -3    1    3    3    0  502 -0.18858214196E+02 -0.61906282744E+02  0.18659653617E+03  0.19750009468E+03  0.00000000000E+00 0.  1.
         11    1    5    5    0    0  0.34696584014E+02  0.50983205067E+02  0.15641935452E+03  0.16813730880E+03  0.00000000000E+00 0.  1.
        -11    1    5    5    0    0  0.40130162489E+02  0.48369222295E+03  0.14284559098E+04  0.15086599626E+04  0.00000000000E+00 0. -1.
          4    1    6    6  503    0  0.18360443177E+03 -0.20475411544E+03  0.19480756861E+03  0.33702347684E+03  0.00000000000E+00 0. -1.
         -4    1    6    6    0  503 -0.31898153811E+01 -0.11403754900E+01 -0.66996135519E+01  0.75073430832E+01  0.00000000000E+00 0.  1.
<mgrwt>
<rscale>  0 0.14810992E+04</rscale>
<asrwt>0</asrwt>
<pdfrwt beam="1">  1        2 0.56300637E+00 0.14810992E+04</pdfrwt>
<pdfrwt beam="2">  1       -1 0.23055167E-01 0.14810992E+04</pdfrwt>
<totfact> 0.11275972E+01</totfact>
</mgrwt>
</event>
<event>
12    6  0.1586493E-007  0.1709278E+04  0.7818608E-02  0.8756090E-01
         -1   -1    0    0    0  501 -0.00000000000E+00  0.00000000000E+00  0.29640697266E+03  0.29640697266E+03  0.00000000000E+00 0.  1.
          2   -1    0    0  501    0  0.00000000000E+00 -0.00000000000E+00 -0.24642057467E+04  0.24642057467E+04  0.00000000000E+00 0. -1.
         24    2    1    2    0    0  0.36296167935E+03 -0.47259862404E+03 -0.66531472456E+03  0.89674544875E+03  0.80112901629E+02 0.  0.
        254    2    1    2    0    0 -0.36296167935E+03  0.47259862404E+03 -0.15024840495E+04  0.18638672706E+04  0.92814451645E+03 0.  0.
         23    2    4    4    0    0 -0.58674980937E+03  0.17343359988E+03 -0.51766401836E+03  0.80670377098E+03  0.91871572538E+02 0.  0.
         23    2    4    4    0    0  0.22378813002E+03  0.29916502416E+03 -0.98482003115E+03  0.10571634997E+04  0.90240414739E+02 0.  0.
          4    1    3    3  502    0  0.16032115725E+02 -0.36351786498E+01 -0.93164934074E+01  0.18895510256E+02  0.00000000000E+00 0. -1.
         -3    1    3    3    0  502  0.34692956363E+03 -0.46896344539E+03 -0.65599823116E+03  0.87784993849E+03  0.00000000000E+00 0.  1.
         11    1    5    5    0    0 -0.22978297811E+03  0.11289125528E+03 -0.23233865832E+03  0.34572518667E+03  0.00000000000E+00 0.  1.
        -11    1    5    5    0    0 -0.35696683126E+03  0.60542344608E+02 -0.28532536004E+03  0.46097858431E+03  0.00000000000E+00 0. -1.
          1    1    6    6  503    0  0.35305848913E+02  0.10805789685E+03 -0.34764196425E+03  0.36575667779E+03  0.00000000000E+00 0. -1.
         -1    1    6    6    0  503  0.18848228111E+03  0.19110712731E+03 -0.63717806690E+03  0.69140682188E+03  0.00000000000E+00 0.  1.
<mgrwt>
<rscale>  0 0.17092779E+04</rscale>
<asrwt>0</asrwt>
<pdfrwt beam="1">  1        2 0.37910858E+00 0.17092779E+04</pdfrwt>
<pdfrwt beam="2">  1       -1 0.45601073E-01 0.17092779E+04</pdfrwt>
<totfact> 0.18913283E+01</totfact>
</mgrwt>
</event>
<event>
12    6  0.1586493E-007  0.1286528E+04  0.7818608E-02  0.9040317E-01
          2   -1    0    0  501    0  0.00000000000E+00  0.00000000000E+00  0.54615480585E+03  0.54615480585E+03  0.00000000000E+00 0. -1.
         -1   -1    0    0    0  501 -0.00000000000E+00 -0.00000000000E+00 -0.75764028363E+03  0.75764028363E+03  0.00000000000E+00 0.  1.
         24    2    1    2    0    0 -0.16636470372E+03 -0.73260532090E+02  0.21437359930E+03  0.29018386190E+03  0.72154787954E+02 0.  0.
        254    2    1    2    0    0  0.16636470372E+03  0.73260532090E+02 -0.42585907709E+03  0.10136112276E+04  0.90166925584E+03 0.  0.
         23    2    4    4    0    0 -0.16538389055E+03 -0.12270629386E+03 -0.55323586150E+03  0.59743122045E+03  0.91899286759E+02 0.  0.
         23    2    4    4    0    0  0.33174859427E+03  0.19596682595E+03  0.12737678441E+03  0.41618000713E+03  0.92308322784E+02 0.  0.
          2    1    3    3  502    0 -0.93006594372E+02 -0.11253266990E+02  0.70741083997E+02  0.11739320074E+03  0.00000000000E+00 0. -1.
         -1    1    3    3    0  502 -0.73358109347E+02 -0.62007265099E+02  0.14363251531E+03  0.17279066116E+03  0.00000000000E+00 0.  1.
         11    1    5    5    0    0 -0.57723608826E+02 -0.62812098087E+02 -0.34581269105E+03  0.35617943788E+03  0.00000000000E+00 0. -1.
        -11    1    5    5    0    0 -0.10766028173E+03 -0.59894195774E+02 -0.20742317045E+03  0.24125178256E+03  0.00000000000E+00 0.  1.
          2    1    6    6  503    0 -0.69385179293E+00  0.18790492001E+02  0.96872612498E+00  0.18828235452E+02  0.00000000000E+00 0.  1.
         -2    1    6    6    0  503  0.33244244606E+03  0.17717633395E+03  0.12640805829E+03  0.39735177168E+03  0.00000000000E+00 0. -1.
<mgrwt>
<rscale>  0 0.12865285E+04</rscale>
<asrwt>0</asrwt>
<pdfrwt beam="1">  1        2 0.84023817E-01 0.12865285E+04</pdfrwt>
<pdfrwt beam="2">  1       -1 0.11656004E+00 0.12865285E+04</pdfrwt>
<totfact> 0.41388302E+01</totfact>
</mgrwt>
</event>
<event>
12    6  0.1895035E-007  0.2417904E+04  0.7818608E-02  0.8432831E-01
         -1   -1    0    0    0  501 -0.00000000000E+00  0.00000000000E+00  0.76474780252E+03  0.76474780252E+03  0.00000000000E+00 0.  1.
          2   -1    0    0  501    0  0.00000000000E+00 -0.00000000000E+00 -0.19111719187E+04  0.19111719187E+04  0.00000000000E+00 0. -1.
         24    2    1    2    0    0  0.21429658452E+03 -0.60671541972E+03 -0.13700098154E+04  0.15157135707E+04  0.80212889121E+02 0.  0.
        254    2    1    2    0    0 -0.21429658452E+03  0.60671541972E+03  0.22358569922E+03  0.11602061505E+04  0.93918109013E+03 0.  0.
         23    2    4    4    0    0 -0.23180577238E+03  0.26461017761E+03 -0.33739215940E+03  0.49665977269E+03  0.95315257860E+02 0.  0.
         23    2    4    4    0    0  0.17509187854E+02  0.34210524211E+03  0.56097785861E+03  0.66354637779E+03  0.90857411851E+02 0.  0.
          4    1    3    3  502    0  0.16982301590E+03 -0.49134248446E+03 -0.10266407938E+04  0.11507600155E+04  0.00000000000E+00 0. -1.
         -3    1    3    3    0  502  0.44473568626E+02 -0.11537293526E+03 -0.34336902157E+03  0.36495355522E+03  0.00000000000E+00 0.  1.
         11    1    5    5    0    0 -0.10126671259E+03  0.18652810318E+03 -0.19036902313E+03  0.28511058438E+03  0.00000000000E+00 0. -1.
        -11    1    5    5    0    0 -0.13053905979E+03  0.78082074422E+02 -0.14702313627E+03  0.21154918831E+03  0.00000000000E+00 0.  1.
          3    1    6    6  503    0  0.23286714308E+02  0.19619424025E+03  0.23962216160E+03  0.31056920533E+03  0.00000000000E+00 0. -1.
         -3    1    6    6    0  503 -0.57775264540E+01  0.14591100186E+03  0.32135569701E+03  0.35297717246E+03  0.00000000000E+00 0.  1.
<mgrwt>
<rscale>  0 0.24179037E+04</rscale>
<asrwt>0</asrwt>
<pdfrwt beam="1">  1        2 0.29402645E+00 0.24179037E+04</pdfrwt>
<pdfrwt beam="2">  1       -1 0.11765351E+00 0.24179037E+04</pdfrwt>
<totfact> 0.49696667E+00</totfact>
</mgrwt>
</event>
<event>
12    6  0.1586493E-007  0.1696099E+04  0.7818608E-02  0.8763593E-01
         -1   -1    0    0    0  501 -0.00000000000E+00  0.00000000000E+00  0.79847612796E+03  0.79847612796E+03  0.00000000000E+00 0.  1.
          2   -1    0    0  501    0  0.00000000000E+00 -0.00000000000E+00 -0.90070032420E+03  0.90070032420E+03  0.00000000000E+00 0. -1.
         24    2    1    2    0    0 -0.55476142756E+03  0.41000087798E+02  0.19687983310E+03  0.59552226594E+03  0.80273606178E+02 0.  0.
        254    2    1    2    0    0  0.55476142756E+03 -0.41000087798E+02 -0.29910402933E+03  0.11036541862E+04  0.90506800501E+03 0.  0.
         23    2    4    4    0    0  0.12955532370E+03  0.37811697701E+03  0.40835233444E+02  0.41164198852E+03  0.89580021359E+02 0.  0.
         23    2    4    4    0    0  0.42520610386E+03 -0.41911706480E+03 -0.33993926277E+03  0.69201219770E+03  0.82842227286E+02 0.  0.
          2    1    3    3  502    0 -0.25242170320E+03  0.17111985588E+02  0.47397260907E+02  0.25740247986E+03  0.00000000000E+00 0. -1.
         -1    1    3    3    0  502 -0.30233972436E+03  0.23888102210E+02  0.14948257219E+03  0.33811978608E+03  0.00000000000E+00 0.  1.
         11    1    5    5    0    0 -0.85254243009E+01  0.61524791969E+02 -0.86826746389E+01  0.62716598483E+02  0.00000000000E+00 0. -1.
        -11    1    5    5    0    0  0.13808074800E+03  0.31659218504E+03  0.49517908082E+02  0.34892539004E+03  0.00000000000E+00 0.  1.
          4    1    6    6  503    0  0.19048285586E+03 -0.16179553883E+03 -0.10060143969E+03  0.26941077267E+03  0.00000000000E+00 0. -1.
         -4    1    6    6    0  503  0.23472324800E+03 -0.25732152597E+03 -0.23933782308E+03  0.42260142503E+03  0.00000000000E+00 0.  1.
<mgrwt>
<rscale>  0 0.16960987E+04</rscale>
<asrwt>0</asrwt>
<pdfrwt beam="1">  1        2 0.13856928E+00 0.16960987E+04</pdfrwt>
<pdfrwt beam="2">  1       -1 0.12284248E+00 0.16960987E+04</pdfrwt>
<totfact> 0.18595940E+01</totfact>
</mgrwt>
</event>
<event>
12    6  0.1586493E-007  0.2089725E+04  0.7818608E-02  0.8565783E-01
          2   -1    0    0  501    0  0.00000000000E+00  0.00000000000E+00  0.30967989541E+04  0.30967989541E+04  0.00000000000E+00 0. -1.
         -1   -1    0    0    0  501 -0.00000000000E+00 -0.00000000000E+00 -0.35253734121E+03  0.35253734121E+03  0.00000000000E+00 0.  1.
         24    2    1    2    0    0 -0.35091668119E+03 -0.64294760214E+03  0.41228377311E+03  0.84409581969E+03  0.77431950862E+02 0.  0.
        254    2    1    2    0    0  0.35091668119E+03  0.64294760214E+03  0.23319778397E+04  0.26052404756E+04  0.90146167659E+03 0.  0.
         23    2    4    4    0    0  0.46872727723E+03  0.78415415037E+03  0.15975163111E+04  0.18423683841E+04  0.87520892437E+02 0.  0.
         23    2    4    4    0    0 -0.11781059604E+03 -0.14120654823E+03  0.73446152860E+03  0.76287209143E+03  0.93388784591E+02 0.  0.
          4    1    3    3  502    0 -0.19958968048E+03 -0.36246294431E+03  0.27656616605E+03  0.49769897605E+03  0.00000000000E+00 0. -1.
         -3    1    3    3    0  502 -0.15132700071E+03 -0.28048465783E+03  0.13571760706E+03  0.34639684364E+03  0.00000000000E+00 0.  1.
         11    1    5    5    0    0  0.97388893382E+02  0.12263554861E+03  0.32784107718E+03  0.36332333565E+03  0.00000000000E+00 0.  1.
        -11    1    5    5    0    0  0.37133838385E+03  0.66151860176E+03  0.12696752339E+04  0.14790450485E+04  0.00000000000E+00 0. -1.
          4    1    6    6  503    0 -0.11536445263E+03 -0.89073321972E+02  0.62263018776E+03  0.63946177706E+03  0.00000000000E+00 0. -1.
         -4    1    6    6    0  503 -0.24461434121E+01 -0.52133226259E+02  0.11183134085E+03  0.12341031437E+03  0.00000000000E+00 0.  1.
<mgrwt>
<rscale>  0 0.20897246E+04</rscale>
<asrwt>0</asrwt>
<pdfrwt beam="1">  1        2 0.47643059E+00 0.20897246E+04</pdfrwt>
<pdfrwt beam="2">  1       -1 0.54236516E-01 0.20897246E+04</pdfrwt>
<totfact> 0.54607066E+00</totfact>
</mgrwt>
</event>
<event>
12    6  0.1586493E-007  0.1464660E+04  0.7818608E-02  0.8908300E-01
         -1   -1    0    0    0  501 -0.00000000000E+00  0.00000000000E+00  0.20758338622E+03  0.20758338622E+03  0.00000000000E+00 0.  1.
          2   -1    0    0  501    0  0.00000000000E+00 -0.00000000000E+00 -0.25835748862E+04  0.25835748862E+04  0.00000000000E+00 0. -1.
         24    2    1    2    0    0 -0.18536325429E+03 -0.27935745597E+03 -0.17262355164E+03  0.38569503878E+03  0.81004000614E+02 0.  0.
        254    2    1    2    0    0  0.18536325429E+03  0.27935745597E+03 -0.22033679484E+04  0.24054632337E+04  0.90499885545E+03 0.  0.
         23    2    4    4    0    0  0.43526623983E+03  0.43633364532E+03 -0.11497120548E+04  0.13075989129E+04  0.90185134696E+02 0.  0.
         23    2    4    4    0    0 -0.24990298554E+03 -0.15697618935E+03 -0.10536558936E+04  0.10978643208E+04  0.89567284909E+02 0.  0.
          2    1    3    3  502    0  0.16124003849E+01 -0.45115075536E+02 -0.24807733824E+02  0.51511101067E+02  0.00000000000E+00 0. -1.
         -1    1    3    3    0  502 -0.18697565467E+03 -0.23424238043E+03 -0.14781581782E+03  0.33418393772E+03  0.00000000000E+00 0.  1.
         11    1    5    5    0    0  0.70809574763E+02  0.99122491675E+02 -0.16865341775E+03  0.20804624378E+03  0.00000000000E+00 0. -1.
        -11    1    5    5    0    0  0.36445666506E+03  0.33721115364E+03 -0.98105863702E+03  0.10995526691E+04  0.00000000000E+00 0.  1.
          1    1    6    6  503    0 -0.19188954331E+03 -0.16019402352E+03 -0.87432188397E+03  0.90935278017E+03  0.00000000000E+00 0. -1.
         -1    1    6    6    0  503 -0.58013442231E+02  0.32178341761E+01 -0.17933400962E+03  0.18851154061E+03  0.00000000000E+00 0.  1.
<mgrwt>
<rscale>  0 0.14646600E+04</rscale>
<asrwt>0</asrwt>
<pdfrwt beam="1">  1        2 0.39747306E+00 0.14646600E+04</pdfrwt>
<pdfrwt beam="2">  1       -1 0.31935906E-01 0.14646600E+04</pdfrwt>
<totfact> 0.31484729E+01</totfact>
</mgrwt>
</event>
<event>
12    6  0.1586493E-007  0.1777590E+04  0.7818608E-02  0.8718308E-01
          2   -1    0    0  501    0  0.00000000000E+00  0.00000000000E+00  0.61207446356E+03  0.61207446356E+03  0.00000000000E+00 0. -1.
         -1   -1    0    0    0  501 -0.00000000000E+00 -0.00000000000E+00 -0.12906220151E+04  0.12906220151E+04  0.00000000000E+00 0.  1.
         24    2    1    2    0    0 -0.56971561864E+03  0.26883040172E+03 -0.46420409786E+03  0.78650727623E+03  0.79136464880E+02 0.  0.
        254    2    1    2    0    0  0.56971561864E+03 -0.26883040172E+03 -0.21434345372E+03  0.11161892025E+04  0.89615263685E+03 0.  0.
         23    2    4    4    0    0 -0.57752377780E+02 -0.13815066700E+03  0.25986638707E+03  0.31329577981E+03  0.90569103927E+02 0.  0.
         23    2    4    4    0    0  0.62746799642E+03 -0.13067973472E+03 -0.47420984079E+03  0.80289342266E+03  0.94707948175E+02 0.  0.
          4    1    3    3  502    0 -0.21822205418E+03  0.81738681065E+02 -0.13116916175E+03  0.26740872444E+03  0.00000000000E+00 0. -1.
         -3    1    3    3    0  502 -0.35149356446E+03  0.18709172065E+03 -0.33303493611E+03  0.51909855178E+03  0.00000000000E+00 0.  1.
         11    1    5    5    0    0 -0.58113438102E+02 -0.83836386364E+02  0.22930870598E+03  0.25097448875E+03  0.00000000000E+00 0.  1.
        -11    1    5    5    0    0  0.36106032241E+00 -0.54314280634E+02  0.30557681090E+02  0.62321291057E+02  0.00000000000E+00 0. -1.
          1    1    6    6  503    0  0.22583366999E+03 -0.66347029685E+01 -0.19307791531E+03  0.29719345075E+03  0.00000000000E+00 0. -1.
         -1    1    6    6    0  503  0.40163432644E+03 -0.12404503175E+03 -0.28113192547E+03  0.50569997191E+03  0.00000000000E+00 0.  1.
<mgrwt>
<rscale>  0 0.17775903E+04</rscale>
<asrwt>0</asrwt>
<pdfrwt beam="1">  1        2 0.94165302E-01 0.17775903E+04</pdfrwt>
<pdfrwt beam="2">  1       -1 0.19855723E+00 0.17775903E+04</pdfrwt>
<totfact> 0.80522761E+00</totfact>
</mgrwt>
</event>
<event>
12    6  0.1586493E-007  0.2833399E+04  0.7818608E-02  0.8292974E-01
          2   -1    0    0  501    0  0.00000000000E+00  0.00000000000E+00  0.26107174845E+04  0.26107174845E+04  0.00000000000E+00 0. -1.
         -1   -1    0    0    0  501 -0.00000000000E+00 -0.00000000000E+00 -0.76876877669E+03  0.76876877669E+03  0.00000000000E+00 0.  1.
         24    2    1    2    0    0  0.95263573140E+03 -0.25844724231E+02  0.18271320242E+04  0.20622609746E+04  0.79536825734E+02 0.  0.
        254    2    1    2    0    0 -0.95263573140E+03  0.25844724231E+02  0.14816683539E+02  0.13172252866E+04  0.90921951972E+03 0.  0.
         23    2    4    4    0    0  0.78798587160E+02  0.17570176996E+03 -0.14482279490E+03  0.25835373797E+03  0.93234557407E+02 0.  0.
         23    2    4    4    0    0 -0.10314343186E+04 -0.14985704573E+03  0.15963947844E+03  0.10588715486E+04  0.97006730556E+02 0.  0.
          2    1    3    3  502    0  0.62761738218E+03 -0.15893085898E+02  0.12830045933E+04  0.14283756352E+04  0.00000000000E+00 0. -1.
         -1    1    3    3    0  502  0.32501834922E+03 -0.99516383332E+01  0.54412743090E+03  0.63388533939E+03  0.00000000000E+00 0.  1.
         11    1    5    5    0    0  0.30947949250E+02  0.15191726559E+03 -0.13146802097E+03  0.20327437538E+03  0.00000000000E+00 0. -1.
        -11    1    5    5    0    0  0.47850637910E+02  0.23784504368E+02 -0.13354773923E+02  0.55079362587E+02  0.00000000000E+00 0.  1.
          1    1    6    6  503    0 -0.94896053928E+03 -0.13730874940E+03  0.11939253287E+03  0.96624757421E+03  0.00000000000E+00 0. -1.
         -1    1    6    6    0  503 -0.82473779283E+02 -0.12548296334E+02  0.40246945570E+02  0.92623974422E+02  0.00000000000E+00 0.  1.
<mgrwt>
<rscale>  0 0.28333994E+04</rscale>
<asrwt>0</asrwt>
<pdfrwt beam="1">  1        2 0.40164884E+00 0.28333994E+04</pdfrwt>
<pdfrwt beam="2">  1       -1 0.11827212E+00 0.28333994E+04</pdfrwt>
<totfact> 0.18972447E+00</totfact>
</mgrwt>
</event>
<event>
12    6  0.1586493E-007  0.3188733E+04  0.7818608E-02  0.8191799E-01
          2   -1    0    0  501    0  0.00000000000E+00  0.00000000000E+00  0.34783282410E+04  0.34783282410E+04  0.00000000000E+00 0. -1.
         -1   -1    0    0    0  501 -0.00000000000E+00 -0.00000000000E+00 -0.73081211388E+03  0.73081211388E+03  0.00000000000E+00 0.  1.
         24    2    1    2    0    0 -0.10594786680E+04 -0.93891264925E+03  0.17151191235E+04  0.22253609215E+04  0.80904958497E+02 0.  0.
        254    2    1    2    0    0  0.10594786680E+04  0.93891264925E+03  0.10323970036E+04  0.19837794333E+04  0.93031460075E+03 0.  0.
         23    2    4    4    0    0  0.34887602105E+03  0.90580342583E+03  0.63195483125E+03  0.11619017336E+04  0.91947840961E+02 0.  0.
         23    2    4    4    0    0  0.71060264692E+03  0.33109223422E+02  0.40044217233E+03  0.82187769976E+03  0.95271598616E+02 0.  0.
          2    1    3    3  502    0 -0.45215342837E+03 -0.38594980085E+03  0.78078277590E+03  0.98133669792E+03  0.00000000000E+00 0. -1.
         -1    1    3    3    0  502 -0.60732523960E+03 -0.55296284841E+03  0.93433634763E+03  0.12440242236E+04  0.00000000000E+00 0.  1.
         11    1    5    5    0    0  0.90573457615E+02  0.24394782493E+03  0.21915569225E+03  0.34021068466E+03  0.00000000000E+00 0. -1.
        -11    1    5    5    0    0  0.25830256343E+03  0.66185560090E+03  0.41279913899E+03  0.82169104892E+03  0.00000000000E+00 0.  1.
          1    1    6    6  503    0  0.20580031197E+03 -0.16047793819E+02  0.15666990094E+03  0.25914620961E+03  0.00000000000E+00 0. -1.
         -1    1    6    6    0  503  0.50480233494E+03  0.49157017241E+02  0.24377227139E+03  0.56273149015E+03  0.00000000000E+00 0.  1.
<mgrwt>
<rscale>  0 0.31887329E+04</rscale>
<asrwt>0</asrwt>
<pdfrwt beam="1">  1        2 0.53512741E+00 0.31887329E+04</pdfrwt>
<pdfrwt beam="2">  1       -1 0.11243263E+00 0.31887329E+04</pdfrwt>
<totfact> 0.58307378E-01</totfact>
</mgrwt>
</event>
<event>
12    6  0.1586493E-007  0.1734130E+04  0.7818608E-02  0.8742135E-01
          2   -1    0    0  501    0  0.00000000000E+00  0.00000000000E+00  0.13148056425E+04  0.13148056425E+04  0.00000000000E+00 0. -1.
         -1   -1    0    0    0  501 -0.00000000000E+00 -0.00000000000E+00 -0.57179677987E+03  0.57179677987E+03  0.00000000000E+00 0.  1.
         24    2    1    2    0    0 -0.30805151709E+03 -0.54426410224E+02 -0.33129504333E+03  0.46286377883E+03  0.81415604829E+02 0.  0.
        254    2    1    2    0    0  0.30805151709E+03  0.54426410224E+02  0.10743039060E+04  0.14237386435E+04  0.88036632798E+03 0.  0.
         23    2    4    4    0    0  0.27356022500E+03  0.31931724763E+03  0.10570058380E+04  0.11412806235E+04  0.91985969268E+02 0.  0.
         23    2    4    4    0    0  0.34491292091E+02 -0.26489083740E+03  0.17298067945E+02  0.28245802009E+03  0.90147129659E+02 0.  0.
          4    1    3    3  502    0 -0.15161870775E+02  0.63990880316E+01 -0.48484839038E+02  0.51201662762E+02  0.00000000000E+00 0. -1.
         -3    1    3    3    0  502 -0.29288964632E+03 -0.60825498255E+02 -0.28281020429E+03  0.41166211607E+03  0.00000000000E+00 0.  1.
         11    1    5    5    0    0  0.14545536739E+03  0.10392225468E+03  0.40137104465E+03  0.43938117211E+03  0.00000000000E+00 0. -1.
        -11    1    5    5    0    0  0.12810485761E+03  0.21539499295E+03  0.65563479337E+03  0.70189945135E+03  0.00000000000E+00 0.  1.
          2    1    6    6  503    0 -0.25979103954E+02 -0.10696457067E+03 -0.12372085812E+02  0.11076733150E+03  0.00000000000E+00 0. -1.
         -2    1    6    6    0  503  0.60470396045E+02 -0.15792626673E+03  0.29670153757E+02  0.17169068858E+03  0.00000000000E+00 0.  1.
<mgrwt>
<rscale>  0 0.17341299E+04</rscale>
<asrwt>0</asrwt>
<pdfrwt beam="1">  1        2 0.20227779E+00 0.17341299E+04</pdfrwt>
<pdfrwt beam="2">  1       -1 0.87968736E-01 0.17341299E+04</pdfrwt>
<totfact> 0.22271148E+01</totfact>
</mgrwt>
</event>
<event>
12    6  0.1586493E-007  0.2095070E+04  0.7818608E-02  0.8563418E-01
          2   -1    0    0  501    0  0.00000000000E+00  0.00000000000E+00  0.26309693494E+04  0.26309693494E+04  0.00000000000E+00 0. -1.
         -1   -1    0    0    0  501 -0.00000000000E+00 -0.00000000000E+00 -0.41708191946E+03  0.41708191946E+03  0.00000000000E+00 0.  1.
         24    2    1    2    0    0  0.40180137343E+03 -0.75078209903E+03  0.88146424450E+03  0.12282261658E+04  0.80263293122E+02 0.  0.
        254    2    1    2    0    0 -0.40180137343E+03  0.75078209903E+03  0.13324231855E+04  0.18198251030E+04  0.90071846689E+03 0.  0.
         23    2    4    4    0    0  0.61727913589E+02  0.49602075866E+03  0.11434883576E+04  0.12510894401E+04  0.88386848149E+02 0.  0.
         23    2    4    4    0    0 -0.46352928702E+03  0.25476134038E+03  0.18893482789E+03  0.56873566293E+03  0.89449117506E+02 0.  0.
          4    1    3    3  502    0  0.27661550420E+03 -0.47448202435E+03  0.61415747486E+03  0.82391670242E+03  0.00000000000E+00 0. -1.
         -3    1    3    3    0  502  0.12518586923E+03 -0.27630007468E+03  0.26730676964E+03  0.40430946343E+03  0.00000000000E+00 0.  1.
         11    1    5    5    0    0  0.42262458149E+02  0.44070148557E+03  0.93514252585E+03  0.10346475044E+04  0.00000000000E+00 0.  1.
        -11    1    5    5    0    0  0.19465455439E+02  0.55319273092E+02  0.20834583173E+03  0.21644193570E+03  0.00000000000E+00 0. -1.
          1    1    6    6  503    0 -0.21123758047E+02  0.34041169995E+02  0.27676993870E+02  0.48693227438E+02  0.00000000000E+00 0. -1.
         -1    1    6    6    0  503 -0.44240552897E+03  0.22072017038E+03  0.16125783402E+03  0.52004243549E+03  0.00000000000E+00 0.  1.
<mgrwt>
<rscale>  0 0.20950702E+04</rscale>
<asrwt>0</asrwt>
<pdfrwt beam="1">  1        2 0.40476451E+00 0.20950702E+04</pdfrwt>
<pdfrwt beam="2">  1       -1 0.64166450E-01 0.20950702E+04</pdfrwt>
<totfact> 0.75456999E+00</totfact>
</mgrwt>
</event>
<event>
12    6  0.1586493E-007  0.2136379E+04  0.7818608E-02  0.8545385E-01
         -1   -1    0    0    0  501 -0.00000000000E+00  0.00000000000E+00  0.70677091953E+03  0.70677091953E+03  0.00000000000E+00 0.  1.
          2   -1    0    0  501    0  0.00000000000E+00 -0.00000000000E+00 -0.16144253917E+04  0.16144253917E+04  0.00000000000E+00 0. -1.
         24    2    1    2    0    0  0.97798415286E+02  0.84464692756E+03 -0.61066600085E+03  0.10500362047E+04  0.81670705940E+02 0.  0.
        254    2    1    2    0    0 -0.97798415286E+02 -0.84464692756E+03 -0.29698847132E+03  0.12711601066E+04  0.89702447133E+03 0.  0.
         23    2    4    4    0    0 -0.46460281166E+03 -0.53351083432E+03 -0.31737258601E+03  0.78101826649E+03  0.93672788467E+02 0.  0.
         23    2    4    4    0    0  0.36680439637E+03 -0.31113609325E+03  0.20384114692E+02  0.49014184008E+03  0.92045518874E+02 0.  0.
          4    1    3    3  502    0  0.79309944537E+02  0.59551050660E+03 -0.38626857722E+03  0.71423122623E+03  0.00000000000E+00 0. -1.
         -1    1    3    3    0  502  0.18488470749E+02  0.24913642096E+03 -0.22439742363E+03  0.33580497842E+03  0.00000000000E+00 0.  1.
         11    1    5    5    0    0 -0.50793075786E+02 -0.10973913932E+03 -0.44086584336E+02  0.12870991479E+03  0.00000000000E+00 0.  1.
        -11    1    5    5    0    0 -0.41380973587E+03 -0.42377169500E+03 -0.27328600168E+03  0.65230835170E+03  0.00000000000E+00 0. -1.
          2    1    6    6  503    0  0.35256904040E+03 -0.28127383116E+03  0.38078076781E+02  0.45262549230E+03  0.00000000000E+00 0. -1.
         -2    1    6    6    0  503  0.14235355971E+02 -0.29862262086E+02 -0.17693962089E+02  0.37516347782E+02  0.00000000000E+00 0.  1.
<mgrwt>
<rscale>  0 0.21363791E+04</rscale>
<asrwt>0</asrwt>
<pdfrwt beam="1">  1        2 0.24837314E+00 0.21363791E+04</pdfrwt>
<pdfrwt beam="2">  1       -1 0.10873399E+00 0.21363791E+04</pdfrwt>
<totfact> 0.89854398E+00</totfact>
</mgrwt>
</event>
<event>
12    6  0.1586493E-007  0.2028692E+04  0.7818608E-02  0.8593323E-01
          2   -1    0    0  501    0  0.00000000000E+00  0.00000000000E+00  0.25497337455E+04  0.25497337455E+04  0.00000000000E+00 0. -1.
         -1   -1    0    0    0  501 -0.00000000000E+00 -0.00000000000E+00 -0.40353136730E+03  0.40353136730E+03  0.00000000000E+00 0.  1.
         24    2    1    2    0    0 -0.54310662655E+03  0.54521134995E+03  0.48319027723E+03  0.91227076664E+03  0.80900455780E+02 0.  0.
        254    2    1    2    0    0  0.54310662655E+03 -0.54521134995E+03  0.16630121010E+04  0.20409943462E+04  0.89879277322E+03 0.  0.
         23    2    4    4    0    0 -0.27208512201E+02  0.20141495805E+03  0.46826783566E+03  0.51818769683E+03  0.89081057300E+02 0.  0.
         23    2    4    4    0    0  0.57031513875E+03 -0.74662630800E+03  0.11947442653E+04  0.15228066494E+04  0.93893719056E+02 0.  0.
          4    1    3    3  502    0 -0.13908999568E+03  0.14516586582E+03  0.85757416108E+02  0.21857147553E+03  0.00000000000E+00 0. -1.
         -3    1    3    3    0  502 -0.40401663087E+03  0.40004548414E+03  0.39743286112E+03  0.69369929112E+03  0.00000000000E+00 0.  1.
         11    1    5    5    0    0  0.61675759338E+01  0.17521992018E+03  0.41168447332E+03  0.44746414939E+03  0.00000000000E+00 0. -1.
        -11    1    5    5    0    0 -0.33376088135E+02  0.26195037871E+02  0.56583362346E+02  0.70723547441E+02  0.00000000000E+00 0.  1.
          1    1    6    6  503    0  0.51689283764E+03 -0.71440659151E+03  0.11127752174E+04  0.14197970517E+04  0.00000000000E+00 0. -1.
         -1    1    6    6    0  503  0.53422301107E+02 -0.32219716496E+02  0.81969047978E+02  0.10300959767E+03  0.00000000000E+00 0.  1.
<mgrwt>
<rscale>  0 0.20286917E+04</rscale>
<asrwt>0</asrwt>
<pdfrwt beam="1">  1        2 0.39226672E+00 0.20286917E+04</pdfrwt>
<pdfrwt beam="2">  1       -1 0.62081750E-01 0.20286917E+04</pdfrwt>
<totfact> 0.90478680E+00</totfact>
</mgrwt>
</event>
<event>
12    6  0.1586493E-007  0.2243055E+04  0.7818608E-02  0.8500718E-01
         -1   -1    0    0    0  501 -0.00000000000E+00  0.00000000000E+00  0.80983876387E+03  0.80983876387E+03  0.00000000000E+00 0.  1.
          2   -1    0    0  501    0  0.00000000000E+00 -0.00000000000E+00 -0.15531786616E+04  0.15531786616E+04  0.00000000000E+00 0. -1.
         24    2    1    2    0    0 -0.26678428023E+03  0.53006931074E+02  0.63738660371E+03  0.69760411679E+03  0.80038954601E+02 0.  0.
        254    2    1    2    0    0  0.26678428023E+03 -0.53006931074E+02 -0.13807265014E+04  0.16654133086E+04  0.89062462913E+03 0.  0.
         23    2    4    4    0    0  0.22466166799E+03 -0.42467672570E+03 -0.10481241735E+04  0.11566197935E+04  0.91552592480E+02 0.  0.
         23    2    4    4    0    0  0.42122612243E+02  0.37166979462E+03 -0.33260232790E+03  0.50879351516E+03  0.91289549495E+02 0.  0.
          4    1    3    3  502    0 -0.20478065884E+02 -0.13752106963E+02  0.30362975125E+02  0.39120095689E+02  0.00000000000E+00 0. -1.
         -3    1    3    3    0  502 -0.24630621435E+03  0.66759038037E+02  0.60702362858E+03  0.65848402110E+03  0.00000000000E+00 0.  1.
         11    1    5    5    0    0  0.36606277195E+02 -0.14646360992E+03 -0.27497869692E+03  0.31369554080E+03  0.00000000000E+00 0. -1.
        -11    1    5    5    0    0  0.18805539080E+03 -0.27821311578E+03 -0.77314547658E+03  0.84292425267E+03  0.00000000000E+00 0.  1.
          2    1    6    6  503    0  0.41052409884E+02  0.12559317792E+03 -0.16348001811E+03  0.21020148196E+03  0.00000000000E+00 0. -1.
         -2    1    6    6    0  503  0.10702023587E+01  0.24607661671E+03 -0.16912230979E+03  0.29859203320E+03  0.00000000000E+00 0.  1.
<mgrwt>
<rscale>  0 0.22430553E+04</rscale>
<asrwt>0</asrwt>
<pdfrwt beam="1">  1        2 0.23895056E+00 0.22430553E+04</pdfrwt>
<pdfrwt beam="2">  1       -1 0.12459058E+00 0.22430553E+04</pdfrwt>
<totfact> 0.69352216E+00</totfact>
</mgrwt>
</event>
<event>
12    6  0.1586493E-007  0.1669134E+04  0.7818608E-02  0.8779167E-01
          2   -1    0    0  501    0  0.00000000000E+00  0.00000000000E+00  0.25286377380E+04  0.25286377380E+04  0.00000000000E+00 0. -1.
         -1   -1    0    0    0  501 -0.00000000000E+00 -0.00000000000E+00 -0.27544548203E+03  0.27544548203E+03  0.00000000000E+00 0.  1.
         24    2    1    2    0    0 -0.52240664383E+03 -0.25501203887E+03  0.66240221962E+03  0.88536267491E+03  0.84560771553E+02 0.  0.
        254    2    1    2    0    0  0.52240664383E+03  0.25501203887E+03  0.15907900363E+04  0.19187205451E+04  0.90162949653E+03 0.  0.
         23    2    4    4    0    0  0.19472745655E+03  0.55918071439E+03  0.10629445839E+04  0.12202499890E+04  0.92504018734E+02 0.  0.
         23    2    4    4    0    0  0.32767918728E+03 -0.30416867552E+03  0.52784545242E+03  0.69847055611E+03  0.96685382424E+02 0.  0.
          4    1    3    3  502    0 -0.50313100129E+02 -0.44705044811E+02  0.10945690413E+03  0.12849421364E+03  0.00000000000E+00 0. -1.
         -3    1    3    3    0  502 -0.47209354370E+03 -0.21030699406E+03  0.55294531549E+03  0.75686846128E+03  0.00000000000E+00 0.  1.
         11    1    5    5    0    0  0.12472811427E+03  0.22006625357E+03  0.45857686521E+03  0.52371652614E+03  0.00000000000E+00 0.  1.
        -11    1    5    5    0    0  0.69999342282E+02  0.33911446081E+03  0.60436771872E+03  0.69653346286E+03  0.00000000000E+00 0. -1.
          3    1    6    6  503    0  0.19985919434E+03 -0.24384195191E+03  0.38326140149E+03  0.49627804399E+03  0.00000000000E+00 0. -1.
         -3    1    6    6    0  503  0.12781999294E+03 -0.60326723614E+02  0.14458405093E+03  0.20219251212E+03  0.00000000000E+00 0.  1.
<mgrwt>
<rscale>  0 0.16691337E+04</rscale>
<asrwt>0</asrwt>
<pdfrwt beam="1">  1        2 0.38902118E+00 0.16691337E+04</pdfrwt>
<pdfrwt beam="2">  1       -1 0.42376230E-01 0.16691337E+04</pdfrwt>
<totfact> 0.19967489E+01</totfact>
</mgrwt>
</event>
<event>
12    6  0.1586493E-007  0.3000368E+04  0.7818608E-02  0.8243626E-01
         -1   -1    0    0    0  501 -0.00000000000E+00  0.00000000000E+00  0.98078053560E+03  0.98078053560E+03  0.00000000000E+00 0.  1.
          2   -1    0    0  501    0  0.00000000000E+00 -0.00000000000E+00 -0.22946539441E+04  0.22946539441E+04  0.00000000000E+00 0. -1.
         24    2    1    2    0    0  0.10604501002E+04 -0.51124683868E+03  0.14161381705E+03  0.11887387384E+04  0.84365692495E+02 0.  0.
        254    2    1    2    0    0 -0.10604501002E+04  0.51124683868E+03 -0.14554872255E+04  0.20866957412E+04  0.92191556435E+03 0.  0.
         23    2    4    4    0    0 -0.21399366719E+03  0.37763284860E+03 -0.61382737887E+02  0.44762170401E+03  0.90539999178E+02 0.  0.
         23    2    4    4    0    0 -0.84645643298E+03  0.13361399009E+03 -0.13941044876E+04  0.16390740372E+04  0.93247980031E+02 0.  0.
          2    1    3    3  502    0  0.34536653024E+03 -0.13589499688E+03  0.72699844196E+02  0.37819407416E+03  0.00000000000E+00 0. -1.
         -1    1    3    3    0  502  0.71508356993E+03 -0.37535184180E+03  0.68913972856E+02  0.81054466427E+03  0.00000000000E+00 0.  1.
         11    1    5    5    0    0 -0.16839044785E+03  0.32974861850E+03 -0.22561177106E+02  0.37094271935E+03  0.00000000000E+00 0.  1.
        -11    1    5    5    0    0 -0.45603219337E+02  0.47884230100E+02 -0.38821560781E+02  0.76678984655E+02  0.00000000000E+00 0. -1.
          4    1    6    6  503    0 -0.40894323366E+02  0.54850029282E+01 -0.11336629851E+03  0.12064140491E+03  0.00000000000E+00 0. -1.
         -4    1    6    6    0  503 -0.80556210962E+03  0.12812898716E+03 -0.12807381891E+04  0.15184326323E+04  0.00000000000E+00 0.  1.
<mgrwt>
<rscale>  0 0.30003679E+04</rscale>
<asrwt>0</asrwt>
<pdfrwt beam="1">  1        2 0.35302368E+00 0.30003679E+04</pdfrwt>
<pdfrwt beam="2">  1       -1 0.15088931E+00 0.30003679E+04</pdfrwt>
<totfact> 0.15254451E+00</totfact>
</mgrwt>
</event>
<event>
12    6  0.1586493E-007  0.1351235E+04  0.7818608E-02  0.8989894E-01
         -1   -1    0    0    0  501 -0.00000000000E+00  0.00000000000E+00  0.36538179994E+03  0.36538179994E+03  0.00000000000E+00 0.  1.
          2   -1    0    0  501    0  0.00000000000E+00 -0.00000000000E+00 -0.12492649860E+04  0.12492649860E+04  0.00000000000E+00 0. -1.
         24    2    1    2    0    0 -0.13941675967E+03  0.33544555261E+03 -0.25324228535E+03  0.44987387132E+03  0.79335322253E+02 0.  0.
        254    2    1    2    0    0  0.13941675967E+03 -0.33544555261E+03 -0.63064090066E+03  0.11647729146E+04  0.90941038333E+03 0.  0.
         23    2    4    4    0    0 -0.93371857605E+02 -0.21579179544E+03 -0.80118225129E+03  0.83930660341E+03  0.85194905824E+02 0.  0.
         23    2    4    4    0    0  0.23278861728E+03 -0.11965375718E+03  0.17054135063E+03  0.32546631117E+03  0.91303918269E+02 0.  0.
          4    1    3    3  502    0 -0.10035882156E+03  0.14651369691E+03 -0.10257011738E+03  0.20508238692E+03  0.00000000000E+00 0. -1.
         -3    1    3    3    0  502 -0.39057938109E+02  0.18893185571E+03 -0.15067216797E+03  0.24479148439E+03  0.00000000000E+00 0.  1.
         11    1    5    5    0    0 -0.94216978989E+02 -0.16823076805E+03 -0.71844744108E+03  0.74387173359E+03  0.00000000000E+00 0. -1.
        -11    1    5    5    0    0  0.84512138430E+00 -0.47561027389E+02 -0.82734810211E+02  0.95434869817E+02  0.00000000000E+00 0.  1.
          1    1    6    6  503    0  0.17087763055E+03 -0.11305306718E+03  0.16479430813E+03  0.26293977374E+03  0.00000000000E+00 0. -1.
         -1    1    6    6    0  503  0.61910986723E+02 -0.66006899964E+01  0.57470425013E+01  0.62526537430E+02  0.00000000000E+00 0.  1.
<mgrwt>
<rscale>  0 0.13512345E+04</rscale>
<asrwt>0</asrwt>
<pdfrwt beam="1">  1        2 0.19219461E+00 0.13512345E+04</pdfrwt>
<pdfrwt beam="2">  1       -1 0.56212584E-01 0.13512345E+04</pdfrwt>
<totfact> 0.63120697E+01</totfact>
</mgrwt>
</event>
<event>
12    6  0.1586493E-007  0.1748634E+04  0.7818608E-02  0.8734103E-01
          2   -1    0    0  501    0  0.00000000000E+00  0.00000000000E+00  0.42252468181E+03  0.42252468181E+03  0.00000000000E+00 0. -1.
         -1   -1    0    0    0  501 -0.00000000000E+00 -0.00000000000E+00 -0.18091959303E+04  0.18091959303E+04  0.00000000000E+00 0.  1.
         24    2    1    2    0    0 -0.51798489864E+02 -0.43507103350E+03  0.83092940819E+02  0.45501939085E+03  0.90378766817E+02 0.  0.
        254    2    1    2    0    0  0.51798489864E+02  0.43507103350E+03 -0.14697641893E+04  0.17767012212E+04  0.89693398291E+03 0.  0.
         23    2    4    4    0    0  0.13003141798E+03 -0.24857156643E+03 -0.32097255399E+03  0.43451950825E+03  0.84189247140E+02 0.  0.
         23    2    4    4    0    0 -0.78232928116E+02  0.68364259993E+03 -0.11487916353E+04  0.13421817130E+04  0.90785097174E+02 0.  0.
          2    1    3    3  502    0 -0.70479399014E+02 -0.24940091191E+03  0.67185673083E+02  0.26773508402E+03  0.00000000000E+00 0. -1.
         -1    1    3    3    0  502  0.18680909150E+02 -0.18567012159E+03  0.15907267736E+02  0.18728430683E+03  0.00000000000E+00 0.  1.
         11    1    5    5    0    0  0.10407140887E+03 -0.16978800707E+03 -0.16816779822E+03  0.26065155639E+03  0.00000000000E+00 0. -1.
        -11    1    5    5    0    0  0.25960009109E+02 -0.78783559364E+02 -0.15280475577E+03  0.17386795186E+03  0.00000000000E+00 0.  1.
          1    1    6    6  503    0 -0.68621580799E+02  0.64498196138E+03 -0.11150301538E+04  0.12899623621E+04  0.00000000000E+00 0. -1.
         -1    1    6    6    0  503 -0.96113473174E+01  0.38660638550E+02 -0.33761481513E+02  0.52219350861E+02  0.00000000000E+00 0.  1.
<mgrwt>
<rscale>  0 0.17486337E+04</rscale>
<asrwt>0</asrwt>
<pdfrwt beam="1">  1        2 0.65003797E-01 0.17486337E+04</pdfrwt>
<pdfrwt beam="2">  1       -1 0.27833783E+00 0.17486337E+04</pdfrwt>
<totfact> 0.36980437E+00</totfact>
</mgrwt>
</event>
