<event>
12    1  0.1536832E-007  0.1785113E+04  0.7818608E-02  0.8714257E-01
         -2   -1    0    0    0  501 -0.00000000000E+00  0.00000000000E+00  0.65750681906E+03  0.65750681906E+03  0.00000000000E+00 0.  1.
          2   -1    0    0  501    0  0.00000000000E+00 -0.00000000000E+00 -0.12116325683E+04  0.12116325683E+04  0.00000000000E+00 0. -1.
         23    2    1    2    0    0 -0.24382823736E+03  0.12082688052E+03  0.42468915232E+03  0.51254618087E+03  0.91056943945E+02 0.  0.
        254    2    1    2    0    0  0.24382823736E+03 -0.12082688052E+03 -0.97881490155E+03  0.13565932065E+04  0.89900788204E+03 0.  0.
        -24    2    4    4    0    0 -0.99527809623E+02  0.12517595010E+03 -0.90114410461E+03  0.91867162246E+03  0.79511315279E+02 0.  0.
         24    2    4    4    0    0  0.34335604698E+03 -0.24600283062E+03 -0.77670796937E+02  0.43792158402E+03  0.85625891975E+02 0.  0.
         13    1    3    3    0    0 -0.45838959300E+02 -0.12499072308E+02  0.57465100479E+02  0.74563226669E+02  0.00000000000E+00 0. -1.
        -13    1    3    3    0    0 -0.19798927806E+03  0.13332595282E+03  0.36722405184E+03  0.43798295420E+03  0.00000000000E+00 0.  1.
          2    1    6    6  502    0  0.20286176084E+03 -0.15323902111E+03 -0.42956608158E+01  0.25427061235E+03  0.00000000000E+00 0. -1.
          1    1    5    5  503    0  0.30962729037E+01  0.33967505201E+02 -0.30603371880E+03  0.30792858809E+03  0.00000000000E+00 0. -1.
         -2    1    5    5    0  503 -0.10262408253E+03  0.91208444903E+02 -0.59511038581E+03  0.61074303437E+03  0.00000000000E+00 0.  1.
         -1    1    6    6    0  502  0.14049428614E+03 -0.92763809514E+02 -0.73375136121E+02  0.18365097167E+03  0.00000000000E+00 0.  1.
<mgrwt>
<rscale>  0 0.17851125E+04</rscale>
<asrwt>0</asrwt>
<pdfrwt beam="1">  1        2 0.18640501E+00 0.17851125E+04</pdfrwt>
<pdfrwt beam="2">  1       -2 0.10115490E+00 0.17851125E+04</pdfrwt>
<totfact> 0.14163080E+01</totfact>
</mgrwt>
</event>
<event>
12    1  0.1536832E-007  0.2158168E+04  0.7818608E-02  0.8536044E-01
         -2   -1    0    0    0  501 -0.00000000000E+00  0.00000000000E+00  0.49846343026E+03  0.49846343026E+03  0.00000000000E+00 0.  1.
          2   -1    0    0  501    0  0.00000000000E+00 -0.00000000000E+00 -0.23360224360E+04  0.23360224360E+04  0.00000000000E+00 0. -1.
         23    2    1    2    0    0 -0.48187595626E+03 -0.10102425537E+03 -0.17299473737E+04  0.18008354345E+04  0.88769414528E+02 0.  0.
        254    2    1    2    0    0  0.48187595626E+03  0.10102425537E+03 -0.10761163206E+03  0.10336504318E+04  0.90246474413E+03 0.  0.
        -24    2    4    4    0    0 -0.17535098383E+03  0.24946745195E+03  0.87032211805E+02  0.32762941630E+03  0.82367781431E+02 0.  0.
         24    2    4    4    0    0  0.65722694009E+03 -0.14844319658E+03 -0.19464384387E+03  0.70602101550E+03  0.81220779219E+02 0.  0.
         11    1    3    3    0    0 -0.38241736724E+03 -0.79777582807E+02 -0.14870388844E+04  0.15374954144E+04  0.00000000000E+00 0. -1.
        -11    1    3    3    0    0 -0.99458589016E+02 -0.21246672566E+02 -0.24290848929E+03  0.26334002012E+03  0.00000000000E+00 0.  1.
          2    1    6    6  502    0  0.36230986991E+03 -0.99338033965E+02 -0.14628883911E+03  0.40315866762E+03  0.00000000000E+00 0. -1.
          1    1    5    5  503    0 -0.11325714819E+03  0.21193427877E+03  0.85503675216E+02  0.25505724575E+03  0.00000000000E+00 0. -1.
         -2    1    5    5    0  503 -0.62093835642E+02  0.37533173178E+02  0.15285365890E+01  0.72572170545E+02  0.00000000000E+00 0.  1.
         -1    1    6    6    0  502  0.29491707018E+03 -0.49105162614E+02 -0.48355004761E+02  0.30286234788E+03  0.00000000000E+00 0.  1.
<mgrwt>
<rscale>  0 0.21581675E+04</rscale>
<asrwt>0</asrwt>
<pdfrwt beam="1">  1        2 0.35938806E+00 0.21581675E+04</pdfrwt>
<pdfrwt beam="2">  1       -2 0.76686683E-01 0.21581675E+04</pdfrwt>
<totfact> 0.60279499E+00</totfact>
</mgrwt>
</event>
<event>
12    1  0.1536832E-007  0.2953658E+04  0.7818608E-02  0.8257089E-01
         -2   -1    0    0    0  501 -0.00000000000E+00  0.00000000000E+00  0.99884618885E+03  0.99884618885E+03  0.00000000000E+00 0.  1.
          2   -1    0    0  501    0  0.00000000000E+00 -0.00000000000E+00 -0.21835431092E+04  0.21835431092E+04  0.00000000000E+00 0. -1.
         23    2    1    2    0    0  0.11827012288E+04 -0.50425461357E+03 -0.77489281738E+03  0.15038754314E+04  0.90152774906E+02 0.  0.
        254    2    1    2    0    0 -0.11827012288E+04  0.50425461357E+03 -0.40980410300E+03  0.16785138667E+04  0.99820563318E+03 0.  0.
        -24    2    4    4    0    0 -0.62269331016E+03 -0.13921385515E+03  0.14398711389E+03  0.65852736282E+03  0.76148162353E+02 0.  0.
         24    2    4    4    0    0 -0.56000791860E+03  0.64346846872E+03 -0.55379121689E+03  0.10199865039E+04  0.77635153730E+02 0.  0.
         11    1    3    3    0    0  0.10652739894E+04 -0.45017475557E+03 -0.72696446996E+03  0.13659953600E+04  0.00000000000E+00 0. -1.
        -11    1    3    3    0    0  0.11742723935E+03 -0.54079857998E+02 -0.47928347420E+02  0.13788007132E+03  0.00000000000E+00 0.  1.
          4    1    6    6  502    0 -0.28889482569E+03  0.29416358581E+03 -0.30277983367E+03  0.51153500682E+03  0.00000000000E+00 0. -1.
          3    1    5    5  503    0 -0.18044876439E+03 -0.56429466113E+02  0.74742887631E+02  0.20330405915E+03  0.00000000000E+00 0. -1.
         -4    1    5    5    0  503 -0.44224454577E+03 -0.82784389036E+02  0.69244226262E+02  0.45522330367E+03  0.00000000000E+00 0.  1.
         -3    1    6    6    0  502 -0.27111309291E+03  0.34930488291E+03 -0.25101138323E+03  0.50845149708E+03  0.00000000000E+00 0.  1.
<mgrwt>
<rscale>  0 0.29536579E+04</rscale>
<asrwt>0</asrwt>
<pdfrwt beam="1">  1        2 0.33592971E+00 0.29536579E+04</pdfrwt>
<pdfrwt beam="2">  1       -2 0.15366864E+00 0.29536579E+04</pdfrwt>
<totfact> 0.12734179E+00</totfact>
</mgrwt>
</event>
<event>
12    1  0.1536832E-007  0.1857962E+04  0.7818608E-02  0.8676069E-01
          2   -1    0    0  501    0  0.00000000000E+00  0.00000000000E+00  0.27236558436E+04  0.27236558436E+04  0.00000000000E+00 0. -1.
         -2   -1    0    0    0  501 -0.00000000000E+00 -0.00000000000E+00 -0.31685567227E+03  0.31685567227E+03  0.00000000000E+00 0.  1.
         23    2    1    2    0    0 -0.51691017777E+03  0.40324697598E+03  0.48335548364E+03  0.81955172201E+03  0.90709679511E+02 0.  0.
        254    2    1    2    0    0  0.51691017777E+03 -0.40324697598E+03  0.19234446877E+04  0.22209597938E+04  0.89622468379E+03 0.  0.
        -24    2    4    4    0    0  0.63470613597E+03 -0.46277565686E+03  0.94887255739E+03  0.12343452051E+04  0.78966876739E+02 0.  0.
         24    2    4    4    0    0 -0.11779595820E+03  0.59528680879E+02  0.97457213027E+03  0.98661458872E+03  0.78727110644E+02 0.  0.
         13    1    3    3    0    0 -0.40564967079E+03  0.27638419649E+03  0.32944817626E+03  0.59116493496E+03  0.00000000000E+00 0.  1.
        -13    1    3    3    0    0 -0.11126050698E+03  0.12686277949E+03  0.15390730738E+03  0.22838678705E+03  0.00000000000E+00 0. -1.
          2    1    6    6  502    0 -0.12111248387E+03  0.31368788839E+02  0.77330538262E+03  0.78336035734E+03  0.00000000000E+00 0. -1.
          3    1    5    5  503    0  0.61406588664E+03 -0.43929744187E+03  0.92973278758E+03  0.11976903656E+04  0.00000000000E+00 0. -1.
         -4    1    5    5    0  503  0.20640249338E+02 -0.23478214993E+02  0.19139769816E+02  0.36654839525E+02  0.00000000000E+00 0.  1.
         -1    1    6    6    0  502  0.33165256699E+01  0.28159892040E+02  0.20126674765E+03  0.20325423138E+03  0.00000000000E+00 0.  1.
<mgrwt>
<rscale>  0 0.18579621E+04</rscale>
<asrwt>0</asrwt>
<pdfrwt beam="1">  1        2 0.41902396E+00 0.18579621E+04</pdfrwt>
<pdfrwt beam="2">  1       -2 0.48747028E-01 0.18579621E+04</pdfrwt>
<totfact> 0.96441378E+00</totfact>
</mgrwt>
</event>
<event>
12    1  0.1536832E-007  0.1190142E+04  0.7818608E-02  0.9121529E-01
          3   -1    0    0  501    0  0.00000000000E+00  0.00000000000E+00  0.25043943493E+04  0.25043943493E+04  0.00000000000E+00 0. -1.
         -3   -1    0    0    0  501 -0.00000000000E+00 -0.00000000000E+00 -0.14139522885E+03  0.14139522885E+03  0.00000000000E+00 0.  1.
         23    2    1    2    0    0  0.91061874767E+02  0.12051879026E+02  0.14813744921E+02  0.12990465622E+03  0.90654618449E+02 0.  0.
        254    2    1    2    0    0 -0.91061874767E+02 -0.12051879026E+02  0.23481853756E+04  0.25158849220E+04  0.89847919827E+03 0.  0.
        -24    2    4    4    0    0 -0.16505179353E+03  0.35241609657E+03  0.55096799384E+03  0.67896247902E+03  0.77363544550E+02 0.  0.
         24    2    4    4    0    0  0.73989918760E+02 -0.36446797559E+03  0.17972173817E+04  0.18369224429E+04  0.77345529109E+02 0.  0.
         11    1    3    3    0    0 -0.41885722065E+01 -0.25612425500E+02  0.83961249528E+01  0.27277012141E+02  0.00000000000E+00 0. -1.
        -11    1    3    3    0    0  0.95250446973E+02  0.37664304526E+02  0.64176199678E+01  0.10262764408E+03  0.00000000000E+00 0.  1.
          4    1    6    6  502    0 -0.15831982286E+02 -0.44506967509E+02  0.24848083054E+03  0.25293130483E+03  0.00000000000E+00 0. -1.
          3    1    5    5  503    0 -0.13370581223E+02  0.27685807193E+01  0.88310140009E+01  0.16261128181E+02  0.00000000000E+00 0. -1.
         -4    1    5    5    0  503 -0.15168121230E+03  0.34964751585E+03  0.54213697983E+03  0.66270135084E+03  0.00000000000E+00 0.  1.
         -3    1    6    6    0  502  0.89821901046E+02 -0.31996100809E+03  0.15487365512E+04  0.15839911381E+04  0.00000000000E+00 0.  1.
<mgrwt>
<rscale>  0 0.11901419E+04</rscale>
<asrwt>0</asrwt>
<pdfrwt beam="1">  1        3 0.38529141E+00 0.11901419E+04</pdfrwt>
<pdfrwt beam="2">  1       -3 0.21753114E-01 0.11901419E+04</pdfrwt>
<totfact> 0.69241140E-01</totfact>
</mgrwt>
</event>
<event>
12    1  0.1536832E-007  0.3722682E+04  0.7818608E-02  0.8062954E-01
          1   -1    0    0  501    0  0.00000000000E+00  0.00000000000E+00  0.18252074167E+04  0.18252074167E+04  0.00000000000E+00 0. -1.
         -1   -1    0    0    0  501 -0.00000000000E+00 -0.00000000000E+00 -0.18981900819E+04  0.18981900819E+04  0.00000000000E+00 0.  1.
         23    2    1    2    0    0 -0.87702301722E+03  0.88684161855E+03  0.12006977724E+04  0.17337012880E+04  0.91583765108E+02 0.  0.
        254    2    1    2    0    0  0.87702301722E+03 -0.88684161855E+03 -0.12736804376E+04  0.19896962106E+04  0.88372604586E+03 0.  0.
        -24    2    4    4    0    0  0.10439186168E+04 -0.66701987980E+03 -0.10382292658E+04  0.16181606116E+04  0.76434010418E+02 0.  0.
         24    2    4    4    0    0 -0.16689559960E+03 -0.21982173876E+03 -0.23545117182E+03  0.37153559900E+03  0.80160520341E+02 0.  0.
         13    1    3    3    0    0 -0.24202078286E+02  0.31794078744E+02  0.62697231289E+02  0.74347473715E+02  0.00000000000E+00 0.  1.
        -13    1    3    3    0    0 -0.85282093893E+03  0.85504753981E+03  0.11380005411E+04  0.16593538142E+04  0.00000000000E+00 0. -1.
          2    1    6    6  502    0 -0.16771190592E+03 -0.17664556922E+03 -0.19073656390E+03  0.30937255425E+03  0.00000000000E+00 0. -1.
          3    1    5    5  503    0  0.70979042419E+03 -0.48285642776E+03 -0.68558181640E+03  0.10986242320E+04  0.00000000000E+00 0. -1.
         -4    1    5    5    0  503  0.33412819262E+03 -0.18416345204E+03 -0.35264744940E+03  0.51953637961E+03  0.00000000000E+00 0.  1.
         -1    1    6    6    0  502  0.81630632836E+00 -0.43176169539E+02 -0.44714607914E+02  0.62163044753E+02  0.00000000000E+00 0.  1.
<mgrwt>
<rscale>  0 0.37226822E+04</rscale>
<asrwt>0</asrwt>
<pdfrwt beam="1">  1        1 0.28080114E+00 0.37226822E+04</pdfrwt>
<pdfrwt beam="2">  1       -1 0.29202924E+00 0.37226822E+04</pdfrwt>
<totfact> 0.11665620E-01</totfact>
</mgrwt>
</event>
<event>
12    1  0.1536832E-007  0.2599484E+04  0.7818608E-02  0.8368377E-01
          1   -1    0    0  501    0  0.00000000000E+00  0.00000000000E+00  0.35585548375E+04  0.35585548375E+04  0.00000000000E+00 0. -1.
         -1   -1    0    0    0  501 -0.00000000000E+00 -0.00000000000E+00 -0.47472331425E+03  0.47472331425E+03  0.00000000000E+00 0.  1.
         23    2    1    2    0    0  0.24892407407E+02 -0.70250918058E+03 -0.37036870987E+02  0.71074993633E+03  0.98259663271E+02 0.  0.
        254    2    1    2    0    0 -0.24892407407E+02  0.70250918058E+03  0.31208683942E+04  0.33225282154E+04  0.89734911123E+03 0.  0.
        -24    2    4    4    0    0  0.16280743570E+02 -0.19221628296E+02  0.18961173415E+04  0.18979630956E+04  0.79802293689E+02 0.  0.
         24    2    4    4    0    0 -0.41173150977E+02  0.72173080888E+03  0.12247510528E+04  0.14245651198E+04  0.82341062059E+02 0.  0.
         11    1    3    3    0    0  0.48857204601E+01 -0.10764962914E+03  0.29821504587E+02  0.11181071082E+03  0.00000000000E+00 0. -1.
        -11    1    3    3    0    0  0.20006686947E+02 -0.59485955144E+03 -0.66858375574E+02  0.59893922551E+03  0.00000000000E+00 0.  1.
          2    1    6    6  502    0 -0.75879289166E+01  0.30957987882E+03  0.44818480573E+03  0.54476315782E+03  0.00000000000E+00 0. -1.
          3    1    5    5  503    0 -0.62567457855E+01 -0.44076303292E+02  0.14027494355E+04  0.14034556802E+04  0.00000000000E+00 0. -1.
         -4    1    5    5    0  503  0.22537489356E+02  0.24854674996E+02  0.49336790596E+03  0.49450741544E+03  0.00000000000E+00 0.  1.
         -1    1    6    6    0  502 -0.33585222060E+02  0.41215093005E+03  0.77656624705E+03  0.87980196200E+03  0.00000000000E+00 0.  1.
<mgrwt>
<rscale>  0 0.25994838E+04</rscale>
<asrwt>0</asrwt>
<pdfrwt beam="1">  1        1 0.54746996E+00 0.25994838E+04</pdfrwt>
<pdfrwt beam="2">  1       -1 0.73034358E-01 0.25994838E+04</pdfrwt>
<totfact> 0.37396617E-01</totfact>
</mgrwt>
</event>
<event>
12    1  0.1536832E-007  0.3183718E+04  0.7818608E-02  0.8193130E-01
         -1   -1    0    0    0  501 -0.00000000000E+00  0.00000000000E+00  0.10465314627E+04  0.10465314627E+04  0.00000000000E+00 0.  1.
          1   -1    0    0  501    0  0.00000000000E+00 -0.00000000000E+00 -0.24213465948E+04  0.24213465948E+04  0.00000000000E+00 0. -1.
         23    2    1    2    0    0 -0.44952239328E+03  0.23574620338E+03  0.87198433055E+03  0.10129481353E+04  0.89780831134E+02 0.  0.
        254    2    1    2    0    0  0.44952239328E+03 -0.23574620338E+03 -0.22467994627E+04  0.24549299221E+04  0.84907387347E+03 0.  0.
        -24    2    4    4    0    0  0.14155766097E+03 -0.22208572827E+03 -0.20747961734E+04  0.20929023182E+04  0.78104483416E+02 0.  0.
         24    2    4    4    0    0  0.30796473231E+03 -0.13660475109E+02 -0.17200328933E+03  0.36202760397E+03  0.80311702575E+02 0.  0.
         13    1    3    3    0    0 -0.11396257587E+03  0.45943930041E+02  0.28883862831E+03  0.31388862134E+03  0.00000000000E+00 0. -1.
        -13    1    3    3    0    0 -0.33555981741E+03  0.18980227334E+03  0.58314570224E+03  0.69905951397E+03  0.00000000000E+00 0.  1.
          2    1    6    6  502    0  0.73638137192E+02 -0.35888623609E+02 -0.58835017303E+02  0.10085696711E+03  0.00000000000E+00 0. -1.
          1    1    5    5  503    0  0.89757305188E+02 -0.70994824100E+02 -0.93123180355E+03  0.93823734248E+03  0.00000000000E+00 0. -1.
         -2    1    5    5    0  503  0.51800355783E+02 -0.15109090417E+03 -0.11435643698E+04  0.11546649757E+04  0.00000000000E+00 0.  1.
         -1    1    6    6    0  502  0.23432659512E+03  0.22228148500E+02 -0.11316827203E+03  0.26117063686E+03  0.00000000000E+00 0.  1.
<mgrwt>
<rscale>  0 0.31837182E+04</rscale>
<asrwt>0</asrwt>
<pdfrwt beam="1">  1        1 0.37251485E+00 0.31837182E+04</pdfrwt>
<pdfrwt beam="2">  1       -1 0.16100484E+00 0.31837182E+04</pdfrwt>
<totfact> 0.36938573E-01</totfact>
</mgrwt>
</event>
<event>
12    1  0.1536832E-007  0.3260782E+04  0.7818608E-02  0.8172947E-01
          1   -1    0    0  501    0  0.00000000000E+00  0.00000000000E+00  0.30540906181E+04  0.30540906181E+04  0.00000000000E+00 0. -1.
         -1   -1    0    0    0  501 -0.00000000000E+00 -0.00000000000E+00 -0.87036549321E+03  0.87036549321E+03  0.00000000000E+00 0.  1.
         23    2    1    2    0    0  0.25821414191E+03  0.32715193365E+03 -0.73054975925E+03  0.84586428379E+03  0.89891629609E+02 0.  0.
        254    2    1    2    0    0 -0.25821414191E+03 -0.32715193365E+03  0.29142748842E+04  0.30785918275E+04  0.90057015799E+03 0.  0.
        -24    2    4    4    0    0 -0.85426155395E+01  0.28587783885E+03  0.58785758695E+03  0.65858057062E+03  0.79703892233E+02 0.  0.
         24    2    4    4    0    0 -0.24967152637E+03 -0.61302977250E+03  0.23264172972E+04  0.24200112569E+04  0.78074771092E+02 0.  0.
         11    1    3    3    0    0  0.17871216091E+03  0.27380696925E+03 -0.51527019755E+03  0.61025541321E+03  0.00000000000E+00 0.  1.
        -11    1    3    3    0    0  0.79501981001E+02  0.53344964400E+02 -0.21527956169E+03  0.23560887057E+03  0.00000000000E+00 0. -1.
          2    1    6    6  502    0 -0.76293806681E+02 -0.21792657968E+03  0.94383880752E+03  0.97167094927E+03  0.00000000000E+00 0. -1.
          3    1    5    5  503    0 -0.30494959011E+02  0.19112362465E+03  0.32447245689E+03  0.37781021387E+03  0.00000000000E+00 0. -1.
         -4    1    5    5    0  503  0.21952343472E+02  0.94754214202E+02  0.26338513006E+03  0.28077035675E+03  0.00000000000E+00 0.  1.
         -1    1    6    6    0  502 -0.17337771969E+03 -0.39510319282E+03  0.13825784897E+04  0.14483403077E+04  0.00000000000E+00 0.  1.
<mgrwt>
<rscale>  0 0.32607822E+04</rscale>
<asrwt>0</asrwt>
<pdfrwt beam="1">  1        1 0.46986009E+00 0.32607822E+04</pdfrwt>
<pdfrwt beam="2">  1       -1 0.13390238E+00 0.32607822E+04</pdfrwt>
<totfact> 0.21342286E-01</totfact>
</mgrwt>
</event>
<event>
12    1  0.1536832E-007  0.2564426E+04  0.7818608E-02  0.8380386E-01
          2   -1    0    0  501    0  0.00000000000E+00  0.00000000000E+00  0.21443088169E+04  0.21443088169E+04  0.00000000000E+00 0. -1.
         -2   -1    0    0    0  501 -0.00000000000E+00 -0.00000000000E+00 -0.76671353307E+03  0.76671353307E+03  0.00000000000E+00 0.  1.
         23    2    1    2    0    0  0.73381084407E+03 -0.54213735858E+03  0.13427527032E+04  0.16259424804E+04  0.91174872442E+02 0.  0.
        254    2    1    2    0    0 -0.73381084407E+03  0.54213735858E+03  0.34842580663E+02  0.12850798695E+04  0.90433677091E+03 0.  0.
        -24    2    4    4    0    0 -0.21640354880E+03  0.25155471522E+03  0.44425813578E+03  0.55985300272E+03  0.77199888363E+02 0.  0.
         24    2    4    4    0    0 -0.51740729527E+03  0.29058264336E+03 -0.40941555512E+03  0.72522686681E+03  0.78640509621E+02 0.  0.
         11    1    3    3    0    0  0.64745613116E+03 -0.44450333737E+03  0.11794615053E+04  0.14170081514E+04  0.00000000000E+00 0. -1.
        -11    1    3    3    0    0  0.86354712909E+02 -0.97634021203E+02  0.16329119792E+03  0.20893432905E+03  0.00000000000E+00 0.  1.
          2    1    6    6  502    0 -0.31297648293E+03  0.13111382535E+03 -0.23045007357E+03  0.41018575118E+03  0.00000000000E+00 0. -1.
          3    1    5    5  503    0 -0.17387287618E+02  0.53752691863E+02  0.10813821403E+03  0.12200632356E+03  0.00000000000E+00 0. -1.
         -4    1    5    5    0  503 -0.19901626118E+03  0.19780202336E+03  0.33611992175E+03  0.43784667916E+03  0.00000000000E+00 0.  1.
         -1    1    6    6    0  502 -0.20443081234E+03  0.15946881801E+03 -0.17896548155E+03  0.31504111563E+03  0.00000000000E+00 0.  1.
<mgrwt>
<rscale>  0 0.25644263E+04</rscale>
<asrwt>0</asrwt>
<pdfrwt beam="1">  1        2 0.32989366E+00 0.25644263E+04</pdfrwt>
<pdfrwt beam="2">  1       -2 0.11795593E+00 0.25644263E+04</pdfrwt>
<totfact> 0.27278585E+00</totfact>
</mgrwt>
</event>
<event>
12    1  0.1536832E-007  0.2586818E+04  0.7818608E-02  0.8372693E-01
         -1   -1    0    0    0  501 -0.00000000000E+00  0.00000000000E+00  0.12972920389E+04  0.12972920389E+04  0.00000000000E+00 0.  1.
          1   -1    0    0  501    0  0.00000000000E+00 -0.00000000000E+00 -0.12895372810E+04  0.12895372810E+04  0.00000000000E+00 0. -1.
         23    2    1    2    0    0  0.97758401794E+03  0.56867010288E+03  0.47636456679E+02  0.11351696095E+04  0.85349939838E+02 0.  0.
        254    2    1    2    0    0 -0.97758401794E+03 -0.56867010288E+03 -0.39881698765E+02  0.14516597105E+04  0.90921348820E+03 0.  0.
        -24    2    4    4    0    0 -0.14749875892E+03  0.34431885272E+02  0.31932862226E+03  0.36171445146E+03  0.76974910178E+02 0.  0.
         24    2    4    4    0    0 -0.83008525902E+03 -0.60310198815E+03 -0.35921032102E+03  0.10899452590E+04  0.78581598314E+02 0.  0.
         13    1    3    3    0    0  0.61331084994E+03  0.35768586003E+03 -0.11423929344E+02  0.71008441701E+03  0.00000000000E+00 0. -1.
        -13    1    3    3    0    0  0.36427316801E+03  0.21098424284E+03  0.59060386023E+02  0.42508519247E+03  0.00000000000E+00 0.  1.
          4    1    6    6  502    0 -0.49566063362E+03 -0.39782564346E+03 -0.19768764911E+03  0.66560131680E+03  0.00000000000E+00 0. -1.
          1    1    5    5  503    0  0.77259352332E+01  0.25189357524E+01  0.45927997459E+01  0.93342874424E+01  0.00000000000E+00 0. -1.
         -2    1    5    5    0  503 -0.15522469416E+03  0.31912949520E+02  0.31473582251E+03  0.35238016402E+03  0.00000000000E+00 0.  1.
         -3    1    6    6    0  502 -0.33442462540E+03 -0.20527634469E+03 -0.16152267191E+03  0.42434394223E+03  0.00000000000E+00 0.  1.
<mgrwt>
<rscale>  0 0.25868177E+04</rscale>
<asrwt>0</asrwt>
<pdfrwt beam="1">  1        1 0.19839035E+00 0.25868177E+04</pdfrwt>
<pdfrwt beam="2">  1       -1 0.19958339E+00 0.25868177E+04</pdfrwt>
<totfact> 0.12294805E+00</totfact>
</mgrwt>
</event>
<event>
12    1  0.1536832E-007  0.2468984E+04  0.7818608E-02  0.8414119E-01
         -1   -1    0    0    0  501 -0.00000000000E+00  0.00000000000E+00  0.84726587814E+03  0.84726587814E+03  0.00000000000E+00 0.  1.
          1   -1    0    0  501    0  0.00000000000E+00 -0.00000000000E+00 -0.17986920733E+04  0.17986920733E+04  0.00000000000E+00 0. -1.
         23    2    1    2    0    0  0.98424307863E+03 -0.31841236665E+03 -0.71188775701E+03  0.12586468097E+04  0.85362404163E+02 0.  0.
        254    2    1    2    0    0 -0.98424307863E+03  0.31841236665E+03 -0.23953843812E+03  0.13873111417E+04  0.89282286452E+03 0.  0.
        -24    2    4    4    0    0 -0.73052601726E+03  0.34822694570E+03  0.23178463132E+03  0.84547495062E+03  0.78571681989E+02 0.  0.
         24    2    4    4    0    0 -0.25371706137E+03 -0.29814579052E+02 -0.47132306944E+03  0.54183619105E+03  0.78611486375E+02 0.  0.
         13    1    3    3    0    0  0.69085043060E+02 -0.38652836631E+02 -0.75541894851E+02  0.10942286247E+03  0.00000000000E+00 0. -1.
        -13    1    3    3    0    0  0.91515803557E+03 -0.27975953002E+03 -0.63634586215E+03  0.11492239473E+04  0.00000000000E+00 0.  1.
          4    1    6    6  502    0 -0.77536885125E+02  0.41960576284E+01 -0.80798955144E+02  0.11206269052E+03  0.00000000000E+00 0. -1.
          1    1    5    5  503    0 -0.78719587385E+02  0.16435301004E+02  0.90895327609E+01  0.80929056358E+02  0.00000000000E+00 0. -1.
         -2    1    5    5    0  503 -0.65180642987E+03  0.33179164470E+03  0.22269509856E+03  0.76454589426E+03  0.00000000000E+00 0.  1.
         -3    1    6    6    0  502 -0.17618017625E+03 -0.34010636681E+02 -0.39052411430E+03  0.42977350053E+03  0.00000000000E+00 0.  1.
<mgrwt>
<rscale>  0 0.24689839E+04</rscale>
<asrwt>0</asrwt>
<pdfrwt beam="1">  1        1 0.27672185E+00 0.24689839E+04</pdfrwt>
<pdfrwt beam="2">  1       -1 0.13034860E+00 0.24689839E+04</pdfrwt>
<totfact> 0.18316488E+00</totfact>
</mgrwt>
</event>
<event>
12    1  0.1536832E-007  0.1856856E+04  0.7818608E-02  0.8676635E-01
          2   -1    0    0  501    0  0.00000000000E+00  0.00000000000E+00  0.26669215450E+04  0.26669215450E+04  0.00000000000E+00 0. -1.
         -2   -1    0    0    0  501 -0.00000000000E+00 -0.00000000000E+00 -0.32321110072E+03  0.32321110072E+03  0.00000000000E+00 0.  1.
         23    2    1    2    0    0  0.12725697101E+03 -0.69155353028E+03  0.92939376398E+03  0.11687651461E+04  0.88309548265E+02 0.  0.
        254    2    1    2    0    0 -0.12725697101E+03  0.69155353028E+03  0.14143166803E+04  0.18213674996E+04  0.90699904882E+03 0.  0.
        -24    2    4    4    0    0 -0.40684557225E+03  0.10944878834E+03  0.27521864116E+03  0.50959064552E+03  0.80218256262E+02 0.  0.
         24    2    4    4    0    0  0.27958860123E+03  0.58210474194E+03  0.11390980392E+04  0.13117768541E+04  0.78730271358E+02 0.  0.
         13    1    3    3    0    0  0.28470956949E+02 -0.12746112103E+03  0.12071001888E+03  0.17784218122E+03  0.00000000000E+00 0.  1.
        -13    1    3    3    0    0  0.98786014062E+02 -0.56409240925E+03  0.80868374510E+03  0.99092296488E+03  0.00000000000E+00 0. -1.
          4    1    6    6  502    0 -0.25137383744E+01  0.10660948637E+02  0.82163594645E+01  0.13692453005E+02  0.00000000000E+00 0. -1.
          3    1    5    5  503    0 -0.67889472840E+02  0.81883699269E+01  0.81068706822E+02  0.10605736726E+03  0.00000000000E+00 0. -1.
         -4    1    5    5    0  503 -0.33895609941E+03  0.10126041841E+03  0.19414993434E+03  0.40353327826E+03  0.00000000000E+00 0.  1.
         -3    1    6    6    0  502  0.28210233961E+03  0.57144379330E+03  0.11308816797E+04  0.12980844011E+04  0.00000000000E+00 0.  1.
<mgrwt>
<rscale>  0 0.18568561E+04</rscale>
<asrwt>0</asrwt>
<pdfrwt beam="1">  1        2 0.41029561E+00 0.18568561E+04</pdfrwt>
<pdfrwt beam="2">  1       -2 0.49724787E-01 0.18568561E+04</pdfrwt>
<totfact> 0.10009781E+01</totfact>
</mgrwt>
</event>
<event>
12    1  0.1536832E-007  0.1749634E+04  0.7818608E-02  0.8733552E-01
         -1   -1    0    0    0  501 -0.00000000000E+00  0.00000000000E+00  0.25300878923E+03  0.25300878923E+03  0.00000000000E+00 0.  1.
          1   -1    0    0  501    0  0.00000000000E+00 -0.00000000000E+00 -0.30248140633E+04  0.30248140633E+04  0.00000000000E+00 0. -1.
         23    2    1    2    0    0  0.52539515779E+03  0.34063051020E+03 -0.81002596454E+03  0.10279081477E+04  0.91563532489E+02 0.  0.
        254    2    1    2    0    0 -0.52539515779E+03 -0.34063051020E+03 -0.19617793096E+04  0.22499147049E+04  0.90634921725E+03 0.  0.
        -24    2    4    4    0    0 -0.73420105227E+03 -0.60066126839E+02 -0.12556252597E+04  0.14576699899E+04  0.74484105808E+02 0.  0.
         24    2    4    4    0    0  0.20880589447E+03 -0.28056438336E+03 -0.70615404986E+03  0.79224471497E+03  0.81742715195E+02 0.  0.
         13    1    3    3    0    0  0.37283009123E+03  0.23287627478E+03 -0.63225828226E+03  0.77005465505E+03  0.00000000000E+00 0.  1.
        -13    1    3    3    0    0  0.15256506656E+03  0.10775423541E+03 -0.17776768228E+03  0.25785349261E+03  0.00000000000E+00 0. -1.
          2    1    6    6  502    0  0.21446780598E+03 -0.28000878071E+03 -0.70016112447E+03  0.78398147765E+03  0.00000000000E+00 0. -1.
          3    1    5    5  503    0 -0.40244712494E+03 -0.14540524239E+02 -0.62164480511E+03  0.74068709921E+03  0.00000000000E+00 0. -1.
         -4    1    5    5    0  503 -0.33175392733E+03 -0.45525602600E+02 -0.63398045459E+03  0.71698289073E+03  0.00000000000E+00 0.  1.
         -1    1    6    6    0  502 -0.56619115117E+01 -0.55560264601E+00 -0.59929253928E+01  0.82632373214E+01  0.00000000000E+00 0.  1.
<mgrwt>
<rscale>  0 0.17496337E+04</rscale>
<asrwt>0</asrwt>
<pdfrwt beam="1">  1        1 0.46535603E+00 0.17496337E+04</pdfrwt>
<pdfrwt beam="2">  1       -1 0.38924427E-01 0.17496337E+04</pdfrwt>
<totfact> 0.34910637E+00</totfact>
</mgrwt>
</event>
<event>
12    1  0.1536832E-007  0.1777843E+04  0.7818608E-02  0.8718172E-01
         -1   -1    0    0    0  501 -0.00000000000E+00  0.00000000000E+00  0.14466863926E+04  0.14466863926E+04  0.00000000000E+00 0.  1.
          1   -1    0    0  501    0  0.00000000000E+00 -0.00000000000E+00 -0.54620073878E+03  0.54620073878E+03  0.00000000000E+00 0. -1.
         23    2    1    2    0    0 -0.25660011994E+03  0.25988449169E+03 -0.27455594384E+03  0.46738713290E+03  0.98418469451E+02 0.  0.
        254    2    1    2    0    0  0.25660011994E+03 -0.25988449169E+03  0.11750415977E+04  0.15254999985E+04  0.90168948013E+03 0.  0.
        -24    2    4    4    0    0  0.22862914583E+03  0.26354264622E+03  0.18669972384E+03  0.40391262357E+03  0.81009924703E+02 0.  0.
         24    2    4    4    0    0  0.27970974107E+02 -0.52342713791E+03  0.98834187384E+03  0.11215873749E+04  0.79876379052E+02 0.  0.
         11    1    3    3    0    0 -0.25392028507E+02  0.78491310239E+02 -0.41658303054E+02  0.92417828952E+02  0.00000000000E+00 0.  1.
        -11    1    3    3    0    0 -0.23120809143E+03  0.18139318145E+03 -0.23289764079E+03  0.37496930395E+03  0.00000000000E+00 0. -1.
          4    1    6    6  502    0 -0.12394646970E+02 -0.89685090025E+02  0.12236485995E+03  0.15221761264E+03  0.00000000000E+00 0. -1.
          3    1    5    5  503    0  0.56429044493E+02  0.35663067250E+02  0.65867861022E+02  0.93779883471E+02  0.00000000000E+00 0. -1.
         -4    1    5    5    0  503  0.17220010134E+03  0.22787957897E+03  0.12083186282E+03  0.31013274010E+03  0.00000000000E+00 0.  1.
         -3    1    6    6    0  502  0.40365621077E+02 -0.43374204788E+03  0.86597701389E+03  0.96936976230E+03  0.00000000000E+00 0.  1.
<mgrwt>
<rscale>  0 0.17778427E+04</rscale>
<asrwt>0</asrwt>
<pdfrwt beam="1">  1        1 0.84030883E-01 0.17778427E+04</pdfrwt>
<pdfrwt beam="2">  1       -1 0.22256714E+00 0.17778427E+04</pdfrwt>
<totfact> 0.39169356E+00</totfact>
</mgrwt>
</event>
<event>
12    1  0.1536832E-007  0.1753617E+04  0.7818608E-02  0.8731362E-01
          2   -1    0    0  501    0  0.00000000000E+00  0.00000000000E+00  0.95627852619E+03  0.95627852619E+03  0.00000000000E+00 0. -1.
         -2   -1    0    0    0  501 -0.00000000000E+00 -0.00000000000E+00 -0.80394299154E+03  0.80394299154E+03  0.00000000000E+00 0.  1.
         23    2    1    2    0    0  0.20435079985E+02  0.18686074461E+03 -0.56178363269E+03  0.59963923390E+03  0.92907645032E+02 0.  0.
        254    2    1    2    0    0 -0.20435079985E+02 -0.18686074461E+03  0.71411916734E+03  0.11605822838E+04  0.89534938544E+03 0.  0.
        -24    2    4    4    0    0  0.19601829023E+03  0.69586429960E+02  0.77828778503E+03  0.80956079304E+03  0.79945981588E+02 0.  0.
         24    2    4    4    0    0 -0.21645337021E+03 -0.25644717457E+03 -0.64168617690E+02  0.35102149078E+03  0.80506277237E+02 0.  0.
         13    1    3    3    0    0  0.57740996566E+02  0.11354467802E+03 -0.33582743724E+03  0.35917472655E+03  0.00000000000E+00 0. -1.
        -13    1    3    3    0    0 -0.37305916582E+02  0.73316066596E+02 -0.22595619545E+03  0.24046450735E+03  0.00000000000E+00 0.  1.
          2    1    6    6  502    0 -0.17575667031E+03 -0.20463346571E+03 -0.17568794434E+02  0.27032189143E+03  0.00000000000E+00 0. -1.
          1    1    5    5  503    0  0.20360619843E+03  0.68651124369E+02  0.75852004381E+03  0.78836610644E+03  0.00000000000E+00 0. -1.
         -2    1    5    5    0  503 -0.75879082061E+01  0.93530559086E+00  0.19767741215E+02  0.21194686604E+02  0.00000000000E+00 0.  1.
         -1    1    6    6    0  502 -0.40696699902E+02 -0.51813708858E+02 -0.46599823256E+02  0.80699599355E+02  0.00000000000E+00 0.  1.
<mgrwt>
<rscale>  0 0.17536173E+04</rscale>
<asrwt>0</asrwt>
<pdfrwt beam="1">  1        2 0.14711977E+00 0.17536173E+04</pdfrwt>
<pdfrwt beam="2">  1       -2 0.12368354E+00 0.17536173E+04</pdfrwt>
<totfact> 0.12547296E+01</totfact>
</mgrwt>
</event>
<event>
12    1  0.1536832E-007  0.2577214E+04  0.7818608E-02  0.8375982E-01
          1   -1    0    0  501    0  0.00000000000E+00  0.00000000000E+00  0.65861689482E+03  0.65861689482E+03  0.00000000000E+00 0. -1.
         -1   -1    0    0    0  501 -0.00000000000E+00 -0.00000000000E+00 -0.25212049463E+04  0.25212049463E+04  0.00000000000E+00 0.  1.
         23    2    1    2    0    0  0.10963330198E+04  0.23660195190E+03 -0.68545513758E+03  0.13177269632E+04  0.92892570915E+02 0.  0.
        254    2    1    2    0    0 -0.10963330198E+04 -0.23660195190E+03 -0.11771329139E+04  0.18620948779E+04  0.90765018783E+03 0.  0.
        -24    2    4    4    0    0 -0.98497969745E+03  0.12324685828E+03 -0.58268991393E+03  0.11537540123E+04  0.79031592956E+02 0.  0.
         24    2    4    4    0    0 -0.11135332239E+03 -0.35984881018E+03 -0.59444299992E+03  0.70834086560E+03  0.80582709844E+02 0.  0.
         13    1    3    3    0    0  0.11302786045E+03  0.43935767129E+02 -0.49717484714E+02  0.13106287483E+03  0.00000000000E+00 0. -1.
        -13    1    3    3    0    0  0.98330515939E+03  0.19266618477E+03 -0.63573765287E+03  0.11866640883E+04  0.00000000000E+00 0.  1.
          2    1    6    6  502    0 -0.10865171699E+03 -0.36248696691E+03 -0.59431167555E+03  0.70456253412E+03  0.00000000000E+00 0. -1.
          1    1    5    5  503    0 -0.66492459828E+03  0.46681698408E+02 -0.39962574439E+03  0.77717735296E+03  0.00000000000E+00 0. -1.
         -2    1    5    5    0  503 -0.32005509917E+03  0.76565159870E+02 -0.18306416954E+03  0.37657665937E+03  0.00000000000E+00 0.  1.
         -1    1    6    6    0  502 -0.27016054021E+01  0.26381567315E+01 -0.13132436978E+00  0.37783314808E+01  0.00000000000E+00 0.  1.
<mgrwt>
<rscale>  0 0.25772141E+04</rscale>
<asrwt>0</asrwt>
<pdfrwt beam="1">  1        1 0.10132568E+00 0.25772141E+04</pdfrwt>
<pdfrwt beam="2">  1       -1 0.38787768E+00 0.25772141E+04</pdfrwt>
<totfact> 0.22804135E-01</totfact>
</mgrwt>
</event>
<event>
12    1  0.1536832E-007  0.1914257E+04  0.7818608E-02  0.8647792E-01
          2   -1    0    0  501    0  0.00000000000E+00  0.00000000000E+00  0.69576808431E+03  0.69576808431E+03  0.00000000000E+00 0. -1.
         -2   -1    0    0    0  501 -0.00000000000E+00 -0.00000000000E+00 -0.13166678117E+04  0.13166678117E+04  0.00000000000E+00 0.  1.
         23    2    1    2    0    0  0.13749726989E+03 -0.53747755642E+03  0.26800213137E+03  0.62276747481E+03  0.90700398976E+02 0.  0.
        254    2    1    2    0    0 -0.13749726989E+03  0.53747755642E+03 -0.88890185874E+03  0.13896684212E+04  0.91282209849E+03 0.  0.
        -24    2    4    4    0    0  0.36352802253E+02  0.51174761645E+03 -0.10281313002E+04  0.11518622654E+04  0.80780931431E+02 0.  0.
         24    2    4    4    0    0 -0.17385007214E+03  0.25729939970E+02  0.13922944143E+03  0.23780615580E+03  0.79253094462E+02 0.  0.
         13    1    3    3    0    0  0.85636873219E+02 -0.24163590966E+03  0.16668430499E+03  0.30578627245E+03  0.00000000000E+00 0.  1.
        -13    1    3    3    0    0  0.51860396667E+02 -0.29584164677E+03  0.10131782638E+03  0.31698120235E+03  0.00000000000E+00 0. -1.
          2    1    6    6  502    0 -0.46816535755E+02  0.22221248129E+01 -0.13389292845E+01  0.46888363060E+02  0.00000000000E+00 0. -1.
          3    1    5    5  503    0 -0.11691029503E+02  0.84801115939E+02 -0.12203610387E+03  0.14906616009E+03  0.00000000000E+00 0. -1.
         -4    1    5    5    0  503  0.48043831755E+02  0.42694650051E+03 -0.90609519629E+03  0.10027961053E+04  0.00000000000E+00 0.  1.
         -1    1    6    6    0  502 -0.12703353638E+03  0.23507815157E+02  0.14056837071E+03  0.19091779274E+03  0.00000000000E+00 0.  1.
<mgrwt>
<rscale>  0 0.19142575E+04</rscale>
<asrwt>0</asrwt>
<pdfrwt beam="1">  1        2 0.10704125E+00 0.19142575E+04</pdfrwt>
<pdfrwt beam="2">  1       -2 0.20256428E+00 0.19142575E+04</pdfrwt>
<totfact> 0.49389228E+00</totfact>
</mgrwt>
</event>
<event>
12    1  0.1536832E-007  0.1500793E+04  0.7818608E-02  0.8883926E-01
          2   -1    0    0  501    0  0.00000000000E+00  0.00000000000E+00  0.63650028000E+03  0.63650028000E+03  0.00000000000E+00 0. -1.
         -2   -1    0    0    0  501 -0.00000000000E+00 -0.00000000000E+00 -0.88467386808E+03  0.88467386808E+03  0.00000000000E+00 0.  1.
         23    2    1    2    0    0 -0.13680039648E+03 -0.41825981341E+03  0.10495143154E+03  0.46145502608E+03  0.90941289432E+02 0.  0.
        254    2    1    2    0    0  0.13680039648E+03  0.41825981341E+03 -0.35312501962E+03  0.10597191220E+04  0.89702381131E+03 0.  0.
        -24    2    4    4    0    0  0.42730822593E+02 -0.23224252732E+03  0.86066156115E+02  0.26522957567E+03  0.84716172544E+02 0.  0.
         24    2    4    4    0    0  0.94069573886E+02  0.65050234072E+03 -0.43919117573E+03  0.79448954633E+03  0.79513334487E+02 0.  0.
         11    1    3    3    0    0 -0.10346336002E+03 -0.39551150073E+03  0.99250157534E+02  0.42069538606E+03  0.00000000000E+00 0. -1.
        -11    1    3    3    0    0 -0.33337036462E+02 -0.22748312674E+02  0.57012740092E+01  0.40759640024E+02  0.00000000000E+00 0.  1.
          2    1    6    6  502    0  0.37405079214E+02  0.76695392820E+02 -0.51358816644E+02  0.99594433970E+02  0.00000000000E+00 0. -1.
          1    1    5    5  503    0  0.15692502459E+02 -0.26207474796E+02 -0.15140239978E+02  0.34092715281E+02  0.00000000000E+00 0. -1.
         -2    1    5    5    0  503  0.27038320134E+02 -0.20603505252E+03  0.10120639609E+03  0.23113686039E+03  0.00000000000E+00 0.  1.
         -1    1    6    6    0  502  0.56664494672E+02  0.57380694790E+03 -0.38783235909E+03  0.69489511236E+03  0.00000000000E+00 0.  1.
<mgrwt>
<rscale>  0 0.15007933E+04</rscale>
<asrwt>0</asrwt>
<pdfrwt beam="1">  1        2 0.97923120E-01 0.15007933E+04</pdfrwt>
<pdfrwt beam="2">  1       -2 0.13610367E+00 0.15007933E+04</pdfrwt>
<totfact> 0.17216810E+01</totfact>
</mgrwt>
</event>
<event>
12    1  0.1536832E-007  0.2032110E+04  0.7818608E-02  0.8591754E-01
         -2   -1    0    0    0  501 -0.00000000000E+00  0.00000000000E+00  0.15851580550E+04  0.15851580550E+04  0.00000000000E+00 0.  1.
          2   -1    0    0  501    0  0.00000000000E+00 -0.00000000000E+00 -0.65127112460E+03  0.65127112460E+03  0.00000000000E+00 0. -1.
         23    2    1    2    0    0  0.34505622654E+03 -0.63304542577E+03 -0.36528576629E+02  0.72782576273E+03  0.92659016960E+02 0.  0.
        254    2    1    2    0    0 -0.34505622654E+03  0.63304542577E+03  0.97041550699E+03  0.15086034168E+04  0.90242323912E+03 0.  0.
        -24    2    4    4    0    0 -0.51716400303E+03  0.51476369830E+03  0.28526479169E+03  0.78739616801E+03  0.78590412280E+02 0.  0.
         24    2    4    4    0    0  0.17210777649E+03  0.11828172747E+03  0.68515071531E+03  0.72120724883E+03  0.84242146799E+02 0.  0.
         13    1    3    3    0    0  0.21359135372E+03 -0.45327292369E+03 -0.56336343265E+02  0.50423347103E+03  0.00000000000E+00 0. -1.
        -13    1    3    3    0    0  0.13146487282E+03 -0.17977250208E+03  0.19807766637E+02  0.22359229170E+03  0.00000000000E+00 0.  1.
          4    1    6    6  502    0  0.39786031538E+02  0.19753420693E+02  0.59992288069E+02  0.74647173840E+02  0.00000000000E+00 0. -1.
          1    1    5    5  503    0 -0.27975953845E+03  0.24992343039E+03  0.18252780024E+03  0.41718523257E+03  0.00000000000E+00 0. -1.
         -2    1    5    5    0  503 -0.23740446457E+03  0.26484026791E+03  0.10273699145E+03  0.37021093544E+03  0.00000000000E+00 0.  1.
         -3    1    6    6    0  502  0.13232174495E+03  0.98528306780E+02  0.62515842724E+03  0.64656007499E+03  0.00000000000E+00 0.  1.
<mgrwt>
<rscale>  0 0.20321099E+04</rscale>
<asrwt>0</asrwt>
<pdfrwt beam="1">  1        2 0.10019556E+00 0.20321099E+04</pdfrwt>
<pdfrwt beam="2">  1       -2 0.24387047E+00 0.20321099E+04</pdfrwt>
<totfact> 0.29129024E+00</totfact>
</mgrwt>
</event>
<event>
12    1  0.2246156E-007  0.2100075E+04  0.7818608E-02  0.8561210E-01
         -2   -1    0    0    0  501 -0.00000000000E+00  0.00000000000E+00  0.92407322392E+03  0.92407322392E+03  0.00000000000E+00 0.  1.
          2   -1    0    0  501    0  0.00000000000E+00 -0.00000000000E+00 -0.11931727250E+04  0.11931727250E+04  0.00000000000E+00 0. -1.
         23    2    1    2    0    0 -0.27756183628E+03 -0.23968722401E+03  0.66398550120E+03  0.76351416326E+03  0.87101052730E+02 0.  0.
        254    2    1    2    0    0  0.27756183628E+03  0.23968722401E+03 -0.93308500230E+03  0.13537317857E+04  0.90964365973E+03 0.  0.
        -24    2    4    4    0    0  0.20452341274E+02 -0.24017979501E+03  0.19204034473E+02  0.25382127408E+03  0.77147987919E+02 0.  0.
         24    2    4    4    0    0  0.25710949501E+03  0.47986701902E+03 -0.95228903677E+03  0.10999105116E+04  0.81062171086E+02 0.  0.
         13    1    3    3    0    0  0.61452944014E+01 -0.90121724039E+01  0.14118339588E+02  0.17841283795E+02  0.00000000000E+00 0. -1.
        -13    1    3    3    0    0 -0.28370713068E+03 -0.23067505161E+03  0.64986716161E+03  0.74567287947E+03  0.00000000000E+00 0.  1.
          4    1    6    6  502    0  0.14015803174E+02  0.19741081627E+01 -0.21558457188E+02  0.25789666884E+02  0.00000000000E+00 0. -1.
          1    1    5    5  503    0  0.65842080936E+01  0.33367247042E+01  0.60702148306E+01  0.95568319051E+01  0.00000000000E+00 0. -1.
         -2    1    5    5    0  503  0.13868133180E+02 -0.24351651971E+03  0.13133819642E+02  0.24426444217E+03  0.00000000000E+00 0.  1.
         -3    1    6    6    0  502  0.24309369183E+03  0.47789291086E+03 -0.93073057958E+03  0.10741208447E+04  0.00000000000E+00 0.  1.
<mgrwt>
<rscale>  0 0.21000752E+04</rscale>
<asrwt>0</asrwt>
<pdfrwt beam="1">  1        2 0.18356503E+00 0.21000752E+04</pdfrwt>
<pdfrwt beam="2">  1       -2 0.14216511E+00 0.21000752E+04</pdfrwt>
<totfact> 0.60808288E+00</totfact>
</mgrwt>
</event>
<event>
12    1  0.1536832E-007  0.1667749E+04  0.7818608E-02  0.8779975E-01
         -1   -1    0    0    0  501 -0.00000000000E+00  0.00000000000E+00  0.56667621374E+03  0.56667621374E+03  0.00000000000E+00 0.  1.
          1   -1    0    0  501    0  0.00000000000E+00 -0.00000000000E+00 -0.12270618157E+04  0.12270618157E+04  0.00000000000E+00 0. -1.
         23    2    1    2    0    0 -0.49153528991E+03  0.28360145631E+03 -0.37508760542E+03  0.68646764625E+03  0.92251777039E+02 0.  0.
        254    2    1    2    0    0  0.49153528991E+03 -0.28360145631E+03 -0.28529799654E+03  0.11072703832E+04  0.90698182309E+03 0.  0.
        -24    2    4    4    0    0  0.16141447550E+03  0.16985575858E+03  0.23294461647E+03  0.33935013783E+03  0.77393217281E+02 0.  0.
         24    2    4    4    0    0  0.33012081441E+03 -0.45345721488E+03 -0.51824261301E+03  0.76792024536E+03  0.80764469087E+02 0.  0.
         11    1    3    3    0    0 -0.39882110476E+03  0.26897955090E+03 -0.31611117590E+03  0.57561666752E+03  0.00000000000E+00 0. -1.
        -11    1    3    3    0    0 -0.92714185150E+02  0.14621905404E+02 -0.58976429518E+02  0.11085097873E+03  0.00000000000E+00 0.  1.
          2    1    6    6  502    0  0.35191877242E+01 -0.37051096987E+02 -0.39939998645E+02  0.54592783057E+02  0.00000000000E+00 0. -1.
          3    1    5    5  503    0  0.10943181202E+03  0.79833998177E+02  0.17169169926E+03  0.21869345747E+03  0.00000000000E+00 0. -1.
         -4    1    5    5    0  503  0.51982663481E+02  0.90021760399E+02  0.61252917203E+02  0.12065668035E+03  0.00000000000E+00 0.  1.
         -1    1    6    6    0  502  0.32660162668E+03 -0.41640611790E+03 -0.47830261436E+03  0.71332746231E+03  0.00000000000E+00 0.  1.
<mgrwt>
<rscale>  0 0.16677491E+04</rscale>
<asrwt>0</asrwt>
<pdfrwt beam="1">  1        1 0.18877874E+00 0.16677491E+04</pdfrwt>
<pdfrwt beam="2">  1       -1 0.87180955E-01 0.16677491E+04</pdfrwt>
<totfact> 0.12623030E+01</totfact>
</mgrwt>
</event>
<event>
12    1  0.1832517E-007  0.3363085E+04  0.7818608E-02  0.8147026E-01
         -1   -1    0    0    0  501 -0.00000000000E+00  0.00000000000E+00  0.11772536438E+04  0.11772536438E+04  0.00000000000E+00 0.  1.
          1   -1    0    0  501    0  0.00000000000E+00 -0.00000000000E+00 -0.24018483274E+04  0.24018483274E+04  0.00000000000E+00 0. -1.
         23    2    1    2    0    0 -0.37160841225E+03  0.28171152753E+03  0.10130373517E+04  0.11189675206E+04  0.91593883942E+02 0.  0.
        254    2    1    2    0    0  0.37160841225E+03 -0.28171152753E+03 -0.22376320353E+04  0.24601344507E+04  0.90984075164E+03 0.  0.
        -24    2    4    4    0    0  0.40987100539E+03 -0.45460215839E+03 -0.21705624583E+04  0.22566310792E+04  0.79906686526E+02 0.  0.
         24    2    4    4    0    0 -0.38262593145E+02  0.17289063086E+03 -0.67069576921E+02  0.20350337147E+03  0.74566063186E+02 0.  0.
         13    1    3    3    0    0 -0.71909341228E+02  0.10462822271E+03  0.28401824375E+03  0.31110188223E+03  0.00000000000E+00 0. -1.
        -13    1    3    3    0    0 -0.29969907102E+03  0.17708330482E+03  0.72901910791E+03  0.80786563840E+03  0.00000000000E+00 0.  1.
          4    1    6    6  502    0  0.11735624223E+02  0.81324306648E+01  0.71998723896E+01  0.15990605581E+02  0.00000000000E+00 0. -1.
          3    1    5    5  503    0  0.76491241402E+02 -0.52754838532E+02 -0.40231250177E+03  0.41290353847E+03  0.00000000000E+00 0. -1.
         -4    1    5    5    0  503  0.33337976399E+03 -0.40184731986E+03 -0.17682499566E+04  0.18437275407E+04  0.00000000000E+00 0.  1.
         -3    1    6    6    0  502 -0.49998217368E+02  0.16475820020E+03 -0.74269449311E+02  0.18751276589E+03  0.00000000000E+00 0.  1.
<mgrwt>
<rscale>  0 0.33630847E+04</rscale>
<asrwt>0</asrwt>
<pdfrwt beam="1">  1        1 0.36951512E+00 0.33630847E+04</pdfrwt>
<pdfrwt beam="2">  1       -1 0.18111595E+00 0.33630847E+04</pdfrwt>
<totfact> 0.26703343E-01</totfact>
</mgrwt>
</event>
<event>
12    1  0.1536832E-007  0.2055744E+04  0.7818608E-02  0.8580993E-01
         -2   -1    0    0    0  501 -0.00000000000E+00  0.00000000000E+00  0.12763438266E+04  0.12763438266E+04  0.00000000000E+00 0.  1.
          2   -1    0    0  501    0  0.00000000000E+00 -0.00000000000E+00 -0.82777165786E+03  0.82777165786E+03  0.00000000000E+00 0. -1.
         23    2    1    2    0    0  0.50321659724E+03 -0.53695969889E+03  0.53557633700E+03  0.91483584451E+03  0.92357715856E+02 0.  0.
        254    2    1    2    0    0 -0.50321659724E+03  0.53695969889E+03 -0.87004168252E+02  0.11892796400E+04  0.93019550352E+03 0.  0.
        -24    2    4    4    0    0 -0.61722693981E+03  0.72182324259E+03 -0.10020119068E+03  0.95774841996E+03  0.72414560460E+02 0.  0.
         24    2    4    4    0    0  0.11401034256E+03 -0.18486354370E+03  0.13197022431E+02  0.23153122000E+03  0.79117990593E+02 0.  0.
         11    1    3    3    0    0  0.38531165730E+03 -0.43391066480E+03  0.46237589693E+03  0.74198046358E+03  0.00000000000E+00 0.  1.
        -11    1    3    3    0    0  0.11790493994E+03 -0.10304903409E+03  0.73200440076E+02  0.17285538093E+03  0.00000000000E+00 0. -1.
          4    1    6    6  502    0  0.68020394422E+02 -0.13651837506E+03 -0.25129110737E+02  0.15458173564E+03  0.00000000000E+00 0. -1.
          1    1    5    5  503    0 -0.32267835520E+03  0.36029950240E+03 -0.16358866040E+02  0.48394696491E+03  0.00000000000E+00 0. -1.
         -2    1    5    5    0  503 -0.29454858460E+03  0.36152374018E+03 -0.83842324643E+02  0.47380145505E+03  0.00000000000E+00 0.  1.
         -3    1    6    6    0  502  0.45989948143E+02 -0.48345168639E+02  0.38326133167E+02  0.76949484368E+02  0.00000000000E+00 0.  1.
<mgrwt>
<rscale>  0 0.20557444E+04</rscale>
<asrwt>0</asrwt>
<pdfrwt beam="1">  1        2 0.12734949E+00 0.20557444E+04</pdfrwt>
<pdfrwt beam="2">  1       -2 0.19636059E+00 0.20557444E+04</pdfrwt>
<totfact> 0.42755564E+00</totfact>
</mgrwt>
</event>
<event>
12    1  0.1536832E-007  0.1370976E+04  0.7818608E-02  0.8975100E-01
         -1   -1    0    0    0  501 -0.00000000000E+00  0.00000000000E+00  0.88852676895E+03  0.88852676895E+03  0.00000000000E+00 0.  1.
          1   -1    0    0  501    0  0.00000000000E+00 -0.00000000000E+00 -0.52884600981E+03  0.52884600981E+03  0.00000000000E+00 0. -1.
         23    2    1    2    0    0 -0.32269973969E+03  0.18127367440E+03  0.18780092479E+02  0.38134229874E+03  0.89855383276E+02 0.  0.
        254    2    1    2    0    0  0.32269973969E+03 -0.18127367440E+03  0.34090066667E+03  0.10360304800E+04  0.90562167817E+03 0.  0.
        -24    2    4    4    0    0 -0.22973795397E+03 -0.48654619940E+02  0.38768796891E+03  0.46041878335E+03  0.80849831697E+02 0.  0.
         24    2    4    4    0    0  0.55243769367E+03 -0.13261905446E+03 -0.46787302242E+02  0.57561169667E+03  0.79778159333E+02 0.  0.
         11    1    3    3    0    0 -0.37363213578E+02  0.85951117789E+01 -0.23785766460E+02  0.45118159997E+02  0.00000000000E+00 0.  1.
        -11    1    3    3    0    0 -0.28533652612E+03  0.17267856262E+03  0.42565858939E+02  0.33622413874E+03  0.00000000000E+00 0. -1.
          2    1    6    6  502    0  0.40412445939E+03 -0.11615996700E+03 -0.64256981483E+02  0.42536887084E+03  0.00000000000E+00 0. -1.
          1    1    5    5  503    0 -0.19652790932E+03 -0.70056892969E+02  0.31878557902E+03  0.38099269387E+03  0.00000000000E+00 0. -1.
         -2    1    5    5    0  503 -0.33210044652E+02  0.21402273029E+02  0.68902389892E+02  0.79426089476E+02  0.00000000000E+00 0.  1.
         -1    1    6    6    0  502  0.14831323428E+03 -0.16459087464E+02  0.17469679241E+02  0.15024282584E+03  0.00000000000E+00 0.  1.
<mgrwt>
<rscale>  0 0.13709761E+04</rscale>
<asrwt>0</asrwt>
<pdfrwt beam="1">  1        1 0.81360925E-01 0.13709761E+04</pdfrwt>
<pdfrwt beam="2">  1       -1 0.13669643E+00 0.13709761E+04</pdfrwt>
<totfact> 0.17873529E+01</totfact>
</mgrwt>
</event>
<event>
12    1  0.1536832E-007  0.1261442E+04  0.7818608E-02  0.9060714E-01
          3   -1    0    0  501    0  0.00000000000E+00  0.00000000000E+00  0.25266193973E+04  0.25266193973E+04  0.00000000000E+00 0. -1.
         -3   -1    0    0    0  501 -0.00000000000E+00 -0.00000000000E+00 -0.15744712074E+03  0.15744712074E+03  0.00000000000E+00 0.  1.
         23    2    1    2    0    0 -0.12772908563E+02 -0.27867066973E+03  0.51314889183E+03  0.59112421950E+03  0.91025097285E+02 0.  0.
        254    2    1    2    0    0  0.12772908563E+02  0.27867066973E+03  0.18560233847E+04  0.20929422985E+04  0.92615558683E+03 0.  0.
        -24    2    4    4    0    0  0.33468069549E+03 -0.31107045231E+02  0.14278478272E+04  0.14690182905E+04  0.79287476394E+02 0.  0.
         24    2    4    4    0    0 -0.32190778692E+03  0.30977771496E+03  0.42817555753E+03  0.62392400808E+03  0.79749632106E+02 0.  0.
         11    1    3    3    0    0 -0.24073710107E+02 -0.27469362708E+03  0.50814420394E+03  0.57814069592E+03  0.00000000000E+00 0. -1.
        -11    1    3    3    0    0  0.11300801543E+02 -0.39770426454E+01  0.50046878844E+01  0.12983523580E+02  0.00000000000E+00 0.  1.
          2    1    6    6  502    0 -0.56690827070E+02  0.22109641304E+02  0.40338039292E+02  0.73005777349E+02  0.00000000000E+00 0. -1.
          1    1    5    5  503    0  0.28096078194E+02  0.10863093973E+02  0.67458210832E+02  0.73878323135E+02  0.00000000000E+00 0. -1.
         -2    1    5    5    0  503  0.30658461729E+03 -0.41970139204E+02  0.13603896164E+04  0.13951399673E+04  0.00000000000E+00 0.  1.
         -1    1    6    6    0  502 -0.26521695985E+03  0.28766807365E+03  0.38783751824E+03  0.55091823073E+03  0.00000000000E+00 0.  1.
<mgrwt>
<rscale>  0 0.12614420E+04</rscale>
<asrwt>0</asrwt>
<pdfrwt beam="1">  1        3 0.38871065E+00 0.12614420E+04</pdfrwt>
<pdfrwt beam="2">  1       -3 0.24222636E-01 0.12614420E+04</pdfrwt>
<totfact> 0.54128380E-01</totfact>
</mgrwt>
</event>
<event>
12    1  0.1536832E-007  0.1096989E+04  0.7818608E-02  0.9208131E-01
          2   -1    0    0  501    0  0.00000000000E+00  0.00000000000E+00  0.16809822119E+04  0.16809822119E+04  0.00000000000E+00 0. -1.
         -2   -1    0    0    0  501 -0.00000000000E+00 -0.00000000000E+00 -0.17897053490E+03  0.17897053490E+03  0.00000000000E+00 0.  1.
         23    2    1    2    0    0  0.68000834381E+02 -0.11433714146E+03  0.10479488176E+03  0.19352206099E+03  0.93657490117E+02 0.  0.
        254    2    1    2    0    0 -0.68000834381E+02  0.11433714146E+03  0.13972167952E+04  0.16664306858E+04  0.89837595821E+03 0.  0.
        -24    2    4    4    0    0 -0.76958858022E+02 -0.10843055998E+03 -0.76637625208E+02  0.17362969606E+03  0.81204024465E+02 0.  0.
         24    2    4    4    0    0  0.89580236402E+01  0.22276770144E+03  0.14738544204E+04  0.14928009897E+04  0.80636513681E+02 0.  0.
         13    1    3    3    0    0  0.14269678520E+02  0.15856089548E+02  0.19251983524E+02  0.28734616240E+02  0.00000000000E+00 0. -1.
        -13    1    3    3    0    0  0.53731155861E+02 -0.13019323101E+03  0.85542898234E+02  0.16478744475E+03  0.00000000000E+00 0.  1.
          2    1    6    6  502    0  0.19341180456E+01  0.22645862974E+03  0.13651145705E+04  0.13837720341E+04  0.00000000000E+00 0. -1.
          1    1    5    5  503    0 -0.36744997151E+02 -0.60552453741E+02  0.47602903611E+01  0.70989117716E+02  0.00000000000E+00 0. -1.
         -2    1    5    5    0  503 -0.40213860871E+02 -0.47878106241E+02 -0.81397915569E+02  0.10264057834E+03  0.00000000000E+00 0.  1.
         -1    1    6    6    0  502  0.70239055946E+01 -0.36909282987E+01  0.10873984996E+03  0.10902895565E+03  0.00000000000E+00 0.  1.
<mgrwt>
<rscale>  0 0.10969891E+04</rscale>
<asrwt>0</asrwt>
<pdfrwt beam="1">  1        2 0.25861264E+00 0.10969891E+04</pdfrwt>
<pdfrwt beam="2">  1       -2 0.27533930E-01 0.10969891E+04</pdfrwt>
<totfact> 0.11997297E+02</totfact>
</mgrwt>
</event>
<event>
12    1  0.1536832E-007  0.2442470E+04  0.7818608E-02  0.8423773E-01
          2   -1    0    0  501    0  0.00000000000E+00  0.00000000000E+00  0.78883040537E+03  0.78883040537E+03  0.00000000000E+00 0.  1.
         -2   -1    0    0    0  501 -0.00000000000E+00 -0.00000000000E+00 -0.18906655388E+04  0.18906655388E+04  0.00000000000E+00 0. -1.
         23    2    1    2    0    0  0.94505564180E+03  0.35631817057E+03 -0.80622126667E+03  0.12953505316E+04  0.88585913182E+02 0.  0.
        254    2    1    2    0    0 -0.94505564180E+03 -0.35631817057E+03 -0.29561386673E+03  0.13841454126E+04  0.89909852641E+03 0.  0.
        -24    2    4    4    0    0 -0.24623972772E+02 -0.28398218907E+03 -0.34715027203E+03  0.45604331422E+03  0.78803358630E+02 0.  0.
         24    2    4    4    0    0 -0.92043166902E+03 -0.72335981499E+02  0.51536405301E+02  0.92810209835E+03  0.79313002321E+02 0.  0.
         11    1    3    3    0    0  0.99277042545E+02  0.42846277370E+02 -0.12322835502E+03  0.16394194748E+03  0.00000000000E+00 0.  1.
        -11    1    3    3    0    0  0.84577859925E+03  0.31347189320E+03 -0.68299291165E+03  0.11314085841E+04  0.00000000000E+00 0. -1.
          4    1    6    6  502    0 -0.29408576910E+03 -0.60022385767E+02  0.21412975897E+02  0.30091135225E+03  0.00000000000E+00 0. -1.
          1    1    5    5  503    0 -0.14664365375E+02 -0.11146520864E+02 -0.46040181427E+02  0.49588172431E+02  0.00000000000E+00 0. -1.
         -2    1    5    5    0  503 -0.99596073974E+01 -0.27283566820E+03 -0.30111009060E+03  0.40645514179E+03  0.00000000000E+00 0.  1.
         -1    1    6    6    0  502 -0.62634589993E+03 -0.12313595732E+02  0.30123429405E+02  0.62719074610E+03  0.00000000000E+00 0.  1.
<mgrwt>
<rscale>  0 0.24424696E+04</rscale>
<asrwt>0</asrwt>
<pdfrwt beam="1">  1        2 0.12135852E+00 0.24424696E+04</pdfrwt>
<pdfrwt beam="2">  1       -2 0.29087162E+00 0.24424696E+04</pdfrwt>
<totfact> 0.11368811E+00</totfact>
</mgrwt>
</event>
<event>
12    1  0.1536832E-007  0.1174194E+04  0.7818608E-02  0.9135749E-01
          2   -1    0    0  501    0  0.00000000000E+00  0.00000000000E+00  0.11798189650E+04  0.11798189650E+04  0.00000000000E+00 0. -1.
         -2   -1    0    0    0  501 -0.00000000000E+00 -0.00000000000E+00 -0.29214918029E+03  0.29214918029E+03  0.00000000000E+00 0.  1.
         23    2    1    2    0    0 -0.14932327541E+03  0.40920265456E+02 -0.16197393118E+02  0.18868629422E+03  0.10662201171E+03 0.  0.
        254    2    1    2    0    0  0.14932327541E+03 -0.40920265456E+02  0.90386717783E+03  0.12832818511E+04  0.89769957414E+03 0.  0.
        -24    2    4    4    0    0 -0.15476873830E+03  0.28360765892E+03  0.76163047478E+02  0.34107828999E+03  0.78402318524E+02 0.  0.
         24    2    4    4    0    0  0.30409201370E+03 -0.32452792438E+03  0.82770413035E+03  0.94220356107E+03  0.69735906081E+02 0.  0.
         13    1    3    3    0    0 -0.99855566469E+02  0.64175260829E+02  0.23662637617E+02  0.12103519602E+03  0.00000000000E+00 0.  1.
        -13    1    3    3    0    0 -0.49467708939E+02 -0.23254995373E+02 -0.39860030735E+02  0.67651098200E+02  0.00000000000E+00 0. -1.
          2    1    6    6  502    0  0.18000850957E+02 -0.25800901518E+01  0.21437785484E+02  0.28111672786E+02  0.00000000000E+00 0. -1.
          1    1    5    5  503    0 -0.10289450415E+02  0.47357411935E+02 -0.12956948455E+02  0.50164526992E+02  0.00000000000E+00 0. -1.
         -2    1    5    5    0  503 -0.14447928788E+03  0.23625024698E+03  0.89119995933E+02  0.29091376300E+03  0.00000000000E+00 0.  1.
         -1    1    6    6    0  502  0.28609116275E+03 -0.32194783422E+03  0.80626634487E+03  0.91409188829E+03  0.00000000000E+00 0.  1.
<mgrwt>
<rscale>  0 0.11741944E+04</rscale>
<asrwt>0</asrwt>
<pdfrwt beam="1">  1        2 0.18151061E+00 0.11741944E+04</pdfrwt>
<pdfrwt beam="2">  1       -2 0.44946028E-01 0.11741944E+04</pdfrwt>
<totfact> 0.90325369E+01</totfact>
</mgrwt>
</event>
<event>
12    1  0.1536832E-007  0.1205636E+04  0.7818608E-02  0.9107938E-01
         -2   -1    0    0    0  501 -0.00000000000E+00  0.00000000000E+00  0.24492304350E+03  0.24492304350E+03  0.00000000000E+00 0.  1.
          2   -1    0    0  501    0  0.00000000000E+00 -0.00000000000E+00 -0.14836887694E+04  0.14836887694E+04  0.00000000000E+00 0. -1.
         23    2    1    2    0    0  0.93534495521E+02  0.45981914136E+01 -0.62891407338E+03  0.64228721002E+03  0.90719916456E+02 0.  0.
        254    2    1    2    0    0 -0.93534495521E+02 -0.45981914136E+01 -0.60985165251E+03  0.10863246029E+04  0.89409857370E+03 0.  0.
        -24    2    4    4    0    0 -0.30817524288E+03 -0.30721655352E+03 -0.10502912115E+03  0.45470859097E+03  0.79842315377E+02 0.  0.
         24    2    4    4    0    0  0.21464074736E+03  0.30261836211E+03 -0.50482253135E+03  0.63161601189E+03  0.80277486298E+02 0.  0.
         11    1    3    3    0    0  0.64745961093E+02  0.19345447245E+01 -0.59134166120E+03  0.59487876261E+03  0.00000000000E+00 0. -1.
        -11    1    3    3    0    0  0.28788534428E+02  0.26636466890E+01 -0.37572412184E+02  0.47408447407E+02  0.00000000000E+00 0.  1.
          2    1    6    6  502    0  0.37694590509E+02  0.10691492101E+03 -0.12047600581E+03  0.16542717572E+03  0.00000000000E+00 0. -1.
          3    1    5    5  503    0 -0.41402919479E+02 -0.41651708458E+02 -0.43977571672E+02  0.73369567049E+02  0.00000000000E+00 0. -1.
         -4    1    5    5    0  503 -0.26677232341E+03 -0.26556484506E+03 -0.61051549483E+02  0.38133902392E+03  0.00000000000E+00 0.  1.
         -1    1    6    6    0  502  0.17694615686E+03  0.19570344109E+03 -0.38434652554E+03  0.46618883618E+03  0.00000000000E+00 0.  1.
<mgrwt>
<rscale>  0 0.12056360E+04</rscale>
<asrwt>0</asrwt>
<pdfrwt beam="1">  1        2 0.22825981E+00 0.12056360E+04</pdfrwt>
<pdfrwt beam="2">  1       -2 0.37680469E-01 0.12056360E+04</pdfrwt>
<totfact> 0.84940234E+01</totfact>
</mgrwt>
</event>
<event>
12    1  0.1536832E-007  0.2058676E+04  0.7818608E-02  0.8579669E-01
          2   -1    0    0  501    0  0.00000000000E+00  0.00000000000E+00  0.13938649402E+04  0.13938649402E+04  0.00000000000E+00 0. -1.
         -2   -1    0    0    0  501 -0.00000000000E+00 -0.00000000000E+00 -0.76014275079E+03  0.76014275079E+03  0.00000000000E+00 0.  1.
         23    2    1    2    0    0 -0.20124023259E+03 -0.58358451391E+03  0.89141737131E+03  0.10877438969E+04  0.86564075746E+02 0.  0.
        254    2    1    2    0    0  0.20124023259E+03  0.58358451391E+03 -0.25769518187E+03  0.10662637942E+04  0.83032713787E+03 0.  0.
        -24    2    4    4    0    0 -0.27913317331E+03  0.43854856201E+03 -0.14422612602E+03  0.54540930876E+03  0.80187087313E+02 0.  0.
         24    2    4    4    0    0  0.48037340589E+03  0.14503595190E+03 -0.11346905585E+03  0.52085448540E+03  0.81364192912E+02 0.  0.
         11    1    3    3    0    0 -0.83292404486E+02 -0.34128945799E+03  0.55281640411E+03  0.65499778277E+03  0.00000000000E+00 0. -1.
        -11    1    3    3    0    0 -0.11794782810E+03 -0.24229505592E+03  0.33860096720E+03  0.43274611410E+03  0.00000000000E+00 0.  1.
          4    1    6    6  502    0  0.47322950081E+03  0.13005274176E+03 -0.11535236998E+03  0.50414883252E+03  0.00000000000E+00 0. -1.
          1    1    5    5  503    0 -0.22123587775E+03  0.37070347399E+03 -0.14737066434E+03  0.45616279105E+03  0.00000000000E+00 0. -1.
         -2    1    5    5    0  503 -0.57897295559E+02  0.67845088022E+02  0.31445383230E+01  0.89246517708E+02  0.00000000000E+00 0.  1.
         -3    1    6    6    0  502  0.71439050878E+01  0.14983210136E+02  0.18833141258E+01  0.16705652875E+02  0.00000000000E+00 0.  1.
<mgrwt>
<rscale>  0 0.20586756E+04</rscale>
<asrwt>0</asrwt>
<pdfrwt beam="1">  1        2 0.21444076E+00 0.20586756E+04</pdfrwt>
<pdfrwt beam="2">  1       -2 0.11694504E+00 0.20586756E+04</pdfrwt>
<totfact> 0.76352546E+00</totfact>
</mgrwt>
</event>
<event>
12    1  0.1536832E-007  0.1519764E+04  0.7818608E-02  0.8871415E-01
         -1   -1    0    0    0  501 -0.00000000000E+00  0.00000000000E+00  0.46749025083E+03  0.46749025083E+03  0.00000000000E+00 0.  1.
          1   -1    0    0  501    0  0.00000000000E+00 -0.00000000000E+00 -0.12351504547E+04  0.12351504547E+04  0.00000000000E+00 0. -1.
         23    2    1    2    0    0 -0.14110047188E+03  0.45363476476E+03 -0.39660595399E+03  0.62555919746E+03  0.91291751073E+02 0.  0.
        254    2    1    2    0    0  0.14110047188E+03 -0.45363476476E+03 -0.37105424987E+03  0.10770815081E+04  0.89259703993E+03 0.  0.
        -24    2    4    4    0    0 -0.27832786769E+03 -0.99697817111E+02  0.12776637538E+03  0.33115067794E+03  0.77009532885E+02 0.  0.
         24    2    4    4    0    0  0.41942833957E+03 -0.35393694765E+03 -0.49882062525E+03  0.74593083012E+03  0.79995576149E+02 0.  0.
         13    1    3    3    0    0  0.63564104078E+01  0.91936073811E+02 -0.92098415917E+02  0.13028723589E+03  0.00000000000E+00 0.  1.
        -13    1    3    3    0    0 -0.14745688229E+03  0.36169869095E+03 -0.30450753807E+03  0.49527196157E+03  0.00000000000E+00 0. -1.
          4    1    6    6  502    0  0.30255385310E+03 -0.27015878985E+03 -0.41093371790E+03  0.57740031717E+03  0.00000000000E+00 0. -1.
          3    1    5    5  503    0 -0.20069606884E+03 -0.58779378948E+02  0.12440237076E+03  0.24333079806E+03  0.00000000000E+00 0. -1.
         -2    1    5    5    0  503 -0.77631798849E+02 -0.40918438163E+02  0.33640046188E+01  0.87819879876E+02  0.00000000000E+00 0.  1.
         -3    1    6    6    0  502  0.11687448648E+03 -0.83778157804E+02 -0.87886907349E+02  0.16853051296E+03  0.00000000000E+00 0.  1.
<mgrwt>
<rscale>  0 0.15197642E+04</rscale>
<asrwt>0</asrwt>
<pdfrwt beam="1">  1        1 0.19002314E+00 0.15197642E+04</pdfrwt>
<pdfrwt beam="2">  1       -1 0.71921578E-01 0.15197642E+04</pdfrwt>
<totfact> 0.18982229E+01</totfact>
</mgrwt>
</event>
<event>
12    1  0.1536832E-007  0.1922058E+04  0.7818608E-02  0.8643954E-01
          2   -1    0    0  501    0  0.00000000000E+00  0.00000000000E+00  0.12079334144E+04  0.12079334144E+04  0.00000000000E+00 0. -1.
         -2   -1    0    0    0  501 -0.00000000000E+00 -0.00000000000E+00 -0.76459242905E+03  0.76459242905E+03  0.00000000000E+00 0.  1.
         23    2    1    2    0    0 -0.10285319375E+02  0.64038840688E+03  0.56115357191E+03  0.85605772142E+03  0.87968128732E+02 0.  0.
        254    2    1    2    0    0  0.10285319375E+02 -0.64038840688E+03 -0.11781258655E+03  0.11164681220E+04  0.90687273777E+03 0.  0.
        -24    2    4    4    0    0  0.42182446394E+03 -0.32981599021E+03  0.10186156949E+03  0.55080999592E+03  0.79381398833E+02 0.  0.
         24    2    4    4    0    0 -0.41153914457E+03 -0.31057241666E+03 -0.21967415605E+03  0.56565812611E+03  0.76763841098E+02 0.  0.
         11    1    3    3    0    0  0.91983915262E+00  0.63229016466E+03  0.54463640108E+03  0.83451812911E+03  0.00000000000E+00 0.  1.
        -11    1    3    3    0    0 -0.11205158528E+02  0.80982422201E+01  0.16517170826E+02  0.21539592308E+02  0.00000000000E+00 0. -1.
          4    1    6    6  502    0 -0.21439319066E+03 -0.18386695736E+03 -0.15668523494E+03  0.32298879401E+03  0.00000000000E+00 0. -1.
          1    1    5    5  503    0  0.15190915621E+03 -0.13830493050E+03  0.75256617980E+02  0.21878803461E+03  0.00000000000E+00 0. -1.
         -2    1    5    5    0  503  0.26991530774E+03 -0.19151105971E+03  0.26604951514E+02  0.33202196130E+03  0.00000000000E+00 0.  1.
         -3    1    6    6    0  502 -0.19714595391E+03 -0.12670545931E+03 -0.62988921103E+02  0.24266933210E+03  0.00000000000E+00 0.  1.
<mgrwt>
<rscale>  0 0.19220580E+04</rscale>
<asrwt>0</asrwt>
<pdfrwt beam="1">  1        2 0.18583591E+00 0.19220580E+04</pdfrwt>
<pdfrwt beam="2">  1       -2 0.11762960E+00 0.19220580E+04</pdfrwt>
<totfact> 0.97732961E+00</totfact>
</mgrwt>
</event>
<event>
12    1  0.1536832E-007  0.1425061E+04  0.7818608E-02  0.8935875E-01
          3   -1    0    0  501    0  0.00000000000E+00  0.00000000000E+00  0.64000349105E+03  0.64000349105E+03  0.00000000000E+00 0. -1.
         -3   -1    0    0    0  501 -0.00000000000E+00 -0.00000000000E+00 -0.79327661279E+03  0.79327661279E+03  0.00000000000E+00 0.  1.
         23    2    1    2    0    0 -0.38710111771E+03  0.15143157677E+03 -0.34339823423E+02  0.42677708281E+03  0.90446985391E+02 0.  0.
        254    2    1    2    0    0  0.38710111771E+03 -0.15143157677E+03 -0.11893329831E+03  0.10065030210E+04  0.90891385957E+03 0.  0.
        -24    2    4    4    0    0  0.15357989024E+03 -0.10807356019E+03  0.38941878354E+03  0.43978336388E+03  0.80596160425E+02 0.  0.
         24    2    4    4    0    0  0.23352122747E+03 -0.43358016581E+02 -0.50835208185E+03  0.56671965715E+03  0.79606842631E+02 0.  0.
         11    1    3    3    0    0 -0.50059773075E+02  0.64361044490E+00 -0.28267418821E+02  0.57492974192E+02  0.00000000000E+00 0. -1.
        -11    1    3    3    0    0 -0.33704134463E+03  0.15078796633E+03 -0.60724046019E+01  0.36928410862E+03  0.00000000000E+00 0.  1.
          4    1    6    6  502    0  0.84100391172E+02 -0.33082824594E+02 -0.11807949427E+03  0.14869470752E+03  0.00000000000E+00 0. -1.
          1    1    5    5  503    0  0.45590026477E+01  0.69623954253E+01  0.13078607427E+01  0.84243667371E+01  0.00000000000E+00 0. -1.
         -2    1    5    5    0  503  0.14902088759E+03 -0.11503595562E+03  0.38811092280E+03  0.43135899715E+03  0.00000000000E+00 0.  1.
         -3    1    6    6    0  502  0.14942083630E+03 -0.10275191987E+02 -0.39027258758E+03  0.41802494963E+03  0.00000000000E+00 0.  1.
<mgrwt>
<rscale>  0 0.14250611E+04</rscale>
<asrwt>0</asrwt>
<pdfrwt beam="1">  1        3 0.98462075E-01 0.14250611E+04</pdfrwt>
<pdfrwt beam="2">  1       -3 0.12204256E+00 0.14250611E+04</pdfrwt>
<totfact> 0.12525830E+00</totfact>
</mgrwt>
</event>
<event>
12    1  0.1536832E-007  0.1483545E+04  0.7818608E-02  0.8895470E-01
          1   -1    0    0  501    0  0.00000000000E+00  0.00000000000E+00  0.17798915697E+04  0.17798915697E+04  0.00000000000E+00 0. -1.
         -1   -1    0    0    0  501 -0.00000000000E+00 -0.00000000000E+00 -0.30913486484E+03  0.30913486484E+03  0.00000000000E+00 0.  1.
         23    2    1    2    0    0  0.72010613653E+02 -0.44581685632E+03  0.29396452559E+03  0.54636975563E+03  0.90369074974E+02 0.  0.
        254    2    1    2    0    0 -0.72010613653E+02  0.44581685632E+03  0.11767921793E+04  0.15426566789E+04  0.88938832795E+03 0.  0.
        -24    2    4    4    0    0 -0.13706636454E+03  0.65600566189E+03  0.54138598766E+03  0.86533544164E+03  0.81092676637E+02 0.  0.
         24    2    4    4    0    0  0.65055750882E+02 -0.21018880557E+03  0.63540619160E+03  0.67732123725E+03  0.81310795061E+02 0.  0.
         13    1    3    3    0    0  0.17536713871E+02 -0.10630380315E+02  0.48649223764E+01  0.21076261261E+02  0.00000000000E+00 0. -1.
        -13    1    3    3    0    0  0.54473899783E+02 -0.43518647600E+03  0.28909960321E+03  0.52529349437E+03  0.00000000000E+00 0.  1.
          2    1    6    6  502    0  0.57265188227E+01  0.72137447944E+01  0.23962942690E+02  0.25672042267E+02  0.00000000000E+00 0. -1.
          1    1    5    5  503    0 -0.19958249871E+02  0.27959048251E+03  0.20788794820E+03  0.34897932411E+03  0.00000000000E+00 0. -1.
         -2    1    5    5    0  503 -0.11710811466E+03  0.37641517938E+03  0.33349803947E+03  0.51635611753E+03  0.00000000000E+00 0.  1.
         -1    1    6    6    0  502  0.59329232059E+02 -0.21740255036E+03  0.61144324891E+03  0.65164919498E+03  0.00000000000E+00 0.  1.
<mgrwt>
<rscale>  0 0.14835451E+04</rscale>
<asrwt>0</asrwt>
<pdfrwt beam="1">  1        1 0.27382947E+00 0.14835451E+04</pdfrwt>
<pdfrwt beam="2">  1       -1 0.47559211E-01 0.14835451E+04</pdfrwt>
<totfact> 0.17978815E+01</totfact>
</mgrwt>
</event>
<event>
12    1  0.1536832E-007  0.1942060E+04  0.7818608E-02  0.8634199E-01
         -2   -1    0    0    0  501 -0.00000000000E+00  0.00000000000E+00  0.36031592648E+03  0.36031592648E+03  0.00000000000E+00 0.  1.
          2   -1    0    0  501    0  0.00000000000E+00 -0.00000000000E+00 -0.26168690347E+04  0.26168690347E+04  0.00000000000E+00 0. -1.
         23    2    1    2    0    0  0.56064510352E+03  0.48918294145E+03 -0.10132194069E+04  0.12601362695E+04  0.87789344176E+02 0.  0.
        254    2    1    2    0    0 -0.56064510352E+03 -0.48918294145E+03 -0.12433337013E+04  0.17170486916E+04  0.92127880380E+03 0.  0.
        -24    2    4    4    0    0 -0.61705456472E+02  0.18689128243E+03 -0.65383878902E+03  0.68753494088E+03  0.80394142248E+02 0.  0.
         24    2    4    4    0    0 -0.49893964705E+03 -0.67607422388E+03 -0.58949491225E+03  0.10295137507E+04  0.79857271191E+02 0.  0.
         11    1    3    3    0    0  0.33736470798E+02  0.14949955548E+02 -0.27684953090E+02  0.46131412946E+02  0.00000000000E+00 0. -1.
        -11    1    3    3    0    0  0.52690863273E+03  0.47423298590E+03 -0.98553445383E+03  0.12140048566E+04  0.00000000000E+00 0.  1.
          2    1    6    6  502    0 -0.52685224473E+02 -0.11563406338E+03 -0.75674197603E+02  0.14789710502E+03  0.00000000000E+00 0. -1.
          1    1    5    5  503    0 -0.24287377691E+02  0.44587889596E+02 -0.77057346992E+02  0.92281045395E+02  0.00000000000E+00 0. -1.
         -2    1    5    5    0  503 -0.37418078781E+02  0.14230339283E+03 -0.57678144202E+03  0.59525389549E+03  0.00000000000E+00 0.  1.
         -1    1    6    6    0  502 -0.44625442258E+03 -0.56044016050E+03 -0.51382071465E+03  0.88161664570E+03  0.00000000000E+00 0.  1.
<mgrwt>
<rscale>  0 0.19420603E+04</rscale>
<asrwt>0</asrwt>
<pdfrwt beam="1">  1        2 0.40259525E+00 0.19420603E+04</pdfrwt>
<pdfrwt beam="2">  1       -2 0.55433218E-01 0.19420603E+04</pdfrwt>
<totfact> 0.85009493E+00</totfact>
</mgrwt>
</event>
<event>
12    1  0.1536832E-007  0.1308304E+04  0.7818608E-02  0.9023006E-01
         -2   -1    0    0    0  501 -0.00000000000E+00  0.00000000000E+00  0.31923579781E+03  0.31923579781E+03  0.00000000000E+00 0.  1.
          2   -1    0    0  501    0  0.00000000000E+00 -0.00000000000E+00 -0.13404353015E+04  0.13404353015E+04  0.00000000000E+00 0. -1.
         23    2    1    2    0    0  0.29676301766E+03 -0.12708753781E+02 -0.80725502337E+02  0.32092442241E+03  0.90807913214E+02 0.  0.
        254    2    1    2    0    0 -0.29676301766E+03  0.12708753781E+02 -0.94047400136E+03  0.13387466769E+04  0.90527427701E+03 0.  0.
        -24    2    4    4    0    0 -0.12088077795E+03  0.42384856256E+03 -0.68369747290E+03  0.81698434754E+03  0.75904039467E+02 0.  0.
         24    2    4    4    0    0 -0.17588223971E+03 -0.41113980878E+03 -0.25677652846E+03  0.52176232937E+03  0.79569077993E+02 0.  0.
         11    1    3    3    0    0  0.13679172858E+03  0.12280997739E+01  0.87946133131E+01  0.13707965006E+03  0.00000000000E+00 0.  1.
        -11    1    3    3    0    0  0.15997128907E+03 -0.13936853554E+02 -0.89520115650E+02  0.18384477235E+03  0.00000000000E+00 0. -1.
          2    1    6    6  502    0 -0.87962125603E+02 -0.23921136124E+03 -0.10295199313E+03  0.27487910757E+03  0.00000000000E+00 0. -1.
          3    1    5    5  503    0 -0.88478531554E+02  0.22611973535E+03 -0.42864998178E+03  0.49264530054E+03  0.00000000000E+00 0. -1.
         -2    1    5    5    0  503 -0.32402246395E+02  0.19772882722E+03 -0.25504749112E+03  0.32433904700E+03  0.00000000000E+00 0.  1.
         -1    1    6    6    0  502 -0.87920114105E+02 -0.17192844754E+03 -0.15382453534E+03  0.24688322181E+03  0.00000000000E+00 0.  1.
<mgrwt>
<rscale>  0 0.13083041E+04</rscale>
<asrwt>0</asrwt>
<pdfrwt beam="1">  1        2 0.20622082E+00 0.13083041E+04</pdfrwt>
<pdfrwt beam="2">  1       -2 0.49113198E-01 0.13083041E+04</pdfrwt>
<totfact> 0.60194689E+01</totfact>
</mgrwt>
</event>
<event>
12    1  0.1536832E-007  0.1297735E+04  0.7818608E-02  0.9031364E-01
          2   -1    0    0  501    0  0.00000000000E+00  0.00000000000E+00  0.22739195328E+04  0.22739195328E+04  0.00000000000E+00 0. -1.
         -2   -1    0    0    0  501 -0.00000000000E+00 -0.00000000000E+00 -0.18515552676E+03  0.18515552676E+03  0.00000000000E+00 0.  1.
         23    2    1    2    0    0 -0.27243354918E+02 -0.31189897717E+03  0.73315719494E+03  0.80227586770E+03  0.90021792190E+02 0.  0.
        254    2    1    2    0    0  0.27243354918E+02  0.31189897717E+03  0.13556068111E+04  0.16567991918E+04  0.89960578226E+03 0.  0.
        -24    2    4    4    0    0  0.23645106458E+03 -0.12279347413E+03  0.10357633154E+04  0.10725366165E+04  0.80881425116E+02 0.  0.
         24    2    4    4    0    0 -0.20920770966E+03  0.43469245129E+03  0.31984349566E+03  0.58426257534E+03  0.79608430672E+02 0.  0.
         11    1    3    3    0    0  0.22372654751E+02 -0.58009198916E+02  0.93463747764E+02  0.11225450987E+03  0.00000000000E+00 0.  1.
        -11    1    3    3    0    0 -0.49616009670E+02 -0.25388977825E+03  0.63969344717E+03  0.69002135784E+03  0.00000000000E+00 0. -1.
          4    1    6    6  502    0 -0.19535441334E+03  0.41242425761E+03  0.32111333220E+03  0.55800617129E+03  0.00000000000E+00 0. -1.
          1    1    5    5  503    0  0.12669195309E+03 -0.10986250244E+03  0.60279032372E+03  0.62568106476E+03  0.00000000000E+00 0. -1.
         -4    1    5    5    0  503  0.10975911148E+03 -0.12930971690E+02  0.43297299168E+03  0.44685555173E+03  0.00000000000E+00 0.  1.
         -3    1    6    6    0  502 -0.13853296320E+02  0.22268193683E+02 -0.12698365451E+01  0.26256404050E+02  0.00000000000E+00 0.  1.
<mgrwt>
<rscale>  0 0.12977346E+04</rscale>
<asrwt>0</asrwt>
<pdfrwt beam="1">  1        2 0.34983375E+00 0.12977346E+04</pdfrwt>
<pdfrwt beam="2">  1       -2 0.28485467E-01 0.12977346E+04</pdfrwt>
<totfact> 0.52065278E+01</totfact>
</mgrwt>
</event>
<event>
12    1  0.1536832E-007  0.1686976E+04  0.7818608E-02  0.8768827E-01
         -2   -1    0    0    0  501 -0.00000000000E+00  0.00000000000E+00  0.10746671214E+04  0.10746671214E+04  0.00000000000E+00 0. -1.
          2   -1    0    0  501    0  0.00000000000E+00 -0.00000000000E+00 -0.66203948301E+03  0.66203948301E+03  0.00000000000E+00 0.  1.
         23    2    1    2    0    0 -0.30711851604E+03 -0.51798862552E+03  0.21576655712E+03  0.64561040798E+03  0.87313187186E+02 0.  0.
        254    2    1    2    0    0  0.30711851604E+03  0.51798862552E+03  0.19686108131E+03  0.10910961965E+04  0.88831448574E+03 0.  0.
        -24    2    4    4    0    0 -0.92120555947E+02  0.12827954847E+03 -0.29433166393E+03  0.34340847650E+03  0.79727121829E+02 0.  0.
         24    2    4    4    0    0  0.39923907199E+03  0.38970907704E+03  0.49119274524E+03  0.74768771998E+03  0.80632575931E+02 0.  0.
         11    1    3    3    0    0 -0.51194664217E+02 -0.15628016151E+03  0.74543044619E+02  0.18055760307E+03  0.00000000000E+00 0.  1.
        -11    1    3    3    0    0 -0.25592385183E+03 -0.36170846400E+03  0.14122351250E+03  0.46505280490E+03  0.00000000000E+00 0. -1.
          4    1    6    6  502    0  0.38249801447E+03  0.38113218447E+03  0.45186900108E+03  0.70409663204E+03  0.00000000000E+00 0. -1.
          3    1    5    5  503    0 -0.73916464423E+02  0.73912486127E+02 -0.24987428195E+03  0.27085763068E+03  0.00000000000E+00 0. -1.
         -4    1    5    5    0  503 -0.18204091524E+02  0.54367062347E+02 -0.44457381980E+02  0.72550845819E+02  0.00000000000E+00 0.  1.
         -3    1    6    6    0  502  0.16741057520E+02  0.85768925737E+01  0.39323744165E+02  0.43591087945E+02  0.00000000000E+00 0.  1.
<mgrwt>
<rscale>  0 0.16869761E+04</rscale>
<asrwt>0</asrwt>
<pdfrwt beam="1">  1        2 0.10185223E+00 0.16869761E+04</pdfrwt>
<pdfrwt beam="2">  1       -2 0.16533340E+00 0.16869761E+04</pdfrwt>
<totfact> 0.96307111E+00</totfact>
</mgrwt>
</event>
<event>
12    1  0.1536832E-007  0.2569421E+04  0.7818608E-02  0.8378663E-01
          2   -1    0    0  501    0  0.00000000000E+00  0.00000000000E+00  0.17323660314E+04  0.17323660314E+04  0.00000000000E+00 0. -1.
         -2   -1    0    0    0  501 -0.00000000000E+00 -0.00000000000E+00 -0.95273198474E+03  0.95273198474E+03  0.00000000000E+00 0.  1.
         23    2    1    2    0    0 -0.98275900544E+01  0.80082131205E+03 -0.48559211639E+03  0.94110888062E+03  0.92059037163E+02 0.  0.
        254    2    1    2    0    0  0.98275900544E+01 -0.80082131205E+03  0.12652261630E+04  0.17439891355E+04  0.89402992440E+03 0.  0.
        -24    2    4    4    0    0 -0.34891018340E+03 -0.59092646259E+03  0.10795735440E+04  0.12818484129E+04  0.81999491815E+02 0.  0.
         24    2    4    4    0    0  0.35873777346E+03 -0.20989484946E+03  0.18565261907E+03  0.46214072255E+03  0.79740294309E+02 0.  0.
         11    1    3    3    0    0  0.27175006785E+02  0.94893468449E+02 -0.71158733665E+02  0.12168326395E+03  0.00000000000E+00 0. -1.
        -11    1    3    3    0    0 -0.37002596839E+02  0.70592784360E+03 -0.41443338273E+03  0.81942561668E+03  0.00000000000E+00 0.  1.
          2    1    6    6  502    0  0.63795637595E+02 -0.57595152251E+02  0.69266635784E+02  0.11038546902E+03  0.00000000000E+00 0. -1.
          1    1    5    5  503    0 -0.71039183323E+02 -0.13104029216E+03  0.17654821833E+03  0.23105712958E+03  0.00000000000E+00 0. -1.
         -2    1    5    5    0  503 -0.27787100008E+03 -0.45988617043E+03  0.90302532563E+03  0.10507912834E+04  0.00000000000E+00 0.  1.
         -1    1    6    6    0  502  0.29494213586E+03 -0.15229969721E+03  0.11638598328E+03  0.35175525352E+03  0.00000000000E+00 0.  1.
<mgrwt>
<rscale>  0 0.25694206E+04</rscale>
<asrwt>0</asrwt>
<pdfrwt beam="1">  1        2 0.26651785E+00 0.25694206E+04</pdfrwt>
<pdfrwt beam="2">  1       -2 0.14657415E+00 0.25694206E+04</pdfrwt>
<totfact> 0.26577763E+00</totfact>
</mgrwt>
</event>
<event>
12    1  0.1536832E-007  0.2737994E+04  0.7818608E-02  0.8322782E-01
          2   -1    0    0  501    0  0.00000000000E+00  0.00000000000E+00  0.10143817458E+04  0.10143817458E+04  0.00000000000E+00 0. -1.
         -2   -1    0    0    0  501 -0.00000000000E+00 -0.00000000000E+00 -0.18475807451E+04  0.18475807451E+04  0.00000000000E+00 0.  1.
         23    2    1    2    0    0 -0.41895605885E+03 -0.25877316815E+03 -0.14868978094E+04  0.15690009042E+04  0.91711558821E+02 0.  0.
        254    2    1    2    0    0  0.41895605885E+03  0.25877316815E+03  0.65369881013E+03  0.12929615867E+04  0.10009694294E+04 0.  0.
        -24    2    4    4    0    0  0.71493329576E+03  0.69019779396E+02  0.28543401595E+03  0.77758406128E+03  0.85270437777E+02 0.  0.
         24    2    4    4    0    0 -0.29597723691E+03  0.18975338875E+03  0.36826479418E+03  0.51537752545E+03  0.79913464429E+02 0.  0.
         13    1    3    3    0    0 -0.15678222308E+03 -0.67339717239E+02 -0.62916992434E+03  0.65189730532E+03  0.00000000000E+00 0. -1.
        -13    1    3    3    0    0 -0.26217383577E+03 -0.19143345091E+03 -0.85772788507E+03  0.91710359890E+03  0.00000000000E+00 0.  1.
          2    1    6    6  502    0 -0.12159522395E+03  0.41798312209E+02  0.16677550558E+03  0.21058624517E+03  0.00000000000E+00 0. -1.
          1    1    5    5  503    0  0.68621666383E+03  0.72711543764E+02  0.25523507191E+03  0.73574806846E+03  0.00000000000E+00 0. -1.
         -2    1    5    5    0  503  0.28716631926E+02 -0.36917643680E+01  0.30198944042E+02  0.41835992812E+02  0.00000000000E+00 0.  1.
         -1    1    6    6    0  502 -0.17438201296E+03  0.14795507654E+03  0.20148928860E+03  0.30479128029E+03  0.00000000000E+00 0.  1.
<mgrwt>
<rscale>  0 0.27379936E+04</rscale>
<asrwt>0</asrwt>
<pdfrwt beam="1">  1        2 0.15605873E+00 0.27379936E+04</pdfrwt>
<pdfrwt beam="2">  1       -2 0.28424319E+00 0.27379936E+04</pdfrwt>
<totfact> 0.85563710E-01</totfact>
</mgrwt>
</event>
<event>
12    1  0.1536832E-007  0.2436485E+04  0.7818608E-02  0.8425969E-01
         -1   -1    0    0    0  501 -0.00000000000E+00  0.00000000000E+00  0.42556981389E+03  0.42556981389E+03  0.00000000000E+00 0.  1.
          1   -1    0    0  501    0  0.00000000000E+00 -0.00000000000E+00 -0.34873598788E+04  0.34873598788E+04  0.00000000000E+00 0. -1.
         23    2    1    2    0    0 -0.11991796043E+03 -0.10350663908E+04 -0.12042446265E+04  0.15950634201E+04  0.90991444458E+02 0.  0.
        254    2    1    2    0    0  0.11991796043E+03  0.10350663908E+04 -0.18575454384E+04  0.23178662726E+04  0.91448687867E+03 0.  0.
        -24    2    4    4    0    0 -0.11089429620E+03  0.10990658896E+04 -0.16661440988E+04  0.20006960807E+04  0.80655284375E+02 0.  0.
         24    2    4    4    0    0  0.23081225664E+03 -0.63999498771E+02 -0.19140133965E+03  0.31717019190E+03  0.81192512920E+02 0.  0.
         11    1    3    3    0    0 -0.50706171244E+02 -0.50626727622E+03 -0.65637339630E+03  0.83048401920E+03  0.00000000000E+00 0.  1.
        -11    1    3    3    0    0 -0.69211789187E+02 -0.52879911462E+03 -0.54787123025E+03  0.76457940093E+03  0.00000000000E+00 0. -1.
          2    1    6    6  502    0  0.82252692220E+02  0.14001396049E+02 -0.81197677564E+02  0.11642425568E+03  0.00000000000E+00 0. -1.
          1    1    5    5  503    0 -0.49004937824E+02  0.18638896075E+03 -0.29972348153E+03  0.35633761239E+03  0.00000000000E+00 0. -1.
         -2    1    5    5    0  503 -0.61889358381E+02  0.91267692887E+03 -0.13664206172E+04  0.16443584683E+04  0.00000000000E+00 0.  1.
         -1    1    6    6    0  502  0.14855956442E+03 -0.78000894820E+02 -0.11020366209E+03  0.20074593622E+03  0.00000000000E+00 0.  1.
<mgrwt>
<rscale>  0 0.24364853E+04</rscale>
<asrwt>0</asrwt>
<pdfrwt beam="1">  1        1 0.53651691E+00 0.24364853E+04</pdfrwt>
<pdfrwt beam="2">  1       -1 0.65472278E-01 0.24364853E+04</pdfrwt>
<totfact> 0.54081227E-01</totfact>
</mgrwt>
</event>
<event>
12    1  0.1536832E-007  0.1396372E+04  0.7818608E-02  0.8956449E-01
          2   -1    0    0  501    0  0.00000000000E+00  0.00000000000E+00  0.32000709810E+04  0.32000709810E+04  0.00000000000E+00 0.  1.
         -2   -1    0    0    0  501 -0.00000000000E+00 -0.00000000000E+00 -0.15232901425E+03  0.15232901425E+03  0.00000000000E+00 0. -1.
         23    2    1    2    0    0  0.16466486259E+02 -0.90360677265E+02  0.19617021529E+04  0.19658129564E+04  0.87801171816E+02 0.  0.
        254    2    1    2    0    0 -0.16466486259E+02  0.90360677265E+02  0.10860398138E+04  0.13865870388E+04  0.85714931124E+03 0.  0.
        -24    2    4    4    0    0 -0.16679665486E+02  0.37703570939E+03  0.10071796125E+04  0.10784830788E+04  0.79251764617E+02 0.  0.
         24    2    4    4    0    0  0.21317922694E+00 -0.28667503213E+03  0.78860201337E+02  0.30810395993E+03  0.80786751867E+02 0.  0.
         11    1    3    3    0    0  0.63146862932E+01 -0.10628782393E+03  0.17640542338E+04  0.17672646425E+04  0.00000000000E+00 0.  1.
        -11    1    3    3    0    0  0.10151799966E+02  0.15927146663E+02  0.19764791911E+03  0.19854831395E+03  0.00000000000E+00 0. -1.
          2    1    6    6  502    0 -0.30876031503E+01 -0.17929573833E+03  0.89005272817E+02  0.20019598814E+03  0.00000000000E+00 0. -1.
          1    1    5    5  503    0 -0.20380310849E+02  0.24462034795E+03  0.54568776747E+03  0.59835575645E+03  0.00000000000E+00 0. -1.
         -2    1    5    5    0  503  0.37006453630E+01  0.13241536144E+03  0.46149184498E+03  0.48012732239E+03  0.00000000000E+00 0.  1.
         -1    1    6    6    0  502  0.33007823773E+01 -0.10737929380E+03 -0.10145071480E+02  0.10790797179E+03  0.00000000000E+00 0.  1.
<mgrwt>
<rscale>  0 0.13963720E+04</rscale>
<asrwt>0</asrwt>
<pdfrwt beam="1">  1        2 0.49231856E+00 0.13963720E+04</pdfrwt>
<pdfrwt beam="2">  1       -2 0.23435235E-01 0.13963720E+04</pdfrwt>
<totfact> 0.20602471E+01</totfact>
</mgrwt>
</event>
<event>
12    1  0.1536832E-007  0.1352046E+04  0.7818608E-02  0.8989281E-01
         -2   -1    0    0    0  501 -0.00000000000E+00  0.00000000000E+00  0.44440042443E+03  0.44440042443E+03  0.00000000000E+00 0.  1.
          2   -1    0    0  501    0  0.00000000000E+00 -0.00000000000E+00 -0.10283677731E+04  0.10283677731E+04  0.00000000000E+00 0. -1.
         23    2    1    2    0    0  0.63469226238E+02 -0.18775952921E+03  0.17507045727E+03  0.27977144180E+03  0.91325851487E+02 0.  0.
        254    2    1    2    0    0 -0.63469226238E+02  0.18775952921E+03 -0.75903780591E+03  0.11929967557E+04  0.89878856514E+03 0.  0.
        -24    2    4    4    0    0 -0.89646429825E+02 -0.30743650643E+03 -0.56462070559E+03  0.65417238770E+03  0.81186721728E+02 0.  0.
         24    2    4    4    0    0  0.26177203587E+02  0.49519603565E+03 -0.19441710032E+03  0.53882436799E+03  0.81420703399E+02 0.  0.
         13    1    3    3    0    0  0.83540636366E+02 -0.17339243936E+03  0.14564329461E+03  0.24136268398E+03  0.00000000000E+00 0.  1.
        -13    1    3    3    0    0 -0.20071410128E+02 -0.14367089849E+02  0.29427162662E+02  0.38408757824E+02  0.00000000000E+00 0. -1.
          4    1    6    6  502    0 -0.18721885360E+02  0.35839288467E+02 -0.89813739207E+01  0.41420148078E+02  0.00000000000E+00 0. -1.
          1    1    5    5  503    0 -0.79661181810E+01 -0.17365760393E+02 -0.89694215703E+02  0.91706493791E+02  0.00000000000E+00 0. -1.
         -2    1    5    5    0  503 -0.81680311644E+02 -0.29007074604E+03 -0.47492648989E+03  0.56246589391E+03  0.00000000000E+00 0.  1.
         -3    1    6    6    0  502  0.44899088947E+02  0.45935674718E+03 -0.18543572640E+03  0.49740421992E+03  0.00000000000E+00 0.  1.
<mgrwt>
<rscale>  0 0.13520460E+04</rscale>
<asrwt>0</asrwt>
<pdfrwt beam="1">  1        2 0.15821043E+00 0.13520460E+04</pdfrwt>
<pdfrwt beam="2">  1       -2 0.68369297E-01 0.13520460E+04</pdfrwt>
<totfact> 0.46181452E+01</totfact>
</mgrwt>
</event>
<event>
12    1  0.1536832E-007  0.2007440E+04  0.7818608E-02  0.8603150E-01
         -1   -1    0    0    0  501 -0.00000000000E+00  0.00000000000E+00  0.14868130257E+04  0.14868130257E+04  0.00000000000E+00 0.  1.
          1   -1    0    0  501    0  0.00000000000E+00 -0.00000000000E+00 -0.67759303286E+03  0.67759303286E+03  0.00000000000E+00 0. -1.
         23    2    1    2    0    0  0.53320633913E+03 -0.37658203024E+03  0.82395144161E+03  0.10559630256E+04  0.10019434977E+03 0.  0.
        254    2    1    2    0    0 -0.53320633913E+03  0.37658203024E+03 -0.14731448761E+02  0.11084430330E+04  0.89571530976E+03 0.  0.
        -24    2    4    4    0    0  0.22828906329E+03  0.43019603971E+02  0.10083041748E+03  0.26527932071E+03  0.78992165195E+02 0.  0.
         24    2    4    4    0    0 -0.76149540242E+03  0.33356242627E+03 -0.11556186624E+03  0.84316371225E+03  0.80195764175E+02 0.  0.
         11    1    3    3    0    0  0.41562783724E+03 -0.29056257477E+03  0.70176726470E+03  0.86582354019E+03  0.00000000000E+00 0. -1.
        -11    1    3    3    0    0  0.11757850189E+03 -0.86019455476E+02  0.12218417691E+03  0.19013948541E+03  0.00000000000E+00 0.  1.
          4    1    6    6  502    0 -0.32530459839E+03  0.11211219365E+03 -0.76042789263E+02  0.35238435195E+03  0.00000000000E+00 0. -1.
          1    1    5    5  503    0  0.80146769151E+01 -0.51046852175E+01 -0.10211494069E+02  0.13948744328E+02  0.00000000000E+00 0. -1.
         -2    1    5    5    0  503  0.22027438638E+03  0.48124289189E+02  0.11104191154E+03  0.25133057638E+03  0.00000000000E+00 0.  1.
         -3    1    6    6    0  502 -0.43619080404E+03  0.22145023263E+03 -0.39519076974E+02  0.49077936030E+03  0.00000000000E+00 0.  1.
<mgrwt>
<rscale>  0 0.20074403E+04</rscale>
<asrwt>0</asrwt>
<pdfrwt beam="1">  1        1 0.10424508E+00 0.20074403E+04</pdfrwt>
<pdfrwt beam="2">  1       -1 0.22874046E+00 0.20074403E+04</pdfrwt>
<totfact> 0.25528766E+00</totfact>
</mgrwt>
</event>
<event>
12    1  0.1536832E-007  0.1497934E+04  0.7818608E-02  0.8885828E-01
          1   -1    0    0  501    0  0.00000000000E+00  0.00000000000E+00  0.38670918593E+04  0.38670918593E+04  0.00000000000E+00 0. -1.
         -1   -1    0    0    0  501 -0.00000000000E+00 -0.00000000000E+00 -0.14505772272E+03  0.14505772272E+03  0.00000000000E+00 0.  1.
         23    2    1    2    0    0 -0.13005259768E+02 -0.18852842294E+03  0.27073365641E+02  0.20666120316E+03  0.79144063127E+02 0.  0.
        254    2    1    2    0    0  0.13005259768E+02  0.18852842294E+03  0.36949607709E+04  0.38054883789E+04  0.89067087068E+03 0.  0.
        -24    2    4    4    0    0  0.66039487599E+02 -0.17999835167E+03  0.19458712411E+03  0.28443762829E+03  0.79246419424E+02 0.  0.
         24    2    4    4    0    0 -0.53034227831E+02  0.36852677461E+03  0.35003736468E+04  0.35210507506E+04  0.80982144798E+02 0.  0.
         11    1    3    3    0    0  0.23302027948E+02 -0.12141443967E+03 -0.53659620156E+01  0.12374669376E+03  0.00000000000E+00 0.  1.
        -11    1    3    3    0    0 -0.36307287716E+02 -0.67113983263E+02  0.32439327656E+02  0.82914509402E+02  0.00000000000E+00 0. -1.
          2    1    6    6  502    0 -0.70308033403E+02  0.23030891856E+03  0.23340347541E+04  0.23464235872E+04  0.00000000000E+00 0. -1.
          3    1    5    5  503    0  0.66885481874E+02 -0.91808675636E+02  0.76076527751E+02  0.13671188201E+03  0.00000000000E+00 0. -1.
         -4    1    5    5    0  503 -0.84599427542E+00 -0.88189676039E+02  0.11851059635E+03  0.14772574628E+03  0.00000000000E+00 0.  1.
         -1    1    6    6    0  502  0.17273805572E+02  0.13821785605E+03  0.11663388928E+04  0.11746271633E+04  0.00000000000E+00 0.  1.
<mgrwt>
<rscale>  0 0.14979340E+04</rscale>
<asrwt>0</asrwt>
<pdfrwt beam="1">  1        1 0.59493713E+00 0.14979340E+04</pdfrwt>
<pdfrwt beam="2">  1       -1 0.22316576E-01 0.14979340E+04</pdfrwt>
<totfact> 0.20933807E+00</totfact>
</mgrwt>
</event>
<event>
12    1  0.1536832E-007  0.1484097E+04  0.7818608E-02  0.8895097E-01
          1   -1    0    0  501    0  0.00000000000E+00  0.00000000000E+00  0.26932763319E+03  0.26932763319E+03  0.00000000000E+00 0. -1.
         -1   -1    0    0    0  501 -0.00000000000E+00 -0.00000000000E+00 -0.20444845867E+04  0.20444845867E+04  0.00000000000E+00 0.  1.
         23    2    1    2    0    0 -0.14044823460E+03  0.44472077903E+03 -0.60807187291E+03  0.77179857033E+03  0.91757030485E+02 0.  0.
        254    2    1    2    0    0  0.14044823460E+03 -0.44472077903E+03 -0.11670850806E+04  0.15420136496E+04  0.89342947800E+03 0.  0.
        -24    2    4    4    0    0 -0.11165382469E+03  0.17238648014E+03 -0.30902952878E+02  0.22226929988E+03  0.79151589177E+02 0.  0.
         24    2    4    4    0    0  0.25210205929E+03 -0.61710725916E+03 -0.11361821277E+04  0.13197443497E+04  0.80240286342E+02 0.  0.
         11    1    3    3    0    0 -0.15040335161E+03  0.43614207089E+03 -0.59779511770E+03  0.75511593609E+03  0.00000000000E+00 0. -1.
        -11    1    3    3    0    0  0.99551170078E+01  0.85787081334E+01 -0.10276755201E+02  0.16682634245E+02  0.00000000000E+00 0.  1.
          4    1    6    6  502    0  0.14969840383E+03 -0.44430857224E+03 -0.75102958455E+03  0.88536159638E+03  0.00000000000E+00 0. -1.
          1    1    5    5  503    0 -0.11619709654E+02  0.87019841357E+02 -0.21733129864E+02  0.90442243315E+02  0.00000000000E+00 0. -1.
         -2    1    5    5    0  503 -0.10003411503E+03  0.85366638779E+02 -0.91698230141E+01  0.13182705656E+03  0.00000000000E+00 0.  1.
         -3    1    6    6    0  502  0.10240365546E+03 -0.17279868692E+03 -0.38515254318E+03  0.43438275331E+03  0.00000000000E+00 0.  1.
<mgrwt>
<rscale>  0 0.14840973E+04</rscale>
<asrwt>0</asrwt>
<pdfrwt beam="1">  1        1 0.41435020E-01 0.14840973E+04</pdfrwt>
<pdfrwt beam="2">  1       -1 0.31453609E+00 0.14840973E+04</pdfrwt>
<totfact> 0.26061198E+00</totfact>
</mgrwt>
</event>
<event>
12    1  0.1536832E-007  0.2114031E+04  0.7818608E-02  0.8555088E-01
          1   -1    0    0  501    0  0.00000000000E+00  0.00000000000E+00  0.37253593846E+04  0.37253593846E+04  0.00000000000E+00 0.  1.
         -1   -1    0    0    0  501 -0.00000000000E+00 -0.00000000000E+00 -0.29991254674E+03  0.29991254674E+03  0.00000000000E+00 0. -1.
         23    2    1    2    0    0 -0.28194832954E+03 -0.46431522996E+03  0.26629250792E+04  0.27193601810E+04  0.93093089322E+02 0.  0.
        254    2    1    2    0    0  0.28194832954E+03  0.46431522996E+03  0.76252175867E+03  0.13059117503E+04  0.91042988414E+03 0.  0.
        -24    2    4    4    0    0  0.57481371629E+03  0.46761635709E+03  0.45083715499E+03  0.87098391668E+03  0.79265231538E+02 0.  0.
         24    2    4    4    0    0 -0.29286538675E+03 -0.33011271356E+01  0.31168460368E+03  0.43492783366E+03  0.78955026006E+02 0.  0.
         13    1    3    3    0    0 -0.16888400088E+03 -0.19122225115E+03  0.12879404908E+04  0.13129655223E+04  0.00000000000E+00 0.  1.
        -13    1    3    3    0    0 -0.11306432866E+03 -0.27309297881E+03  0.13749845884E+04  0.14063946586E+04  0.00000000000E+00 0. -1.
          4    1    6    6  502    0 -0.26906326015E+03  0.15274795836E+02  0.25663669931E+03  0.37214345726E+03  0.00000000000E+00 0. -1.
          3    1    5    5  503    0  0.40441850993E+03  0.37369289097E+03  0.33026087776E+03  0.64208485056E+03  0.00000000000E+00 0. -1.
         -4    1    5    5    0  503  0.17039520636E+03  0.93923466121E+02  0.12057627723E+03  0.22889906612E+03  0.00000000000E+00 0.  1.
         -3    1    6    6    0  502 -0.23802126593E+02 -0.18575922972E+02  0.55047904366E+02  0.62784376398E+02  0.00000000000E+00 0.  1.
<mgrwt>
<rscale>  0 0.21140312E+04</rscale>
<asrwt>0</asrwt>
<pdfrwt beam="1">  1        1 0.57313218E+00 0.21140312E+04</pdfrwt>
<pdfrwt beam="2">  1       -1 0.46140395E-01 0.21140312E+04</pdfrwt>
<totfact> 0.70917325E-01</totfact>
</mgrwt>
</event>
<event>
12    1  0.1536832E-007  0.1913971E+04  0.7818608E-02  0.8647933E-01
         -2   -1    0    0    0  501 -0.00000000000E+00  0.00000000000E+00  0.35345381523E+03  0.35345381523E+03  0.00000000000E+00 0.  1.
          2   -1    0    0  501    0  0.00000000000E+00 -0.00000000000E+00 -0.25910633864E+04  0.25910633864E+04  0.00000000000E+00 0. -1.
         23    2    1    2    0    0  0.18323563357E+03  0.39149727559E+03  0.53781336973E+02  0.44530291181E+03  0.92503172162E+02 0.  0.
        254    2    1    2    0    0 -0.18323563357E+03 -0.39149727559E+03 -0.22913909082E+04  0.24992142898E+04  0.89930771055E+03 0.  0.
        -24    2    4    4    0    0  0.58110125967E+02  0.26846368146E+03 -0.76410499993E+03  0.81594067214E+03  0.80331777756E+02 0.  0.
         24    2    4    4    0    0 -0.24134575954E+03 -0.65996095705E+03 -0.15272859082E+04  0.16832736177E+04  0.83735213999E+02 0.  0.
         13    1    3    3    0    0  0.18802959127E+03  0.36965740785E+03  0.65799035574E+02  0.41991813423E+03  0.00000000000E+00 0.  1.
        -13    1    3    3    0    0 -0.47939577036E+01  0.21839867739E+02 -0.12017698601E+02  0.25384777584E+02  0.00000000000E+00 0. -1.
          2    1    6    6  502    0 -0.41482494251E+02 -0.90817814519E+02 -0.29148528832E+03  0.30811093144E+03  0.00000000000E+00 0. -1.
          1    1    5    5  503    0  0.18860734255E+02  0.58429885975E+02 -0.91323781886E+02  0.11004459101E+03  0.00000000000E+00 0. -1.
         -2    1    5    5    0  503  0.39249391711E+02  0.21003379549E+03 -0.67278121805E+03  0.70589608113E+03  0.00000000000E+00 0.  1.
         -1    1    6    6    0  502 -0.19986326529E+03 -0.56914314253E+03 -0.12358006199E+04  0.13751626862E+04  0.00000000000E+00 0.  1.
<mgrwt>
<rscale>  0 0.19139710E+04</rscale>
<asrwt>0</asrwt>
<pdfrwt beam="1">  1        2 0.39862514E+00 0.19139710E+04</pdfrwt>
<pdfrwt beam="2">  1       -2 0.54377509E-01 0.19139710E+04</pdfrwt>
<totfact> 0.91833847E+00</totfact>
</mgrwt>
</event>
<event>
12    1  0.1536832E-007  0.2112002E+04  0.7818608E-02  0.8555975E-01
          2   -1    0    0  501    0  0.00000000000E+00  0.00000000000E+00  0.10981679545E+04  0.10981679545E+04  0.00000000000E+00 0. -1.
         -2   -1    0    0    0  501 -0.00000000000E+00 -0.00000000000E+00 -0.10154528712E+04  0.10154528712E+04  0.00000000000E+00 0.  1.
         23    2    1    2    0    0  0.29759042543E+03 -0.41398882514E+03 -0.66605911786E+03  0.84375357585E+03  0.91315604580E+02 0.  0.
        254    2    1    2    0    0 -0.29759042543E+03  0.41398882514E+03  0.74877420115E+03  0.12698672498E+04  0.88991753502E+03 0.  0.
        -24    2    4    4    0    0 -0.19386345783E+03 -0.13577314107E+03  0.64983884835E+03  0.69583947700E+03  0.76711555890E+02 0.  0.
         24    2    4    4    0    0 -0.10372696760E+03  0.54976196620E+03  0.98935352795E+02  0.57402777279E+03  0.81988881002E+02 0.  0.
         13    1    3    3    0    0  0.73102186333E+01 -0.14110322819E+02 -0.19927727196E+01  0.16015981070E+02  0.00000000000E+00 0. -1.
        -13    1    3    3    0    0  0.29028020680E+03 -0.39987850232E+03 -0.66406634514E+03  0.82773759478E+03  0.00000000000E+00 0.  1.
          4    1    6    6  502    0 -0.49413489057E+02  0.44145970948E+03  0.81236065766E+02  0.45158350986E+03  0.00000000000E+00 0. -1.
          3    1    5    5  503    0 -0.79504389520E+02 -0.99226277843E+02  0.37344458981E+03  0.39449672220E+03  0.00000000000E+00 0. -1.
         -4    1    5    5    0  503 -0.11435906831E+03 -0.36546863226E+02  0.27639425854E+03  0.30134275480E+03  0.00000000000E+00 0.  1.
         -1    1    6    6    0  502 -0.54313478548E+02  0.10830225673E+03  0.17699287029E+02  0.12244426293E+03  0.00000000000E+00 0.  1.
<mgrwt>
<rscale>  0 0.21120017E+04</rscale>
<asrwt>0</asrwt>
<pdfrwt beam="1">  1        2 0.16894892E+00 0.21120017E+04</pdfrwt>
<pdfrwt beam="2">  1       -2 0.15622352E+00 0.21120017E+04</pdfrwt>
<totfact> 0.54046235E+00</totfact>
</mgrwt>
</event>
<event>
12    1  0.1536832E-007  0.1063547E+04  0.7818608E-02  0.9241468E-01
         -2   -1    0    0    0  501 -0.00000000000E+00  0.00000000000E+00  0.45412349369E+03  0.45412349369E+03  0.00000000000E+00 0.  1.
          2   -1    0    0  501    0  0.00000000000E+00 -0.00000000000E+00 -0.62270128127E+03  0.62270128127E+03  0.00000000000E+00 0. -1.
         23    2    1    2    0    0 -0.48876103904E+02  0.96740817672E+02 -0.37997605036E+02  0.14690664414E+03  0.91597405892E+02 0.  0.
        254    2    1    2    0    0  0.48876103904E+02 -0.96740817672E+02 -0.13058018255E+03  0.92991813082E+03  0.91430240436E+03 0.  0.
        -24    2    4    4    0    0  0.35674762736E+03  0.24368832181E+03  0.25330478063E+02  0.43891223663E+03  0.73139938004E+02 0.  0.
         24    2    4    4    0    0 -0.30787152346E+03 -0.34042913948E+03 -0.15591066061E+03  0.49100589419E+03  0.78113891677E+02 0.  0.
         13    1    3    3    0    0 -0.43615890047E+02  0.15183989652E+02 -0.45506330864E+02  0.64836143894E+02  0.00000000000E+00 0. -1.
        -13    1    3    3    0    0 -0.52602138571E+01  0.81556828020E+02  0.75087258272E+01  0.82070500242E+02  0.00000000000E+00 0.  1.
          4    1    6    6  502    0 -0.20103264927E+03 -0.27049496398E+03 -0.99431098695E+02  0.35138041351E+03  0.00000000000E+00 0. -1.
          3    1    5    5  503    0  0.31649345629E+03  0.20331530312E+03 -0.85847010670E+00  0.37617277590E+03  0.00000000000E+00 0. -1.
         -4    1    5    5    0  503  0.40254171077E+02  0.40373018691E+02  0.26188948169E+02  0.62739460737E+02  0.00000000000E+00 0.  1.
         -3    1    6    6    0  502 -0.10683887419E+03 -0.69934175500E+02 -0.56479561913E+02  0.13962548068E+03  0.00000000000E+00 0.  1.
<mgrwt>
<rscale>  0 0.10635474E+04</rscale>
<asrwt>0</asrwt>
<pdfrwt beam="1">  1        2 0.95800196E-01 0.10635474E+04</pdfrwt>
<pdfrwt beam="2">  1       -2 0.69865154E-01 0.10635474E+04</pdfrwt>
<totfact> 0.88103333E+01</totfact>
</mgrwt>
</event>
<event>
12    1  0.1536832E-007  0.2480883E+04  0.7818608E-02  0.8409828E-01
          2   -1    0    0  501    0  0.00000000000E+00  0.00000000000E+00  0.19809479402E+04  0.19809479402E+04  0.00000000000E+00 0. -1.
         -2   -1    0    0    0  501 -0.00000000000E+00 -0.00000000000E+00 -0.77674675155E+03  0.77674675155E+03  0.00000000000E+00 0.  1.
         23    2    1    2    0    0  0.73094105309E+03 -0.84784086619E+02 -0.34435842969E+03  0.81799620831E+03  0.95246544639E+02 0.  0.
        254    2    1    2    0    0 -0.73094105309E+03  0.84784086619E+02  0.15485596183E+04  0.19396984834E+04  0.90715497610E+03 0.  0.
        -24    2    4    4    0    0 -0.55862993158E+03  0.42454534481E+03  0.12949252286E+04  0.14750129782E+04  0.80782349393E+02 0.  0.
         24    2    4    4    0    0 -0.17231112151E+03 -0.33976125819E+03  0.25363438976E+03  0.46468550524E+03  0.80457317596E+02 0.  0.
         13    1    3    3    0    0  0.53910526883E+03 -0.20421186446E+02 -0.24323574915E+03  0.59178978143E+03  0.00000000000E+00 0.  1.
        -13    1    3    3    0    0  0.19183578426E+03 -0.64362900173E+02 -0.10112268054E+03  0.22620642688E+03  0.00000000000E+00 0. -1.
          4    1    6    6  502    0 -0.37230417346E+02 -0.63754476248E+02  0.14328759402E+02  0.75206718871E+02  0.00000000000E+00 0. -1.
          1    1    5    5  503    0 -0.89995780898E+02  0.10240830990E+03  0.28684183204E+03  0.31759241037E+03  0.00000000000E+00 0. -1.
         -2    1    5    5    0  503 -0.46863415069E+03  0.32213703490E+03  0.10080833965E+04  0.11574205678E+04  0.00000000000E+00 0.  1.
         -3    1    6    6    0  502 -0.13508070416E+03 -0.27600678194E+03  0.23930563036E+03  0.38947878637E+03  0.00000000000E+00 0.  1.
<mgrwt>
<rscale>  0 0.24808828E+04</rscale>
<asrwt>0</asrwt>
<pdfrwt beam="1">  1        2 0.30476122E+00 0.24808828E+04</pdfrwt>
<pdfrwt beam="2">  1       -2 0.11949950E+00 0.24808828E+04</pdfrwt>
<totfact> 0.32814043E+00</totfact>
</mgrwt>
</event>
<event>
12    1  0.1536832E-007  0.1968161E+04  0.7818608E-02  0.8621653E-01
         -2   -1    0    0    0  501 -0.00000000000E+00  0.00000000000E+00  0.75896374176E+03  0.75896374176E+03  0.00000000000E+00 0.  1.
          2   -1    0    0  501    0  0.00000000000E+00 -0.00000000000E+00 -0.12759687569E+04  0.12759687569E+04  0.00000000000E+00 0. -1.
         23    2    1    2    0    0  0.17188252887E+03  0.52423687907E+03  0.34835467281E+03  0.65870162101E+03  0.90382179358E+02 0.  0.
        254    2    1    2    0    0 -0.17188252887E+03 -0.52423687907E+03 -0.86535968795E+03  0.13762308777E+04  0.91694936064E+03 0.  0.
        -24    2    4    4    0    0  0.69192616760E+02  0.18230637831E+03  0.24656717089E+02  0.21178850721E+03  0.78887161822E+02 0.  0.
         24    2    4    4    0    0 -0.24107514563E+03 -0.70654325738E+03 -0.89001640504E+03  0.11644423704E+04  0.80475042475E+02 0.  0.
         11    1    3    3    0    0  0.11374241236E+03  0.29582080123E+03  0.24842420871E+03  0.40269327071E+03  0.00000000000E+00 0.  1.
        -11    1    3    3    0    0  0.58140116513E+02  0.22841607784E+03  0.99930464102E+02  0.25600835029E+03  0.00000000000E+00 0. -1.
          4    1    6    6  502    0 -0.40101665544E+02 -0.52384644305E+02 -0.66075284002E+02  0.93371503652E+02  0.00000000000E+00 0. -1.
          3    1    5    5  503    0  0.22745626530E+02  0.51049520976E+01  0.16234557590E+02  0.28407480042E+02  0.00000000000E+00 0. -1.
         -4    1    5    5    0  503  0.46446990230E+02  0.17720142622E+03  0.84221594998E+01  0.18338102717E+03  0.00000000000E+00 0.  1.
         -1    1    6    6    0  502 -0.20097348009E+03 -0.65415861308E+03 -0.82394112104E+03  0.10710708668E+04  0.00000000000E+00 0.  1.
<mgrwt>
<rscale>  0 0.19681606E+04</rscale>
<asrwt>0</asrwt>
<pdfrwt beam="1">  1        2 0.19630288E+00 0.19681606E+04</pdfrwt>
<pdfrwt beam="2">  1       -2 0.11676365E+00 0.19681606E+04</pdfrwt>
<totfact> 0.90371669E+00</totfact>
</mgrwt>
</event>
<event>
12    1  0.1536832E-007  0.1183651E+04  0.7818608E-02  0.9127288E-01
          2   -1    0    0  501    0  0.00000000000E+00  0.00000000000E+00  0.17247135425E+04  0.17247135425E+04  0.00000000000E+00 0. -1.
         -2   -1    0    0    0  501 -0.00000000000E+00 -0.00000000000E+00 -0.20308153173E+03  0.20308153173E+03  0.00000000000E+00 0.  1.
         23    2    1    2    0    0 -0.98291295529E+02 -0.15223460766E+03  0.13032849788E+03  0.24106034584E+03  0.91038554627E+02 0.  0.
        254    2    1    2    0    0  0.98291295529E+02  0.15223460766E+03  0.13913035129E+04  0.16867347284E+04  0.93622220889E+03 0.  0.
        -24    2    4    4    0    0 -0.38544491772E+02  0.35967895006E+03  0.12111802232E+03  0.39005674761E+03  0.81363788398E+02 0.  0.
         24    2    4    4    0    0  0.13683578730E+03 -0.20744434240E+03  0.12701854905E+04  0.12966779808E+04  0.79027954084E+02 0.  0.
         13    1    3    3    0    0 -0.11332116089E+03 -0.14928325681E+03  0.12190532399E+03  0.22358015182E+03  0.00000000000E+00 0.  1.
        -13    1    3    3    0    0  0.15029865361E+02 -0.29513508521E+01  0.84231738931E+01  0.17480194022E+02  0.00000000000E+00 0. -1.
          2    1    6    6  502    0  0.32479791137E+02 -0.33964559481E+02  0.42471407575E+03  0.42730618329E+03  0.00000000000E+00 0. -1.
          3    1    5    5  503    0 -0.42059759483E+02  0.14576544224E+03  0.18690819658E+02  0.15285919750E+03  0.00000000000E+00 0. -1.
         -4    1    5    5    0  503  0.35152677117E+01  0.21391350781E+03  0.10242720266E+03  0.23719755011E+03  0.00000000000E+00 0.  1.
         -1    1    6    6    0  502  0.10435599616E+03 -0.17347978291E+03  0.84547141478E+03  0.86937179746E+03  0.00000000000E+00 0.  1.
<mgrwt>
<rscale>  0 0.11836511E+04</rscale>
<asrwt>0</asrwt>
<pdfrwt beam="1">  1        2 0.26534054E+00 0.11836511E+04</pdfrwt>
<pdfrwt beam="2">  1       -2 0.31243314E-01 0.11836511E+04</pdfrwt>
<totfact> 0.89181912E+01</totfact>
</mgrwt>
</event>
<event>
12    1  0.1536832E-007  0.1081986E+04  0.7818608E-02  0.9222929E-01
          1   -1    0    0  501    0  0.00000000000E+00  0.00000000000E+00  0.98823740747E+03  0.98823740747E+03  0.00000000000E+00 0. -1.
         -1   -1    0    0    0  501 -0.00000000000E+00 -0.00000000000E+00 -0.29615703230E+03  0.29615703230E+03  0.00000000000E+00 0.  1.
         23    2    1    2    0    0 -0.98130622804E+02  0.21580602997E+02  0.25400485697E+03  0.28935860101E+03  0.95470367401E+02 0.  0.
        254    2    1    2    0    0  0.98130622804E+02 -0.21580602997E+02  0.43807551819E+03  0.99503583877E+03  0.88774479398E+03 0.  0.
        -24    2    4    4    0    0 -0.38632610852E+03 -0.59110032908E+02  0.22444272172E+03  0.45771222447E+03  0.79900481730E+02 0.  0.
         24    2    4    4    0    0  0.48445673133E+03  0.37529429910E+02  0.21363279647E+03  0.53732361429E+03  0.83491988329E+02 0.  0.
         11    1    3    3    0    0 -0.64066220456E+02 -0.26171485214E+02  0.80246490363E+02  0.10596662898E+03  0.00000000000E+00 0.  1.
        -11    1    3    3    0    0 -0.34064402348E+02  0.47752088211E+02  0.17375836661E+03  0.18339197203E+03  0.00000000000E+00 0. -1.
          2    1    6    6  502    0  0.41436620369E+03  0.57292300992E+02  0.16457928163E+03  0.44951985324E+03  0.00000000000E+00 0. -1.
          3    1    5    5  503    0 -0.34404979426E+03 -0.51478393206E+02  0.16674373706E+03  0.38577682635E+03  0.00000000000E+00 0. -1.
         -4    1    5    5    0  503 -0.42276314260E+02 -0.76316397015E+01  0.57698984665E+02  0.71935398124E+02  0.00000000000E+00 0.  1.
         -3    1    6    6    0  502  0.70090527635E+02 -0.19762871082E+02  0.49053514836E+02  0.87803761054E+02  0.00000000000E+00 0.  1.
<mgrwt>
<rscale>  0 0.10819861E+04</rscale>
<asrwt>0</asrwt>
<pdfrwt beam="1">  1        1 0.15203652E+00 0.10819861E+04</pdfrwt>
<pdfrwt beam="2">  1       -1 0.45562621E-01 0.10819861E+04</pdfrwt>
<totfact> 0.73738295E+01</totfact>
</mgrwt>
</event>
<event>
12    1  0.1536832E-007  0.1915191E+04  0.7818608E-02  0.8647332E-01
         -2   -1    0    0    0  501 -0.00000000000E+00  0.00000000000E+00  0.21653761186E+03  0.21653761186E+03  0.00000000000E+00 0.  1.
          2   -1    0    0  501    0  0.00000000000E+00 -0.00000000000E+00 -0.42347794103E+04  0.42347794103E+04  0.00000000000E+00 0. -1.
         23    2    1    2    0    0  0.31337129062E+03  0.68109715157E+03 -0.17024437970E+04  0.18627714541E+04  0.97507499992E+02 0.  0.
        254    2    1    2    0    0 -0.31337129062E+03 -0.68109715157E+03 -0.23157980015E+04  0.25885455681E+04  0.88065480122E+03 0.  0.
        -24    2    4    4    0    0 -0.40729609501E+03 -0.81402480174E+03 -0.21705467996E+04  0.23550264040E+04  0.79683544991E+02 0.  0.
         24    2    4    4    0    0  0.93924804393E+02  0.13292765017E+03 -0.14525120191E+03  0.23351916417E+03  0.83316620882E+02 0.  0.
         13    1    3    3    0    0  0.24286926425E+03  0.53622157849E+03 -0.14272871585E+04  0.15439131108E+04  0.00000000000E+00 0. -1.
        -13    1    3    3    0    0  0.70502026369E+02  0.14487557308E+03 -0.27515663846E+03  0.31885834329E+03  0.00000000000E+00 0.  1.
          2    1    6    6  502    0 -0.10234450507E+01  0.15481482661E+02  0.87580946421E+01  0.17816508269E+02  0.00000000000E+00 0. -1.
          1    1    5    5  503    0 -0.33707314567E+00 -0.21340743086E+02 -0.34332989233E+02  0.40426415664E+02  0.00000000000E+00 0. -1.
         -2    1    5    5    0  503 -0.40695902187E+03 -0.79268405866E+03 -0.21362138104E+04  0.23145999883E+04  0.00000000000E+00 0.  1.
         -1    1    6    6    0  502  0.94948249444E+02  0.11744616751E+03 -0.15400929656E+03  0.21570265590E+03  0.00000000000E+00 0.  1.
<mgrwt>
<rscale>  0 0.19151909E+04</rscale>
<asrwt>0</asrwt>
<pdfrwt beam="1">  1        2 0.65150450E+00 0.19151909E+04</pdfrwt>
<pdfrwt beam="2">  1       -2 0.33313480E-01 0.19151909E+04</pdfrwt>
<totfact> 0.17333537E+00</totfact>
</mgrwt>
</event>
<event>
12    1  0.1536832E-007  0.1227635E+04  0.7818608E-02  0.9089005E-01
          2   -1    0    0  501    0  0.00000000000E+00  0.00000000000E+00  0.11228686613E+04  0.11228686613E+04  0.00000000000E+00 0. -1.
         -2   -1    0    0    0  501 -0.00000000000E+00 -0.00000000000E+00 -0.33554424966E+03  0.33554424966E+03  0.00000000000E+00 0.  1.
         23    2    1    2    0    0  0.18254165872E+03 -0.19647250730E+03  0.11486266621E+03  0.30543101302E+03  0.90397833652E+02 0.  0.
        254    2    1    2    0    0 -0.18254165872E+03  0.19647250730E+03  0.67246174543E+03  0.11529818979E+04  0.89735141087E+03 0.  0.
        -24    2    4    4    0    0 -0.35423359100E+03  0.47149496187E+03  0.36366893444E+03  0.69742716966E+03  0.79753539323E+02 0.  0.
         24    2    4    4    0    0  0.17169193228E+03 -0.27502245457E+03  0.30879281099E+03  0.45555472827E+03  0.84033565952E+02 0.  0.
         11    1    3    3    0    0 -0.77984800259E+01 -0.15196518564E+02  0.19238897004E+02  0.25727137912E+02  0.00000000000E+00 0. -1.
        -11    1    3    3    0    0  0.19034013875E+03 -0.18127598874E+03  0.95623769204E+02  0.27970387511E+03  0.00000000000E+00 0.  1.
          2    1    6    6  502    0  0.93369775111E+02 -0.18626729181E+03  0.24310956495E+03  0.32018069816E+03  0.00000000000E+00 0. -1.
          1    1    5    5  503    0 -0.12609493993E+03  0.13243593820E+03  0.14856290124E+03  0.23560591510E+03  0.00000000000E+00 0. -1.
         -2    1    5    5    0  503 -0.22813865107E+03  0.33905902367E+03  0.21510603320E+03  0.46182125456E+03  0.00000000000E+00 0.  1.
         -1    1    6    6    0  502  0.78322157167E+02 -0.88755162757E+02  0.65683246042E+02  0.13537403012E+03  0.00000000000E+00 0.  1.
<mgrwt>
<rscale>  0 0.12276353E+04</rscale>
<asrwt>0</asrwt>
<pdfrwt beam="1">  1        2 0.17274902E+00 0.12276353E+04</pdfrwt>
<pdfrwt beam="2">  1       -2 0.51622193E-01 0.12276353E+04</pdfrwt>
<totfact> 0.73621686E+01</totfact>
</mgrwt>
</event>
<event>
12    1  0.1536832E-007  0.1493686E+04  0.7818608E-02  0.8888662E-01
         -2   -1    0    0    0  501 -0.00000000000E+00  0.00000000000E+00  0.63713571721E+03  0.63713571721E+03  0.00000000000E+00 0.  1.
          2   -1    0    0  501    0  0.00000000000E+00 -0.00000000000E+00 -0.87544111862E+03  0.87544111862E+03  0.00000000000E+00 0. -1.
         23    2    1    2    0    0 -0.37792462890E+03  0.40947837292E+02  0.20193776457E+03  0.44131790943E+03  0.97359570258E+02 0.  0.
        254    2    1    2    0    0  0.37792462890E+03 -0.40947837292E+02 -0.44024316598E+03  0.10712589264E+04  0.89959873927E+03 0.  0.
        -24    2    4    4    0    0  0.52628685370E+03  0.20198598621E+03 -0.36040632538E+02  0.57045665195E+03  0.79659736121E+02 0.  0.
         24    2    4    4    0    0 -0.14836222480E+03 -0.24293382350E+03 -0.40420253344E+03  0.50080227445E+03  0.79968979628E+02 0.  0.
         13    1    3    3    0    0 -0.14329589330E+02 -0.17879266576E+02  0.20437369000E+02  0.30703279227E+02  0.00000000000E+00 0. -1.
        -13    1    3    3    0    0 -0.36359503957E+03  0.58827103867E+02  0.18150039557E+03  0.41061463021E+03  0.00000000000E+00 0.  1.
          4    1    6    6  502    0 -0.79810892983E+01 -0.64485835600E+02 -0.12549062272E+03  0.14131531117E+03  0.00000000000E+00 0. -1.
          3    1    5    5  503    0  0.19484159528E+03  0.62461244826E+02  0.23471518908E+02  0.20595039829E+03  0.00000000000E+00 0. -1.
         -4    1    5    5    0  503  0.33144525842E+03  0.13952474138E+03 -0.59512151446E+02  0.36450625366E+03  0.00000000000E+00 0.  1.
         -3    1    6    6    0  502 -0.14038113551E+03 -0.17844798790E+03 -0.27871191072E+03  0.35948696329E+03  0.00000000000E+00 0.  1.
<mgrwt>
<rscale>  0 0.14936865E+04</rscale>
<asrwt>0</asrwt>
<pdfrwt beam="1">  1        2 0.13468325E+00 0.14936865E+04</pdfrwt>
<pdfrwt beam="2">  1       -2 0.98020880E-01 0.14936865E+04</pdfrwt>
<totfact> 0.25516437E+01</totfact>
</mgrwt>
</event>
<event>
12    1  0.1536832E-007  0.4647055E+04  0.7818608E-02  0.7885386E-01
         -1   -1    0    0    0  501 -0.00000000000E+00  0.00000000000E+00  0.24229808551E+04  0.24229808551E+04  0.00000000000E+00 0.  1.
          1   -1    0    0  501    0  0.00000000000E+00 -0.00000000000E+00 -0.22281566798E+04  0.22281566798E+04  0.00000000000E+00 0. -1.
         23    2    1    2    0    0  0.52267796605E+03  0.19171777014E+04 -0.93271765429E+03  0.21971116562E+04  0.92600280103E+02 0.  0.
        254    2    1    2    0    0 -0.52267796605E+03 -0.19171777014E+04  0.11275418297E+04  0.24540258787E+04  0.89561701680E+03 0.  0.
        -24    2    4    4    0    0  0.24005281043E+02 -0.14552475418E+04  0.71056934007E+03  0.16215735808E+04  0.79186044935E+02 0.  0.
         24    2    4    4    0    0 -0.54668324709E+03 -0.46193015969E+03  0.41697248960E+03  0.83245229791E+03  0.82877778279E+02 0.  0.
         13    1    3    3    0    0  0.67325463889E+02  0.17779909745E+03 -0.67252771493E+02  0.20166351285E+03  0.00000000000E+00 0.  1.
        -13    1    3    3    0    0  0.45535250216E+03  0.17393786040E+04 -0.86546488280E+03  0.19954481433E+04  0.00000000000E+00 0. -1.
          4    1    6    6  502    0 -0.40187563826E+03 -0.30515912088E+03  0.32397079815E+03  0.59965256252E+03  0.00000000000E+00 0. -1.
          1    1    5    5  503    0  0.25350857278E+02 -0.11592777878E+04  0.60028112221E+03  0.13057201388E+04  0.00000000000E+00 0. -1.
         -2    1    5    5    0  503 -0.13455762351E+01 -0.29596975394E+03  0.11028821787E+03  0.31585344200E+03  0.00000000000E+00 0.  1.
         -3    1    6    6    0  502 -0.14480760883E+03 -0.15677103882E+03  0.93001691452E+02  0.23279973539E+03  0.00000000000E+00 0.  1.
<mgrwt>
<rscale>  0 0.46470554E+04</rscale>
<asrwt>0</asrwt>
<pdfrwt beam="1">  1        1 0.34279334E+00 0.46470554E+04</pdfrwt>
<pdfrwt beam="2">  1       -1 0.37276628E+00 0.46470554E+04</pdfrwt>
<totfact> 0.16941165E-02</totfact>
</mgrwt>
</event>
<event>
12    1  0.1536832E-007  0.1452548E+04  0.7818608E-02  0.8916636E-01
          2   -1    0    0  501    0  0.00000000000E+00  0.00000000000E+00  0.19683352547E+04  0.19683352547E+04  0.00000000000E+00 0. -1.
         -2   -1    0    0    0  501 -0.00000000000E+00 -0.00000000000E+00 -0.26797956937E+03  0.26797956937E+03  0.00000000000E+00 0.  1.
         23    2    1    2    0    0  0.12990882404E+03 -0.28143991861E+02  0.11927755371E+04  0.12036393880E+04  0.91465335768E+02 0.  0.
        254    2    1    2    0    0 -0.12990882404E+03  0.28143991861E+02  0.50758014832E+03  0.10326754361E+04  0.88944508689E+03 0.  0.
        -24    2    4    4    0    0  0.32851800553E+03 -0.76296152411E+02  0.15063938118E+02  0.34720764309E+03  0.81123623923E+02 0.  0.
         24    2    4    4    0    0 -0.45842682957E+03  0.10444014427E+03  0.49251621021E+03  0.68546779305E+03  0.78936532672E+02 0.  0.
         11    1    3    3    0    0  0.13630938477E+03 -0.29286939952E+02  0.89510574095E+03  0.90589859295E+03  0.00000000000E+00 0. -1.
        -11    1    3    3    0    0 -0.64005607375E+01  0.11429480916E+01  0.29766979611E+03  0.29774079502E+03  0.00000000000E+00 0.  1.
          2    1    6    6  502    0 -0.81831291513E+02  0.30714391103E+02  0.53946197433E+02  0.10271283420E+03  0.00000000000E+00 0. -1.
          1    1    5    5  503    0  0.36400720179E+02  0.17037888849E+02  0.30631594651E+01  0.40307381853E+02  0.00000000000E+00 0. -1.
         -2    1    5    5    0  503  0.29211728535E+03 -0.93334041260E+02  0.12000778653E+02  0.30690026124E+03  0.00000000000E+00 0.  1.
         -1    1    6    6    0  502 -0.37659553805E+03  0.73725753169E+02  0.43857001277E+03  0.58275495885E+03  0.00000000000E+00 0.  1.
<mgrwt>
<rscale>  0 0.14525476E+04</rscale>
<asrwt>0</asrwt>
<pdfrwt beam="1">  1        2 0.30282080E+00 0.14525476E+04</pdfrwt>
<pdfrwt beam="2">  1       -2 0.41227627E-01 0.14525476E+04</pdfrwt>
<totfact> 0.37611637E+01</totfact>
</mgrwt>
</event>
<event>
12    1  0.1536832E-007  0.2579226E+04  0.7818608E-02  0.8375292E-01
          2   -1    0    0  501    0  0.00000000000E+00  0.00000000000E+00  0.27633524375E+04  0.27633524375E+04  0.00000000000E+00 0. -1.
         -2   -1    0    0    0  501 -0.00000000000E+00 -0.00000000000E+00 -0.60184195576E+03  0.60184195576E+03  0.00000000000E+00 0.  1.
         23    2    1    2    0    0  0.31172351268E+03  0.10320929708E+04  0.14680622442E+04  0.18237377142E+04  0.91788064115E+02 0.  0.
        254    2    1    2    0    0 -0.31172351268E+03 -0.10320929708E+04  0.69344823750E+03  0.15414566790E+04  0.85605536408E+03 0.  0.
        -24    2    4    4    0    0 -0.15983607661E+03 -0.11525576910E+04  0.56612227326E+03  0.12964983638E+04  0.80478422057E+02 0.  0.
         24    2    4    4    0    0 -0.15188743607E+03  0.12046472024E+03  0.12732596425E+03  0.24495831522E+03  0.78810741418E+02 0.  0.
         13    1    3    3    0    0  0.10427540124E+03  0.23270137030E+03  0.38325918006E+03  0.46033779569E+03  0.00000000000E+00 0.  1.
        -13    1    3    3    0    0  0.20744811144E+03  0.79939160050E+03  0.10848030642E+04  0.13633999186E+04  0.00000000000E+00 0. -1.
          4    1    6    6  502    0 -0.51677215493E+02  0.40125178286E+02  0.19260562248E+01  0.65454367510E+02  0.00000000000E+00 0. -1.
          1    1    5    5  503    0 -0.47974864811E+02 -0.42324589900E+03  0.24898946631E+03  0.49339075083E+03  0.00000000000E+00 0. -1.
         -2    1    5    5    0  503 -0.11186121180E+03 -0.72931179205E+03  0.31713280695E+03  0.80310761294E+03  0.00000000000E+00 0.  1.
         -3    1    6    6    0  502 -0.10021022058E+03  0.80339541955E+02  0.12539990802E+03  0.17950394771E+03  0.00000000000E+00 0.  1.
<mgrwt>
<rscale>  0 0.25792258E+04</rscale>
<asrwt>0</asrwt>
<pdfrwt beam="1">  1        2 0.42513114E+00 0.25792258E+04</pdfrwt>
<pdfrwt beam="2">  1       -2 0.92591072E-01 0.25792258E+04</pdfrwt>
<totfact> 0.21331356E+00</totfact>
</mgrwt>
</event>
<event>
12    1  0.1536832E-007  0.1343259E+04  0.7818608E-02  0.8995947E-01
         -2   -1    0    0    0  501 -0.00000000000E+00  0.00000000000E+00  0.20397216602E+03  0.20397216602E+03  0.00000000000E+00 0.  1.
          2   -1    0    0  501    0  0.00000000000E+00 -0.00000000000E+00 -0.22115092938E+04  0.22115092938E+04  0.00000000000E+00 0. -1.
         23    2    1    2    0    0 -0.13773525887E+03  0.32120533976E+03 -0.69308513669E+03  0.78174338562E+03  0.92800013124E+02 0.  0.
        254    2    1    2    0    0  0.13773525887E+03 -0.32120533976E+03 -0.13144519910E+04  0.16337380742E+04  0.90508131478E+03 0.  0.
        -24    2    4    4    0    0 -0.34660007692E+03 -0.32211322901E+03 -0.66681278385E+03  0.82161212668E+03  0.80738171731E+02 0.  0.
         24    2    4    4    0    0  0.48433533579E+03  0.90788924915E+00 -0.64763920720E+03  0.81212594748E+03  0.74367130642E+02 0.  0.
         11    1    3    3    0    0 -0.11671143201E+02  0.85088593123E+02 -0.10529934582E+03  0.13588317222E+03  0.00000000000E+00 0.  1.
        -11    1    3    3    0    0 -0.12606411567E+03  0.23611674664E+03 -0.58778579087E+03  0.64586021340E+03  0.00000000000E+00 0. -1.
          2    1    6    6  502    0  0.30306200548E+03  0.98370290615E+01 -0.46107397085E+03  0.55184468186E+03  0.00000000000E+00 0. -1.
          1    1    5    5  503    0 -0.11906100407E+03 -0.12612807131E+03 -0.18269267759E+03  0.25191353181E+03  0.00000000000E+00 0. -1.
         -2    1    5    5    0  503 -0.22753907285E+03 -0.19598515770E+03 -0.48412010626E+03  0.56969859487E+03  0.00000000000E+00 0.  1.
         -1    1    6    6    0  502  0.18127333031E+03 -0.89291398123E+01 -0.18656523635E+03  0.26028126562E+03  0.00000000000E+00 0.  1.
<mgrwt>
<rscale>  0 0.13432592E+04</rscale>
<asrwt>0</asrwt>
<pdfrwt beam="1">  1        2 0.34023221E+00 0.13432592E+04</pdfrwt>
<pdfrwt beam="2">  1       -2 0.31380333E-01 0.13432592E+04</pdfrwt>
<totfact> 0.46947092E+01</totfact>
</mgrwt>
</event>
<event>
12    1  0.1536832E-007  0.2613568E+04  0.7818608E-02  0.8363607E-01
         -1   -1    0    0    0  501 -0.00000000000E+00  0.00000000000E+00  0.23261893287E+04  0.23261893287E+04  0.00000000000E+00 0.  1.
          1   -1    0    0  501    0  0.00000000000E+00 -0.00000000000E+00 -0.73411212353E+03  0.73411212353E+03  0.00000000000E+00 0. -1.
         23    2    1    2    0    0 -0.17655160974E+03 -0.11317211768E+04  0.61447749581E+03  0.13043106616E+04  0.10807597368E+03 0.  0.
        254    2    1    2    0    0  0.17655160974E+03  0.11317211768E+04  0.97759970933E+03  0.17559907906E+04  0.90323815908E+03 0.  0.
        -24    2    4    4    0    0  0.53687077163E+03  0.57527859320E+03  0.52423604435E+03  0.94870239356E+03  0.77698881134E+02 0.  0.
         24    2    4    4    0    0 -0.36031916189E+03  0.55644258364E+03  0.45336366498E+03  0.80728839705E+03  0.81961551779E+02 0.  0.
         13    1    3    3    0    0 -0.17313039943E+03 -0.11193048928E+04  0.59100840404E+03  0.12775400236E+04  0.00000000000E+00 0.  1.
        -13    1    3    3    0    0 -0.34212103076E+01 -0.12416284001E+02  0.23469091771E+02  0.26770637963E+02  0.00000000000E+00 0. -1.
          2    1    6    6  502    0 -0.86063639518E+02  0.19230377944E+03  0.16807808660E+03  0.26951426090E+03  0.00000000000E+00 0. -1.
          1    1    5    5  503    0  0.12243077235E+02  0.18149231421E+00  0.89260152232E+01  0.15152545245E+02  0.00000000000E+00 0. -1.
         -2    1    5    5    0  503  0.52462769440E+03  0.57509710088E+03  0.51531002912E+03  0.93354984831E+03  0.00000000000E+00 0.  1.
         -1    1    6    6    0  502 -0.27425552237E+03  0.36413880419E+03  0.28528557838E+03  0.53777413614E+03  0.00000000000E+00 0.  1.
<mgrwt>
<rscale>  0 0.26135675E+04</rscale>
<asrwt>0</asrwt>
<pdfrwt beam="1">  1        1 0.11294033E+00 0.26135675E+04</pdfrwt>
<pdfrwt beam="2">  1       -1 0.35787528E+00 0.26135675E+04</pdfrwt>
<totfact> 0.30684774E-01</totfact>
</mgrwt>
</event>
<event>
12    1  0.1555981E-007  0.2099027E+04  0.7818608E-02  0.8561672E-01
          1   -1    0    0  501    0  0.00000000000E+00  0.00000000000E+00  0.12113703264E+04  0.12113703264E+04  0.00000000000E+00 0. -1.
         -1   -1    0    0    0  501 -0.00000000000E+00 -0.00000000000E+00 -0.90928283647E+03  0.90928283647E+03  0.00000000000E+00 0.  1.
         23    2    1    2    0    0  0.33210202685E+03  0.14647767748E+03 -0.65661765826E+03  0.75541433047E+03  0.88071535172E+02 0.  0.
        254    2    1    2    0    0 -0.33210202685E+03 -0.14647767748E+03  0.95870514818E+03  0.13652388324E+04  0.90167291300E+03 0.  0.
        -24    2    4    4    0    0 -0.27473467756E+03  0.51374761957E+02  0.10769987064E+04  0.11157103255E+04  0.82248450705E+02 0.  0.
         24    2    4    4    0    0 -0.57367349292E+02 -0.19785243944E+03 -0.11829355824E+03  0.24952850685E+03  0.76383959415E+02 0.  0.
         11    1    3    3    0    0  0.31498413525E+03  0.11941323242E+03 -0.62716445934E+03  0.71190574137E+03  0.00000000000E+00 0.  1.
        -11    1    3    3    0    0  0.17117891600E+02  0.27064445056E+02 -0.29453198917E+02  0.43508589100E+02  0.00000000000E+00 0. -1.
          4    1    6    6  502    0 -0.73644014483E+02 -0.14535078156E+03 -0.74106464312E+02  0.17900295702E+03  0.00000000000E+00 0. -1.
          1    1    5    5  503    0 -0.12649299758E+03  0.48813640761E+02  0.64130030508E+03  0.65547641549E+03  0.00000000000E+00 0. -1.
         -2    1    5    5    0  503 -0.14824167998E+03  0.25611211966E+01  0.43569840133E+03  0.46023391003E+03  0.00000000000E+00 0.  1.
         -3    1    6    6    0  502  0.16276665191E+02 -0.52501657875E+02 -0.44187093924E+02  0.70525549830E+02  0.00000000000E+00 0.  1.
<mgrwt>
<rscale>  0 0.20990267E+04</rscale>
<asrwt>0</asrwt>
<pdfrwt beam="1">  1        1 0.18636467E+00 0.20990267E+04</pdfrwt>
<pdfrwt beam="2">  1       -1 0.13988967E+00 0.20990267E+04</pdfrwt>
<totfact> 0.40501771E+00</totfact>
</mgrwt>
</event>
<event>
12    1  0.1536832E-007  0.1732130E+04  0.7818608E-02  0.8743249E-01
          1   -1    0    0  501    0  0.00000000000E+00  0.00000000000E+00  0.74927129568E+03  0.74927129568E+03  0.00000000000E+00 0. -1.
         -1   -1    0    0    0  501 -0.00000000000E+00 -0.00000000000E+00 -0.10010640695E+04  0.10010640695E+04  0.00000000000E+00 0.  1.
         23    2    1    2    0    0 -0.21893132541E+02 -0.37931907059E+02 -0.72812225194E+03  0.73560271170E+03  0.95032609463E+02 0.  0.
        254    2    1    2    0    0  0.21893132541E+02  0.37931907059E+02  0.47632947815E+03  0.10147326534E+04  0.89491588843E+03 0.  0.
        -24    2    4    4    0    0 -0.23443258500E+03 -0.26492260585E+03 -0.34136463638E+02  0.36334212803E+03  0.75561761837E+02 0.  0.
         24    2    4    4    0    0  0.25632571754E+03  0.30285451291E+03  0.51046594179E+03  0.65139052541E+03  0.79438085350E+02 0.  0.
         11    1    3    3    0    0  0.37239045870E+02 -0.10910793770E+02 -0.22907163976E+03  0.23233512025E+03  0.00000000000E+00 0. -1.
        -11    1    3    3    0    0 -0.59132178412E+02 -0.27021113289E+02 -0.49905061218E+03  0.50326759145E+03  0.00000000000E+00 0.  1.
          2    1    6    6  502    0 -0.43116790434E+00 -0.27045955623E+01  0.14617016510E+02  0.14871379041E+02  0.00000000000E+00 0. -1.
          1    1    5    5  503    0 -0.23198298036E+03 -0.24495285493E+03 -0.45196362286E+02  0.34038318918E+03  0.00000000000E+00 0. -1.
         -2    1    5    5    0  503 -0.24496046340E+01 -0.19969750921E+02  0.11059898648E+02  0.22958938844E+02  0.00000000000E+00 0.  1.
         -1    1    6    6    0  502  0.25675688544E+03  0.30555910847E+03  0.49584892528E+03  0.63651914637E+03  0.00000000000E+00 0.  1.
<mgrwt>
<rscale>  0 0.17321300E+04</rscale>
<asrwt>0</asrwt>
<pdfrwt beam="1">  1        1 0.11527251E+00 0.17321300E+04</pdfrwt>
<pdfrwt beam="2">  1       -1 0.15400986E+00 0.17321300E+04</pdfrwt>
<totfact> 0.75611077E+00</totfact>
</mgrwt>
</event>
<event>
12    1  0.1536832E-007  0.1520414E+04  0.7818608E-02  0.8870990E-01
          2   -1    0    0  501    0  0.00000000000E+00  0.00000000000E+00  0.12185371841E+04  0.12185371841E+04  0.00000000000E+00 0. -1.
         -2   -1    0    0    0  501 -0.00000000000E+00 -0.00000000000E+00 -0.47426950507E+03  0.47426950507E+03  0.00000000000E+00 0.  1.
         23    2    1    2    0    0 -0.67415117920E+02  0.15277434236E+02 -0.29658046494E+03  0.31791030021E+03  0.91262197397E+02 0.  0.
        254    2    1    2    0    0  0.67415117920E+02 -0.15277434236E+02  0.10408481439E+04  0.13748963889E+04  0.89565452235E+03 0.  0.
        -24    2    4    4    0    0 -0.22522092925E+03 -0.33480842049E+03  0.72190877877E+03  0.83102861992E+03  0.81456349438E+02 0.  0.
         24    2    4    4    0    0  0.29263604717E+03  0.31953098625E+03  0.31893936516E+03  0.54386776899E+03  0.79585954900E+02 0.  0.
         11    1    3    3    0    0 -0.65961457716E+01 -0.16349872167E+02 -0.49225667358E+01  0.18304620242E+02  0.00000000000E+00 0. -1.
        -11    1    3    3    0    0 -0.60818972148E+02  0.31627306403E+02 -0.29165789821E+03  0.29960567997E+03  0.00000000000E+00 0.  1.
          2    1    6    6  502    0  0.27494965428E+03  0.32112208211E+03  0.30488461910E+03  0.52122100396E+03  0.00000000000E+00 0. -1.
          3    1    5    5  503    0 -0.21864577819E+03 -0.27458077106E+03  0.61029743410E+03  0.70403375929E+03  0.00000000000E+00 0. -1.
         -4    1    5    5    0  503 -0.65751510605E+01 -0.60227649433E+02  0.11161134467E+03  0.12699486063E+03  0.00000000000E+00 0.  1.
         -1    1    6    6    0  502  0.17686392894E+02 -0.15910958524E+01  0.14054746054E+02  0.22646765028E+02  0.00000000000E+00 0.  1.
<mgrwt>
<rscale>  0 0.15204145E+04</rscale>
<asrwt>0</asrwt>
<pdfrwt beam="1">  1        2 0.18746726E+00 0.15204145E+04</pdfrwt>
<pdfrwt beam="2">  1       -2 0.72964540E-01 0.15204145E+04</pdfrwt>
<totfact> 0.30231912E+01</totfact>
</mgrwt>
</event>
<event>
12    1  0.1536832E-007  0.1733292E+04  0.7818608E-02  0.8742601E-01
         -2   -1    0    0    0  501 -0.00000000000E+00  0.00000000000E+00  0.91636898930E+03  0.91636898930E+03  0.00000000000E+00 0.  1.
          2   -1    0    0  501    0  0.00000000000E+00 -0.00000000000E+00 -0.81962064232E+03  0.81962064232E+03  0.00000000000E+00 0. -1.
         23    2    1    2    0    0  0.56608810256E+03 -0.23127864160E+03  0.22000805676E+03  0.65640572630E+03  0.92300501431E+02 0.  0.
        254    2    1    2    0    0 -0.56608810256E+03  0.23127864160E+03 -0.12325970978E+03  0.10795839053E+04  0.88111457975E+03 0.  0.
        -24    2    4    4    0    0 -0.53392400599E+03 -0.22973804736E+03  0.24666052510E+02  0.58777864115E+03  0.83790824543E+02 0.  0.
         24    2    4    4    0    0 -0.32164096570E+02  0.46101668895E+03 -0.14792576229E+03  0.49180526417E+03  0.80121595780E+02 0.  0.
         11    1    3    3    0    0  0.46550016864E+03 -0.22657788517E+03  0.18638366933E+03  0.55024250767E+03  0.00000000000E+00 0. -1.
        -11    1    3    3    0    0  0.10058793392E+03 -0.47007564329E+01  0.33624387432E+02  0.10616321863E+03  0.00000000000E+00 0.  1.
          2    1    6    6  502    0 -0.13069191578E+02  0.43388672417E+03 -0.14802742568E+03  0.45862905701E+03  0.00000000000E+00 0. -1.
          1    1    5    5  503    0 -0.38314253422E+03 -0.14089968577E+03 -0.14328291074E+02  0.40848038252E+03  0.00000000000E+00 0. -1.
         -2    1    5    5    0  503 -0.15078147176E+03 -0.88838361582E+02  0.38994343584E+02  0.17929825863E+03  0.00000000000E+00 0.  1.
         -1    1    6    6    0  502 -0.19094904993E+02  0.27129964789E+02  0.10166339441E+00  0.33176207161E+02  0.00000000000E+00 0.  1.
<mgrwt>
<rscale>  0 0.17332916E+04</rscale>
<asrwt>0</asrwt>
<pdfrwt beam="1">  1        2 0.12609548E+00 0.17332916E+04</pdfrwt>
<pdfrwt beam="2">  1       -2 0.14097984E+00 0.17332916E+04</pdfrwt>
<totfact> 0.11158807E+01</totfact>
</mgrwt>
</event>
<event>
12    1  0.1536832E-007  0.2690443E+04  0.7818608E-02  0.8338112E-01
          2   -1    0    0  501    0  0.00000000000E+00  0.00000000000E+00  0.18648248422E+04  0.18648248422E+04  0.00000000000E+00 0. -1.
         -2   -1    0    0    0  501 -0.00000000000E+00 -0.00000000000E+00 -0.97039746434E+03  0.97039746434E+03  0.00000000000E+00 0.  1.
         23    2    1    2    0    0 -0.31106345928E+03  0.80669441535E+03  0.12641031164E+04  0.15342682530E+04  0.92228129068E+02 0.  0.
        254    2    1    2    0    0  0.31106345928E+03 -0.80669441535E+03 -0.36967573854E+03  0.13009540536E+04  0.89905780813E+03 0.  0.
        -24    2    4    4    0    0 -0.20927430223E+03  0.82402877045E+01 -0.22936040714E+03  0.32063415760E+03  0.79601700591E+02 0.  0.
         24    2    4    4    0    0  0.52033776151E+03 -0.81493470305E+03 -0.14031533139E+03  0.98031989596E+03  0.80428539155E+02 0.  0.
         13    1    3    3    0    0 -0.80497566428E+00 -0.17032246984E+00 -0.14404368471E+01  0.16588712651E+01  0.00000000000E+00 0.  1.
        -13    1    3    3    0    0 -0.31025848361E+03  0.80686473782E+03  0.12655435532E+04  0.15326093817E+04  0.00000000000E+00 0. -1.
          2    1    6    6  502    0  0.34383828490E+03 -0.60119787310E+03 -0.86594939620E+02  0.69797015147E+03  0.00000000000E+00 0. -1.
          3    1    5    5  503    0 -0.17161534108E+03  0.38252604556E+02 -0.17667881702E+03  0.24925988733E+03  0.00000000000E+00 0. -1.
         -4    1    5    5    0  503 -0.37658961149E+02 -0.30012316851E+02 -0.52681590129E+02  0.71374270267E+02  0.00000000000E+00 0.  1.
         -1    1    6    6    0  502  0.17649947661E+03 -0.21373682995E+03 -0.53720391771E+02  0.28234974449E+03  0.00000000000E+00 0.  1.
<mgrwt>
<rscale>  0 0.26904433E+04</rscale>
<asrwt>0</asrwt>
<pdfrwt beam="1">  1        2 0.28689613E+00 0.26904433E+04</pdfrwt>
<pdfrwt beam="2">  1       -2 0.14929192E+00 0.26904433E+04</pdfrwt>
<totfact> 0.21160311E+00</totfact>
</mgrwt>
</event>
<event>
12    1  0.1536832E-007  0.1178845E+04  0.7818608E-02  0.9131578E-01
         -2   -1    0    0    0  501 -0.00000000000E+00  0.00000000000E+00  0.11518110556E+03  0.11518110556E+03  0.00000000000E+00 0.  1.
          2   -1    0    0  501    0  0.00000000000E+00 -0.00000000000E+00 -0.30162840963E+04  0.30162840963E+04  0.00000000000E+00 0. -1.
         23    2    1    2    0    0 -0.35712454620E+02  0.58141651882E+00 -0.63422003310E+01  0.10167945574E+03  0.94988266400E+02 0.  0.
        254    2    1    2    0    0  0.35712454620E+02 -0.58141651882E+00 -0.28947607904E+04  0.30297857461E+04  0.89369229395E+03 0.  0.
        -24    2    4    4    0    0 -0.12182015484E+03 -0.30261197403E+03 -0.45897264808E+03  0.56902698924E+03  0.81985766105E+02 0.  0.
         24    2    4    4    0    0  0.15753260946E+03  0.30203055751E+03 -0.24357881423E+04  0.24607587569E+04  0.78935445667E+02 0.  0.
         11    1    3    3    0    0  0.29339971373E+02 -0.32437471346E+01 -0.19260419811E+02  0.35246554256E+02  0.00000000000E+00 0. -1.
        -11    1    3    3    0    0 -0.65052425993E+02  0.38251636534E+01  0.12918219480E+02  0.66432901480E+02  0.00000000000E+00 0.  1.
          2    1    6    6  502    0  0.60046904167E+02  0.16216834198E+03 -0.99451935810E+03  0.10094419030E+04  0.00000000000E+00 0. -1.
          1    1    5    5  503    0 -0.57664397538E+02 -0.23276121254E+03 -0.30197628576E+03  0.38560684897E+03  0.00000000000E+00 0. -1.
         -2    1    5    5    0  503 -0.64155757306E+02 -0.69850761482E+02 -0.15699636232E+03  0.18342014027E+03  0.00000000000E+00 0.  1.
         -1    1    6    6    0  502  0.97485705297E+02  0.13986221552E+03 -0.14412687842E+04  0.14513168539E+04  0.00000000000E+00 0.  1.
<mgrwt>
<rscale>  0 0.11788451E+04</rscale>
<asrwt>0</asrwt>
<pdfrwt beam="1">  1        2 0.46404366E+00 0.11788451E+04</pdfrwt>
<pdfrwt beam="2">  1       -2 0.17720172E-01 0.11788451E+04</pdfrwt>
<totfact> 0.45060770E+01</totfact>
</mgrwt>
</event>
<event>
12    1  0.1536832E-007  0.2136072E+04  0.7818608E-02  0.8545518E-01
         -2   -1    0    0    0  501 -0.00000000000E+00  0.00000000000E+00  0.80196346698E+03  0.80196346698E+03  0.00000000000E+00 0.  1.
          2   -1    0    0  501    0  0.00000000000E+00 -0.00000000000E+00 -0.14223852234E+04  0.14223852234E+04  0.00000000000E+00 0. -1.
         23    2    1    2    0    0  0.73787566539E+03 -0.93023612160E+02 -0.73678457915E+03  0.10508387230E+04  0.91085760424E+02 0.  0.
        254    2    1    2    0    0 -0.73787566539E+03  0.93023612160E+02  0.11636282278E+03  0.11735099673E+04  0.90026187683E+03 0.  0.
        -24    2    4    4    0    0 -0.55099672543E+03 -0.38872346207E+02  0.48021819261E+03  0.73621297107E+03  0.79319452310E+02 0.  0.
         24    2    4    4    0    0 -0.18687893995E+03  0.13189595837E+03 -0.36385536984E+03  0.43729699625E+03  0.80731968501E+02 0.  0.
         13    1    3    3    0    0  0.89750818582E+02  0.14841794921E+02 -0.11053284486E+03  0.14315375687E+03  0.00000000000E+00 0.  1.
        -13    1    3    3    0    0  0.64812484680E+03 -0.10786540708E+03 -0.62625173429E+03  0.90768496616E+03  0.00000000000E+00 0. -1.
          2    1    6    6  502    0 -0.18833650687E+03  0.13376083283E+03 -0.36682403480E+03  0.43350025689E+03  0.00000000000E+00 0. -1.
          1    1    5    5  503    0 -0.45553664744E+03 -0.61704685929E+02  0.40280072283E+03  0.61120334402E+03  0.00000000000E+00 0. -1.
         -2    1    5    5    0  503 -0.95460077989E+02  0.22832339722E+02  0.77417469785E+02  0.12500962705E+03  0.00000000000E+00 0.  1.
         -1    1    6    6    0  502  0.14575669175E+01 -0.18648744652E+01  0.29686649615E+01  0.37967393568E+01  0.00000000000E+00 0.  1.
<mgrwt>
<rscale>  0 0.21360721E+04</rscale>
<asrwt>0</asrwt>
<pdfrwt beam="1">  1        2 0.21882850E+00 0.21360721E+04</pdfrwt>
<pdfrwt beam="2">  1       -2 0.12337900E+00 0.21360721E+04</pdfrwt>
<totfact> 0.63972056E+00</totfact>
</mgrwt>
</event>
<event>
12    1  0.1536832E-007  0.1362827E+04  0.7818608E-02  0.8981175E-01
          2   -1    0    0  501    0  0.00000000000E+00  0.00000000000E+00  0.50657600824E+03  0.50657600824E+03  0.00000000000E+00 0. -1.
         -2   -1    0    0    0  501 -0.00000000000E+00 -0.00000000000E+00 -0.91659365791E+03  0.91659365791E+03  0.00000000000E+00 0.  1.
         23    2    1    2    0    0  0.16294574312E+02 -0.95240262574E+00  0.27460234254E+03  0.29098041202E+03  0.94851111901E+02 0.  0.
        254    2    1    2    0    0 -0.16294574312E+02  0.95240262574E+00 -0.68461999221E+03  0.11321892541E+04  0.90159944166E+03 0.  0.
        -24    2    4    4    0    0 -0.22877990019E+03  0.33523203309E+03 -0.58268327671E+03  0.71464924048E+03  0.80516937392E+02 0.  0.
         24    2    4    4    0    0  0.21248532588E+03 -0.33427963047E+03 -0.10193671549E+03  0.41754001365E+03  0.83998118888E+02 0.  0.
         11    1    3    3    0    0  0.29164254469E+01  0.43981794901E+02  0.85997733385E+02  0.96635986917E+02  0.00000000000E+00 0.  1.
        -11    1    3    3    0    0  0.13378148865E+02 -0.44934197527E+02  0.18860460916E+03  0.19434442510E+03  0.00000000000E+00 0. -1.
          4    1    6    6  502    0  0.67536015156E+02 -0.59529326227E+02  0.17713045959E+01  0.90044386522E+02  0.00000000000E+00 0. -1.
          3    1    5    5  503    0 -0.17426492205E+03  0.25648692608E+03 -0.49882862181E+03  0.58735321592E+03  0.00000000000E+00 0. -1.
         -4    1    5    5    0  503 -0.54514978140E+02  0.78745107010E+02 -0.83854654900E+02  0.12729602456E+03  0.00000000000E+00 0.  1.
         -3    1    6    6    0  502  0.14494931072E+03 -0.27475030424E+03 -0.10370802009E+03  0.32749562713E+03  0.00000000000E+00 0.  1.
<mgrwt>
<rscale>  0 0.13628270E+04</rscale>
<asrwt>0</asrwt>
<pdfrwt beam="1">  1        2 0.77934770E-01 0.13628270E+04</pdfrwt>
<pdfrwt beam="2">  1       -2 0.14101441E+00 0.13628270E+04</pdfrwt>
<totfact> 0.20845976E+01</totfact>
</mgrwt>
</event>
<event>
12    1  0.1536832E-007  0.2793830E+04  0.7818608E-02  0.8305186E-01
          2   -1    0    0  501    0  0.00000000000E+00  0.00000000000E+00  0.17748456115E+04  0.17748456115E+04  0.00000000000E+00 0. -1.
         -2   -1    0    0    0  501 -0.00000000000E+00 -0.00000000000E+00 -0.10994602313E+04  0.10994602313E+04  0.00000000000E+00 0.  1.
         23    2    1    2    0    0  0.45925434382E+03  0.55765658200E+03 -0.74367571486E+03  0.10407594178E+04  0.90725856990E+02 0.  0.
        254    2    1    2    0    0 -0.45925434382E+03 -0.55765658200E+03  0.14190610951E+04  0.18335464250E+04  0.90898992589E+03 0.  0.
        -24    2    4    4    0    0 -0.34756979665E+03 -0.76542645771E+03  0.78641359759E+03  0.11538065510E+04  0.78363160478E+02 0.  0.
         24    2    4    4    0    0 -0.11168454717E+03  0.20776987570E+03  0.63264749750E+03  0.67973987405E+03  0.78496375369E+02 0.  0.
         13    1    3    3    0    0  0.11273466423E+03  0.10330326925E+03 -0.20253735171E+03  0.25377558747E+03  0.00000000000E+00 0. -1.
        -13    1    3    3    0    0  0.34651967959E+03  0.45435331276E+03 -0.54113836315E+03  0.78698383035E+03  0.00000000000E+00 0.  1.
          2    1    6    6  502    0 -0.11577896706E+02  0.99501268921E+02  0.22689050557E+03  0.24801986156E+03  0.00000000000E+00 0. -1.
          3    1    5    5  503    0 -0.26004427946E+03 -0.51420558791E+03  0.57456633217E+03  0.81373022801E+03  0.00000000000E+00 0. -1.
         -2    1    5    5    0  503 -0.87525517194E+02 -0.25122086979E+03  0.21184726542E+03  0.34007632297E+03  0.00000000000E+00 0.  1.
         -1    1    6    6    0  502 -0.10010665046E+03  0.10826860678E+03  0.40575699194E+03  0.43172001249E+03  0.00000000000E+00 0.  1.
<mgrwt>
<rscale>  0 0.27938305E+04</rscale>
<asrwt>0</asrwt>
<pdfrwt beam="1">  1        2 0.27305317E+00 0.27938305E+04</pdfrwt>
<pdfrwt beam="2">  1       -2 0.16914773E+00 0.27938305E+04</pdfrwt>
<totfact> 0.16769835E+00</totfact>
</mgrwt>
</event>
<event>
12    1  0.1536832E-007  0.1820943E+04  0.7818608E-02  0.8695241E-01
         -3   -1    0    0    0  501 -0.00000000000E+00  0.00000000000E+00  0.29183955487E+04  0.29183955487E+04  0.00000000000E+00 0.  1.
          3   -1    0    0  501    0  0.00000000000E+00 -0.00000000000E+00 -0.28404588520E+03  0.28404588520E+03  0.00000000000E+00 0. -1.
         23    2    1    2    0    0  0.16731643179E+03  0.57442183860E+03  0.15584582161E+04  0.16717196857E+04  0.88878900681E+02 0.  0.
        254    2    1    2    0    0 -0.16731643179E+03 -0.57442183860E+03  0.10758914473E+04  0.15307217482E+04  0.90973151368E+03 0.  0.
        -24    2    4    4    0    0  0.84296428732E+02 -0.40503376728E+03  0.11354530670E+04  0.12110985559E+04  0.79673108332E+02 0.  0.
         24    2    4    4    0    0 -0.25161286053E+03 -0.16938807132E+03 -0.59561619616E+02  0.31962319236E+03  0.81302203390E+02 0.  0.
         13    1    3    3    0    0  0.61167321376E+02  0.97610705314E+02  0.25815187020E+03  0.28268653856E+03  0.00000000000E+00 0. -1.
        -13    1    3    3    0    0  0.10614911042E+03  0.47681113329E+03  0.13003063459E+04  0.13890331471E+04  0.00000000000E+00 0.  1.
          4    1    6    6  502    0 -0.73447768907E+02 -0.95688367859E+02 -0.13411506519E+02  0.12137012403E+03  0.00000000000E+00 0. -1.
          1    1    5    5  503    0  0.62175904568E+01 -0.59434601837E+02  0.25759974540E+03  0.26444046429E+03  0.00000000000E+00 0. -1.
         -2    1    5    5    0  503  0.78078838275E+02 -0.34559916545E+03  0.87785332156E+03  0.94665809156E+03  0.00000000000E+00 0.  1.
         -3    1    6    6    0  502 -0.17816509162E+03 -0.73699703458E+02 -0.46150113098E+02  0.19825306833E+03  0.00000000000E+00 0.  1.
<mgrwt>
<rscale>  0 0.18209429E+04</rscale>
<asrwt>0</asrwt>
<pdfrwt beam="1">  1        3 0.43699369E-01 0.18209429E+04</pdfrwt>
<pdfrwt beam="2">  1       -3 0.44898391E+00 0.18209429E+04</pdfrwt>
<totfact> 0.73740310E-02</totfact>
</mgrwt>
</event>
<event>
12    1  0.1536832E-007  0.1634671E+04  0.7818608E-02  0.8799527E-01
         -2   -1    0    0    0  501 -0.00000000000E+00  0.00000000000E+00  0.91307145748E+03  0.91307145748E+03  0.00000000000E+00 0.  1.
          2   -1    0    0  501    0  0.00000000000E+00 -0.00000000000E+00 -0.73163732134E+03  0.73163732134E+03  0.00000000000E+00 0. -1.
         23    2    1    2    0    0  0.28694288549E+03  0.47586735442E+03  0.12222772652E+03  0.57629276431E+03  0.91584794184E+02 0.  0.
        254    2    1    2    0    0 -0.28694288549E+03 -0.47586735442E+03  0.59206409610E+02  0.10684160145E+04  0.91061595779E+03 0.  0.
        -24    2    4    4    0    0 -0.72902999799E+02 -0.54852111285E+03  0.37405221171E+03  0.67264045878E+03  0.79623307360E+02 0.  0.
         24    2    4    4    0    0 -0.21403988569E+03  0.72653758430E+02 -0.31484580210E+03  0.39577555573E+03  0.80117227472E+02 0.  0.
         11    1    3    3    0    0  0.11679250688E+03  0.22003254899E+03  0.10400725000E+02  0.24932506363E+03  0.00000000000E+00 0. -1.
        -11    1    3    3    0    0  0.17015037861E+03  0.25583480544E+03  0.11182700152E+03  0.32696770067E+03  0.00000000000E+00 0.  1.
          4    1    6    6  502    0 -0.20868399283E+03  0.53330668706E+02 -0.30513119918E+03  0.37349460210E+03  0.00000000000E+00 0. -1.
          3    1    5    5  503    0 -0.63459825259E+02 -0.36421066608E+03  0.28990394883E+03  0.46980938503E+03  0.00000000000E+00 0. -1.
         -4    1    5    5    0  503 -0.94431745402E+01 -0.18431044677E+03  0.84148262877E+02  0.20283107375E+03  0.00000000000E+00 0.  1.
         -3    1    6    6    0  502 -0.53558928606E+01  0.19323089724E+02 -0.97146029179E+01  0.22280953630E+02  0.00000000000E+00 0.  1.
<mgrwt>
<rscale>  0 0.16346708E+04</rscale>
<asrwt>0</asrwt>
<pdfrwt beam="1">  1        2 0.11255959E+00 0.16346708E+04</pdfrwt>
<pdfrwt beam="2">  1       -2 0.14047253E+00 0.16346708E+04</pdfrwt>
<totfact> 0.13179457E+01</totfact>
</mgrwt>
</event>
<event>
12    1  0.1536832E-007  0.2223352E+04  0.7818608E-02  0.8508771E-01
         -1   -1    0    0    0  501 -0.00000000000E+00  0.00000000000E+00  0.17238546768E+04  0.17238546768E+04  0.00000000000E+00 0.  1.
          1   -1    0    0  501    0  0.00000000000E+00 -0.00000000000E+00 -0.71689523242E+03  0.71689523242E+03  0.00000000000E+00 0. -1.
         23    2    1    2    0    0  0.92201161365E+02  0.18962260452E+03 -0.56890019081E+03  0.61362534521E+03  0.91819665004E+02 0.  0.
        254    2    1    2    0    0 -0.92201161365E+02 -0.18962260452E+03  0.15758596352E+04  0.18271245640E+04  0.90032927103E+03 0.  0.
        -24    2    4    4    0    0 -0.19984914500E+03 -0.51670398977E+03  0.11021546547E+04  0.12360571678E+04  0.78547726841E+02 0.  0.
         24    2    4    4    0    0  0.10764798363E+03  0.32708138525E+03  0.47370498045E+03  0.59106739618E+03  0.79962099535E+02 0.  0.
         11    1    3    3    0    0  0.34273766440E+02  0.40166715025E+01 -0.66668903435E+02  0.75070416285E+02  0.00000000000E+00 0.  1.
        -11    1    3    3    0    0  0.57927394925E+02  0.18560593302E+03 -0.50223128737E+03  0.53855492893E+03  0.00000000000E+00 0. -1.
          2    1    6    6  502    0 -0.12260572911E+02  0.31097429015E+02  0.56801094570E+02  0.65907026058E+02  0.00000000000E+00 0. -1.
          1    1    5    5  503    0 -0.60215734835E+02 -0.16692453884E+03  0.43742080600E+03  0.47204522867E+03  0.00000000000E+00 0. -1.
         -2    1    5    5    0  503 -0.13963341016E+03 -0.34977945092E+03  0.66473384872E+03  0.76401193914E+03  0.00000000000E+00 0.  1.
         -1    1    6    6    0  502  0.11990855654E+03  0.29598395623E+03  0.41690388588E+03  0.52516037012E+03  0.00000000000E+00 0.  1.
<mgrwt>
<rscale>  0 0.22233517E+04</rscale>
<asrwt>0</asrwt>
<pdfrwt beam="1">  1        1 0.11029157E+00 0.22233517E+04</pdfrwt>
<pdfrwt beam="2">  1       -1 0.26520841E+00 0.22233517E+04</pdfrwt>
<totfact> 0.13266276E+00</totfact>
</mgrwt>
</event>
<event>
12    1  0.1536832E-007  0.1988012E+04  0.7818608E-02  0.8612246E-01
         -2   -1    0    0    0  501 -0.00000000000E+00  0.00000000000E+00  0.99610109823E+03  0.99610109823E+03  0.00000000000E+00 0.  1.
          2   -1    0    0  501    0  0.00000000000E+00 -0.00000000000E+00 -0.99191538748E+03  0.99191538748E+03  0.00000000000E+00 0. -1.
         23    2    1    2    0    0  0.76676282913E+03 -0.12868416428E+03  0.14821704481E+03  0.79672273618E+03  0.91181005171E+02 0.  0.
        254    2    1    2    0    0 -0.76676282913E+03  0.12868416428E+03 -0.14403133405E+03  0.11912937495E+04  0.89103923718E+03 0.  0.
        -24    2    4    4    0    0 -0.89941356445E+03 -0.93060563539E+02 -0.15187944693E+03  0.92050229577E+03  0.81560294946E+02 0.  0.
         24    2    4    4    0    0  0.13265073532E+03  0.22174472782E+03  0.78481128793E+01  0.27079145376E+03  0.80619331787E+02 0.  0.
         11    1    3    3    0    0  0.72427777896E+02 -0.28681422381E+02  0.37799081149E+02  0.86586243344E+02  0.00000000000E+00 0. -1.
        -11    1    3    3    0    0  0.69433505124E+03 -0.10000274190E+03  0.11041796366E+03  0.71013649284E+03  0.00000000000E+00 0.  1.
          4    1    6    6  502    0  0.10441294604E+03  0.21767262347E+03  0.13131443682E+02  0.24177648588E+03  0.00000000000E+00 0. -1.
          3    1    5    5  503    0 -0.45513956845E+03 -0.79226637804E+02 -0.10306511367E+03  0.47334057988E+03  0.00000000000E+00 0. -1.
         -4    1    5    5    0  503 -0.44427399600E+03 -0.13833925735E+02 -0.48814333258E+02  0.44716171588E+03  0.00000000000E+00 0.  1.
         -3    1    6    6    0  502  0.28237789273E+02  0.40721043493E+01 -0.52833308026E+01  0.29014967882E+02  0.00000000000E+00 0.  1.
<mgrwt>
<rscale>  0 0.19880121E+04</rscale>
<asrwt>0</asrwt>
<pdfrwt beam="1">  1        2 0.15260237E+00 0.19880121E+04</pdfrwt>
<pdfrwt beam="2">  1       -2 0.15324632E+00 0.19880121E+04</pdfrwt>
<totfact> 0.67085660E+00</totfact>
</mgrwt>
</event>
<event>
12    1  0.1536832E-007  0.1341103E+04  0.7818608E-02  0.8997591E-01
          2   -1    0    0  501    0  0.00000000000E+00  0.00000000000E+00  0.78735625605E+03  0.78735625605E+03  0.00000000000E+00 0. -1.
         -2   -1    0    0    0  501 -0.00000000000E+00 -0.00000000000E+00 -0.57107439357E+03  0.57107439357E+03  0.00000000000E+00 0.  1.
         23    2    1    2    0    0  0.30643650104E+03 -0.15783883136E+03  0.15940966984E+03  0.39067716936E+03  0.91655779775E+02 0.  0.
        254    2    1    2    0    0 -0.30643650104E+03  0.15783883136E+03  0.56872192638E+02  0.96775348026E+03  0.90249428054E+03 0.  0.
        -24    2    4    4    0    0 -0.45035710946E+03 -0.24961110253E+03 -0.20775931952E+02  0.52154815184E+03  0.80334343775E+02 0.  0.
         24    2    4    4    0    0  0.14392060842E+03  0.40744993389E+03  0.77648124590E+02  0.44620532842E+03  0.79632742675E+02 0.  0.
         13    1    3    3    0    0  0.27849426599E+03 -0.16911212192E+03  0.13868204178E+03  0.35410545701E+03  0.00000000000E+00 0. -1.
        -13    1    3    3    0    0  0.27942235049E+02  0.11273290557E+02  0.20727628059E+02  0.36571712353E+02  0.00000000000E+00 0.  1.
          4    1    6    6  502    0  0.13771805271E+03  0.34267597725E+03  0.89644600784E+02  0.38003847420E+03  0.00000000000E+00 0. -1.
          3    1    5    5  503    0 -0.25113623392E+03 -0.15804886730E+03 -0.48078739234E+02  0.30060009582E+03  0.00000000000E+00 0. -1.
         -4    1    5    5    0  503 -0.19922087554E+03 -0.91562235224E+02  0.27302807282E+02  0.22094805601E+03  0.00000000000E+00 0.  1.
         -3    1    6    6    0  502  0.62025557135E+01  0.64773956643E+02 -0.11996476194E+02  0.66166854222E+02  0.00000000000E+00 0.  1.
<mgrwt>
<rscale>  0 0.13411025E+04</rscale>
<asrwt>0</asrwt>
<pdfrwt beam="1">  1        2 0.12113173E+00 0.13411025E+04</pdfrwt>
<pdfrwt beam="2">  1       -2 0.87857599E-01 0.13411025E+04</pdfrwt>
<totfact> 0.38428771E+01</totfact>
</mgrwt>
</event>
<event>
12    1  0.1536832E-007  0.2183116E+04  0.7818608E-02  0.8525489E-01
          2   -1    0    0  501    0  0.00000000000E+00  0.00000000000E+00  0.13867093774E+04  0.13867093774E+04  0.00000000000E+00 0.  1.
         -2   -1    0    0    0  501 -0.00000000000E+00 -0.00000000000E+00 -0.85922729702E+03  0.85922729702E+03  0.00000000000E+00 0. -1.
         23    2    1    2    0    0  0.61474220898E+02  0.82808842300E+03 -0.10552864972E+03  0.84614358962E+03  0.12374636238E+03 0.  0.
        254    2    1    2    0    0 -0.61474220898E+02 -0.82808842300E+03  0.63301073010E+03  0.13997930848E+04  0.93231356298E+03 0.  0.
        -24    2    4    4    0    0 -0.10044767563E+02 -0.82672049602E+03  0.74329799436E+02  0.83402232660E+03  0.80626585557E+02 0.  0.
         24    2    4    4    0    0 -0.51429453335E+02 -0.13679269802E+01  0.55868093066E+03  0.56577075820E+03  0.72974712445E+02 0.  0.
         13    1    3    3    0    0  0.48290534576E+02  0.58622494905E+03 -0.13088811473E+03  0.60259718320E+03  0.00000000000E+00 0. -1.
        -13    1    3    3    0    0  0.13183686322E+02  0.24186347394E+03  0.25359465013E+02  0.24354640642E+03  0.00000000000E+00 0.  1.
          2    1    6    6  502    0 -0.14536099395E+02  0.33775833873E+02  0.18371693259E+03  0.18736065878E+03  0.00000000000E+00 0. -1.
          3    1    5    5  503    0  0.33435696926E+02 -0.25570576205E+03  0.30496487353E+02  0.25967945301E+03  0.00000000000E+00 0. -1.
         -4    1    5    5    0  503 -0.43480464489E+02 -0.57101473397E+03  0.43833312083E+02  0.57434287360E+03  0.00000000000E+00 0.  1.
         -1    1    6    6    0  502 -0.36893353940E+02 -0.35143760853E+02  0.37496399807E+03  0.37841009942E+03  0.00000000000E+00 0.  1.
<mgrwt>
<rscale>  0 0.21831157E+04</rscale>
<asrwt>0</asrwt>
<pdfrwt beam="1">  1        2 0.21333990E+00 0.21831157E+04</pdfrwt>
<pdfrwt beam="2">  1       -2 0.13218882E+00 0.21831157E+04</pdfrwt>
<totfact> 0.56122161E+00</totfact>
</mgrwt>
</event>
<event>
12    1  0.1536832E-007  0.2039657E+04  0.7818608E-02  0.8588301E-01
          2   -1    0    0  501    0  0.00000000000E+00  0.00000000000E+00  0.12454124052E+04  0.12454124052E+04  0.00000000000E+00 0.  1.
         -2   -1    0    0    0  501 -0.00000000000E+00 -0.00000000000E+00 -0.83510492159E+03  0.83510492159E+03  0.00000000000E+00 0. -1.
         23    2    1    2    0    0 -0.12567013575E+03  0.39793237249E+02  0.99331131440E+03  0.10058908944E+04  0.88162573614E+02 0.  0.
        254    2    1    2    0    0  0.12567013575E+03 -0.39793237249E+02 -0.58300383078E+03  0.10746264324E+04  0.89305767883E+03 0.  0.
        -24    2    4    4    0    0  0.41900299286E+03 -0.17947782796E+02 -0.12836814882E+02  0.42842260585E+03  0.86576639206E+02 0.  0.
         24    2    4    4    0    0 -0.29333285711E+03 -0.21845454453E+02 -0.57016701590E+03  0.64620382653E+03  0.77250051563E+02 0.  0.
         13    1    3    3    0    0 -0.70230360324E+02  0.63777103842E+02  0.50252023280E+03  0.51139652606E+03  0.00000000000E+00 0.  1.
        -13    1    3    3    0    0 -0.55439775428E+02 -0.23983866593E+02  0.49079108160E+03  0.49449436835E+03  0.00000000000E+00 0. -1.
          2    1    6    6  502    0 -0.36162782854E+02 -0.19462730565E+02 -0.13086206898E+03  0.13715475144E+03  0.00000000000E+00 0. -1.
          3    1    5    5  503    0  0.24776723727E+03 -0.28160764634E+02  0.31236358548E+02  0.25131124651E+03  0.00000000000E+00 0. -1.
         -4    1    5    5    0  503  0.17123575559E+03  0.10212981838E+02 -0.44073173430E+02  0.17711135934E+03  0.00000000000E+00 0.  1.
         -1    1    6    6    0  502 -0.25717007425E+03 -0.23827238880E+01 -0.43930494692E+03  0.50904907509E+03  0.00000000000E+00 0.  1.
<mgrwt>
<rscale>  0 0.20396569E+04</rscale>
<asrwt>0</asrwt>
<pdfrwt beam="1">  1        2 0.19160191E+00 0.20396569E+04</pdfrwt>
<pdfrwt beam="2">  1       -2 0.12847768E+00 0.20396569E+04</pdfrwt>
<totfact> 0.73763405E+00</totfact>
</mgrwt>
</event>
<event>
12    1  0.1536832E-007  0.2014361E+04  0.7818608E-02  0.8599936E-01
         -2   -1    0    0    0  501 -0.00000000000E+00  0.00000000000E+00  0.38930474117E+03  0.38930474117E+03  0.00000000000E+00 0.  1.
          2   -1    0    0  501    0  0.00000000000E+00 -0.00000000000E+00 -0.26057034399E+04  0.26057034399E+04  0.00000000000E+00 0. -1.
         23    2    1    2    0    0  0.48992095428E+03  0.17215160218E+03  0.20171228963E+02  0.52771665315E+03  0.91756590814E+02 0.  0.
        254    2    1    2    0    0 -0.48992095428E+03 -0.17215160218E+03 -0.22365699277E+04  0.24672915280E+04  0.90311888851E+03 0.  0.
        -24    2    4    4    0    0  0.39913882412E+02 -0.40370689078E+03 -0.58945823958E+03  0.71983658771E+03  0.78302778600E+02 0.  0.
         24    2    4    4    0    0 -0.52983483669E+03  0.23155528860E+03 -0.16471116882E+04  0.17474549403E+04  0.79240451312E+02 0.  0.
         13    1    3    3    0    0  0.16861167639E+03  0.20783401497E+02  0.29425799541E+02  0.17241729864E+03  0.00000000000E+00 0. -1.
        -13    1    3    3    0    0  0.32130927789E+03  0.15136820068E+03 -0.92545705771E+01  0.35529935451E+03  0.00000000000E+00 0.  1.
          2    1    6    6  502    0 -0.89565770547E+02  0.53855901473E+02 -0.22274971216E+03  0.24604861236E+03  0.00000000000E+00 0. -1.
          3    1    5    5  503    0  0.23170753301E+02 -0.61802404856E+02 -0.59072785246E+02  0.88577734286E+02  0.00000000000E+00 0. -1.
         -4    1    5    5    0  503  0.16743129110E+02 -0.34190448592E+03 -0.53038545433E+03  0.63125885343E+03  0.00000000000E+00 0.  1.
         -1    1    6    6    0  502 -0.44026906614E+03  0.17769938712E+03 -0.14243619760E+04  0.15014063279E+04  0.00000000000E+00 0.  1.
<mgrwt>
<rscale>  0 0.20143611E+04</rscale>
<asrwt>0</asrwt>
<pdfrwt beam="1">  1        2 0.40087743E+00 0.20143611E+04</pdfrwt>
<pdfrwt beam="2">  1       -2 0.59893040E-01 0.20143611E+04</pdfrwt>
<totfact> 0.72911371E+00</totfact>
</mgrwt>
</event>
<event>
12    1  0.1536832E-007  0.1713865E+04  0.7818608E-02  0.8753496E-01
         -1   -1    0    0    0  501 -0.00000000000E+00  0.00000000000E+00  0.29353573956E+03  0.29353573956E+03  0.00000000000E+00 0.  1.
          1   -1    0    0  501    0  0.00000000000E+00 -0.00000000000E+00 -0.25016838420E+04  0.25016838420E+04  0.00000000000E+00 0. -1.
         23    2    1    2    0    0  0.53666502143E+03  0.52530370945E+02 -0.31581110393E+03  0.63109094718E+03  0.88149561202E+02 0.  0.
        254    2    1    2    0    0 -0.53666502143E+03 -0.52530370945E+02 -0.18923369985E+04  0.21641286344E+04  0.90096872593E+03 0.  0.
        -24    2    4    4    0    0 -0.13948571497E+03 -0.35692268449E+03 -0.30024882830E+03  0.49337813721E+03  0.80140875968E+02 0.  0.
         24    2    4    4    0    0 -0.39717930646E+03  0.30439231355E+03 -0.15920881702E+04  0.16707504972E+04  0.79097408369E+02 0.  0.
         13    1    3    3    0    0  0.52550677232E+03  0.39236392283E+02 -0.31450480025E+03  0.61368569448E+03  0.00000000000E+00 0.  1.
        -13    1    3    3    0    0  0.11158249118E+02  0.13293978662E+02 -0.13063036751E+01  0.17405252694E+02  0.00000000000E+00 0. -1.
          4    1    6    6  502    0 -0.24380489646E+03  0.23250184439E+03 -0.10303138926E+04  0.10839947659E+04  0.00000000000E+00 0. -1.
          3    1    5    5  503    0 -0.11162361417E+03 -0.30702444501E+03 -0.21622855458E+03  0.39176348591E+03  0.00000000000E+00 0. -1.
         -4    1    5    5    0  503 -0.27862100807E+02 -0.49898239477E+02 -0.84020273719E+02  0.10161465131E+03  0.00000000000E+00 0.  1.
         -3    1    6    6    0  502 -0.15337441000E+03  0.71890469152E+02 -0.56177427764E+03  0.58675573131E+03  0.00000000000E+00 0.  1.
<mgrwt>
<rscale>  0 0.17138654E+04</rscale>
<asrwt>0</asrwt>
<pdfrwt beam="1">  1        1 0.38487444E+00 0.17138654E+04</pdfrwt>
<pdfrwt beam="2">  1       -1 0.45159345E-01 0.17138654E+04</pdfrwt>
<totfact> 0.62571850E+00</totfact>
</mgrwt>
</event>
<event>
12    1  0.1536832E-007  0.1962629E+04  0.7818608E-02  0.8624295E-01
         -2   -1    0    0    0  501 -0.00000000000E+00  0.00000000000E+00  0.15898155906E+04  0.15898155906E+04  0.00000000000E+00 0.  1.
          2   -1    0    0  501    0  0.00000000000E+00 -0.00000000000E+00 -0.60571660471E+03  0.60571660471E+03  0.00000000000E+00 0. -1.
         23    2    1    2    0    0  0.57732473593E+03  0.51219457351E+03  0.22052877757E+03  0.80717048048E+03  0.85112343282E+02 0.  0.
        254    2    1    2    0    0 -0.57732473593E+03 -0.51219457351E+03  0.76357020828E+03  0.13883617148E+04  0.86536793115E+03 0.  0.
        -24    2    4    4    0    0 -0.14761794671E+03 -0.55980942346E+03  0.10077032977E+03  0.59306014669E+03  0.79925148988E+02 0.  0.
         24    2    4    4    0    0 -0.42970678922E+03  0.47614849951E+02  0.66279987851E+03  0.79530156811E+03  0.79283079142E+02 0.  0.
         13    1    3    3    0    0  0.15172102358E+03  0.90767920220E+02  0.35858281887E+02  0.18039928137E+03  0.00000000000E+00 0.  1.
        -13    1    3    3    0    0  0.42560371235E+03  0.42142665329E+03  0.18467049568E+03  0.62677119912E+03  0.00000000000E+00 0. -1.
          4    1    6    6  502    0 -0.15442871516E+03  0.81325688445E+01  0.17285101068E+03  0.23193067636E+03  0.00000000000E+00 0. -1.
          3    1    5    5  503    0 -0.69881058226E+01 -0.68366964156E+02 -0.11577993876E+02  0.69691644786E+02  0.00000000000E+00 0. -1.
         -4    1    5    5    0  503 -0.14062984089E+03 -0.49144245930E+03  0.11234832365E+03  0.52336850190E+03  0.00000000000E+00 0.  1.
         -3    1    6    6    0  502 -0.27527807406E+03  0.39482281106E+02  0.48994886783E+03  0.56337089175E+03  0.00000000000E+00 0.  1.
<mgrwt>
<rscale>  0 0.19626285E+04</rscale>
<asrwt>0</asrwt>
<pdfrwt beam="1">  1        2 0.93187171E-01 0.19626285E+04</pdfrwt>
<pdfrwt beam="2">  1       -2 0.24458701E+00 0.19626285E+04</pdfrwt>
<totfact> 0.31695647E+00</totfact>
</mgrwt>
</event>
<event>
12    1  0.1536832E-007  0.2247615E+04  0.7818608E-02  0.8498867E-01
         -2   -1    0    0    0  501 -0.00000000000E+00  0.00000000000E+00  0.12893962807E+04  0.12893962807E+04  0.00000000000E+00 0.  1.
          2   -1    0    0  501    0  0.00000000000E+00 -0.00000000000E+00 -0.97948445757E+03  0.97948445757E+03  0.00000000000E+00 0. -1.
         23    2    1    2    0    0 -0.76435186513E+03 -0.38311619998E+03  0.52771811570E+03  0.10090612020E+04  0.93307573863E+02 0.  0.
        254    2    1    2    0    0  0.76435186513E+03  0.38311619998E+03 -0.21780629258E+03  0.12598195363E+04  0.89927408861E+03 0.  0.
        -24    2    4    4    0    0  0.61631256347E+03  0.62356646516E+02  0.24568220852E+03  0.67103715014E+03  0.78750123970E+02 0.  0.
         24    2    4    4    0    0  0.14803930166E+03  0.32075955346E+03 -0.46348850110E+03  0.58878238612E+03  0.83909365259E+02 0.  0.
         13    1    3    3    0    0 -0.48355976313E+03 -0.21222430740E+03  0.36761990334E+03  0.64343888171E+03  0.00000000000E+00 0. -1.
        -13    1    3    3    0    0 -0.28079210200E+03 -0.17089189258E+03  0.16009821236E+03  0.36562232029E+03  0.00000000000E+00 0.  1.
          4    1    6    6  502    0  0.11620868885E+03  0.30633399947E+03 -0.42759930582E+03  0.53868928422E+03  0.00000000000E+00 0. -1.
          1    1    5    5  503    0  0.36327765941E+03  0.21576016488E+02  0.18225723339E+03  0.40700599680E+03  0.00000000000E+00 0. -1.
         -2    1    5    5    0  503  0.25303490407E+03  0.40780630028E+02  0.63424975128E+02  0.26403115334E+03  0.00000000000E+00 0.  1.
         -3    1    6    6    0  502  0.31830612811E+02  0.14425553987E+02 -0.35889195286E+02  0.50093101901E+02  0.00000000000E+00 0.  1.
<mgrwt>
<rscale>  0 0.22476153E+04</rscale>
<asrwt>0</asrwt>
<pdfrwt beam="1">  1        2 0.15068992E+00 0.22476153E+04</pdfrwt>
<pdfrwt beam="2">  1       -2 0.19836866E+00 0.22476153E+04</pdfrwt>
<totfact> 0.32227653E+00</totfact>
</mgrwt>
</event>
<event>
12    1  0.1536832E-007  0.1654892E+04  0.7818608E-02  0.8787517E-01
         -2   -1    0    0    0  501 -0.00000000000E+00  0.00000000000E+00  0.80165520891E+03  0.80165520891E+03  0.00000000000E+00 0.  1.
          2   -1    0    0  501    0  0.00000000000E+00 -0.00000000000E+00 -0.85406689308E+03  0.85406689308E+03  0.00000000000E+00 0. -1.
         23    2    1    2    0    0  0.21432007128E+03  0.39427229537E+03 -0.38757306068E+03  0.59996182299E+03  0.91419778148E+02 0.  0.
        254    2    1    2    0    0 -0.21432007128E+03 -0.39427229537E+03  0.33516137651E+03  0.10557602790E+04  0.89493736237E+03 0.  0.
        -24    2    4    4    0    0  0.33637014397E+03 -0.14646503718E+03  0.35399013705E+02  0.37681157997E+03  0.78338979836E+02 0.  0.
         24    2    4    4    0    0 -0.55069021525E+03 -0.24780725819E+03  0.29976236280E+03  0.67894869903E+03  0.80285187770E+02 0.  0.
         13    1    3    3    0    0  0.20053280097E+03  0.35138530474E+03 -0.30783101155E+03  0.50837483054E+03  0.00000000000E+00 0. -1.
        -13    1    3    3    0    0  0.13787270312E+02  0.42886990628E+02 -0.79742049132E+02  0.91586992458E+02  0.00000000000E+00 0.  1.
          2    1    6    6  502    0 -0.18484286813E+03 -0.87526912247E+02  0.14449963895E+03  0.25041563833E+03  0.00000000000E+00 0. -1.
          1    1    5    5  503    0  0.93700579290E+02 -0.80117688662E+02  0.18567478046E+02  0.12467314802E+03  0.00000000000E+00 0. -1.
         -2    1    5    5    0  503  0.24266956468E+03 -0.66347348520E+02  0.16831535659E+02  0.25213843196E+03  0.00000000000E+00 0.  1.
         -1    1    6    6    0  502 -0.36584734711E+03 -0.16028034594E+03  0.15526272386E+03  0.42853306069E+03  0.00000000000E+00 0.  1.
<mgrwt>
<rscale>  0 0.16548924E+04</rscale>
<asrwt>0</asrwt>
<pdfrwt beam="1">  1        2 0.13139491E+00 0.16548924E+04</pdfrwt>
<pdfrwt beam="2">  1       -2 0.12333157E+00 0.16548924E+04</pdfrwt>
<totfact> 0.14930976E+01</totfact>
</mgrwt>
</event>
<event>
12    1  0.1536832E-007  0.1730686E+04  0.7818608E-02  0.8744054E-01
          2   -1    0    0  501    0  0.00000000000E+00  0.00000000000E+00  0.16413639244E+04  0.16413639244E+04  0.00000000000E+00 0. -1.
         -2   -1    0    0    0  501 -0.00000000000E+00 -0.00000000000E+00 -0.45621733888E+03  0.45621733888E+03  0.00000000000E+00 0.  1.
         23    2    1    2    0    0 -0.19049169795E+03 -0.34435888502E+03 -0.15815971105E+03  0.43362077778E+03  0.90235004519E+02 0.  0.
        254    2    1    2    0    0  0.19049169795E+03  0.34435888502E+03  0.13433062966E+04  0.16639604855E+04  0.89967914404E+03 0.  0.
        -24    2    4    4    0    0  0.94884558353E+02  0.64183000435E+03  0.81179880447E+03  0.10423429761E+04  0.80701592763E+02 0.  0.
         24    2    4    4    0    0  0.95607139593E+02 -0.29747111933E+03  0.53150749210E+03  0.62161750936E+03  0.79235861899E+02 0.  0.
         13    1    3    3    0    0 -0.10540599054E+03 -0.18542171704E+03 -0.37162097275E+02  0.21650094103E+03  0.00000000000E+00 0. -1.
        -13    1    3    3    0    0 -0.85085707402E+02 -0.15893716798E+03 -0.12099761378E+03  0.21711983675E+03  0.00000000000E+00 0.  1.
          2    1    6    6  502    0  0.18811525556E+02 -0.40328408997E+02  0.14046379154E+03  0.14734425947E+03  0.00000000000E+00 0. -1.
          1    1    5    5  503    0  0.48867788228E+02  0.33238120384E+03  0.48442104947E+03  0.58951596973E+03  0.00000000000E+00 0. -1.
         -2    1    5    5    0  503  0.46016770124E+02  0.30944880051E+03  0.32737775500E+03  0.45282700642E+03  0.00000000000E+00 0.  1.
         -1    1    6    6    0  502  0.76795614037E+02 -0.25714271033E+03  0.39104370056E+03  0.47427324989E+03  0.00000000000E+00 0.  1.
<mgrwt>
<rscale>  0 0.17306862E+04</rscale>
<asrwt>0</asrwt>
<pdfrwt beam="1">  1        2 0.25251752E+00 0.17306862E+04</pdfrwt>
<pdfrwt beam="2">  1       -2 0.70187284E-01 0.17306862E+04</pdfrwt>
<totfact> 0.18547641E+01</totfact>
</mgrwt>
</event>
<event>
12    1  0.1536832E-007  0.2929546E+04  0.7818608E-02  0.8264140E-01
         -2   -1    0    0    0  501 -0.00000000000E+00  0.00000000000E+00  0.78831185758E+03  0.78831185758E+03  0.00000000000E+00 0.  1.
          2   -1    0    0  501    0  0.00000000000E+00 -0.00000000000E+00 -0.27217153492E+04  0.27217153492E+04  0.00000000000E+00 0. -1.
         23    2    1    2    0    0 -0.88317891161E+03 -0.15293420433E+03 -0.20036300551E+04  0.21967092205E+04  0.87201724307E+02 0.  0.
        254    2    1    2    0    0  0.88317891161E+03  0.15293420433E+03  0.70226563549E+02  0.13133179863E+04  0.95732883694E+03 0.  0.
        -24    2    4    4    0    0  0.73374916418E+03 -0.31665625133E+03  0.11740302781E+03  0.81156814434E+03  0.78742393512E+02 0.  0.
         24    2    4    4    0    0  0.14942974744E+03  0.46959045566E+03 -0.47176464260E+02  0.50174984192E+03  0.81748636832E+02 0.  0.
         13    1    3    3    0    0 -0.71153312084E+02 -0.27582970132E+02 -0.12827714794E+03  0.14926031202E+03  0.00000000000E+00 0.  1.
        -13    1    3    3    0    0 -0.81202559953E+03 -0.12535123420E+03 -0.18753529072E+04  0.20474489085E+04  0.00000000000E+00 0. -1.
          2    1    6    6  502    0  0.48211327875E+02  0.26775561462E+03 -0.53406263356E+01  0.27211380631E+03  0.00000000000E+00 0. -1.
          1    1    5    5  503    0  0.69516203218E+03 -0.31784943777E+03  0.11358423157E+03  0.77277415442E+03  0.00000000000E+00 0. -1.
         -2    1    5    5    0  503  0.38587131994E+02  0.11931864383E+01  0.38187962433E+01  0.38793989923E+02  0.00000000000E+00 0.  1.
         -1    1    6    6    0  502  0.10121841956E+03  0.20183484104E+03 -0.41835837924E+02  0.22963603561E+03  0.00000000000E+00 0.  1.
<mgrwt>
<rscale>  0 0.29295464E+04</rscale>
<asrwt>0</asrwt>
<pdfrwt beam="1">  1        2 0.41872544E+00 0.29295464E+04</pdfrwt>
<pdfrwt beam="2">  1       -2 0.12127875E+00 0.29295464E+04</pdfrwt>
<totfact> 0.11471966E+00</totfact>
</mgrwt>
</event>
<event>
12    1  0.1536832E-007  0.1777146E+04  0.7818608E-02  0.8718548E-01
         -2   -1    0    0    0  501 -0.00000000000E+00  0.00000000000E+00  0.14240311364E+04  0.14240311364E+04  0.00000000000E+00 0.  1.
          2   -1    0    0  501    0  0.00000000000E+00 -0.00000000000E+00 -0.55445558690E+03  0.55445558690E+03  0.00000000000E+00 0. -1.
         23    2    1    2    0    0  0.70672603913E+02 -0.26800609053E+03  0.98479264986E+03  0.10272927124E+04  0.93230211394E+02 0.  0.
        254    2    1    2    0    0 -0.70672603913E+02  0.26800609053E+03 -0.11521710041E+03  0.95119401081E+03  0.90259247973E+03 0.  0.
        -24    2    4    4    0    0  0.18239797023E+03  0.53278654491E+03 -0.87369279037E+02  0.57538681345E+03  0.79410781299E+02 0.  0.
         24    2    4    4    0    0 -0.25307057415E+03 -0.26478045438E+03 -0.27847821372E+02  0.37580719736E+03  0.79386043566E+02 0.  0.
         13    1    3    3    0    0  0.93519054679E+02 -0.20947865441E+03  0.75737019006E+03  0.79135120208E+03  0.00000000000E+00 0.  1.
        -13    1    3    3    0    0 -0.22846450766E+02 -0.58527436126E+02  0.22742245980E+03  0.23594151037E+03  0.00000000000E+00 0. -1.
          4    1    6    6  502    0 -0.74572736222E+02 -0.13414528324E+03 -0.15670333112E+02  0.15427770203E+03  0.00000000000E+00 0. -1.
          3    1    5    5  503    0  0.14120310643E+03  0.45750367502E+03 -0.48728023297E+02  0.48127159710E+03  0.00000000000E+00 0. -1.
         -4    1    5    5    0  503  0.41194863801E+02  0.75282869894E+02 -0.38641255740E+02  0.94115216348E+02  0.00000000000E+00 0.  1.
         -3    1    6    6    0  502 -0.17849783792E+03 -0.13063517114E+03 -0.12177488260E+02  0.22152949533E+03  0.00000000000E+00 0.  1.
<mgrwt>
<rscale>  0 0.17771460E+04</rscale>
<asrwt>0</asrwt>
<pdfrwt beam="1">  1        2 0.85300860E-01 0.17771460E+04</pdfrwt>
<pdfrwt beam="2">  1       -2 0.21908171E+00 0.17771460E+04</pdfrwt>
<totfact> 0.51621886E+00</totfact>
</mgrwt>
</event>
<event>
12    1  0.1536832E-007  0.2996827E+04  0.7818608E-02  0.8244637E-01
          2   -1    0    0  501    0  0.00000000000E+00  0.00000000000E+00  0.31780939280E+04  0.31780939280E+04  0.00000000000E+00 0. -1.
         -2   -1    0    0    0  501 -0.00000000000E+00 -0.00000000000E+00 -0.70647487413E+03  0.70647487413E+03  0.00000000000E+00 0.  1.
         23    2    1    2    0    0  0.24638030116E+03  0.11230993861E+03 -0.60728447752E+03  0.67121173043E+03  0.91727723856E+02 0.  0.
        254    2    1    2    0    0 -0.24638030116E+03 -0.11230993861E+03  0.30789035313E+04  0.32133570717E+04  0.87903352586E+03 0.  0.
        -24    2    4    4    0    0  0.92462819855E+02  0.81592740869E+02  0.25347177239E+04  0.25389116517E+04  0.77921032024E+02 0.  0.
         24    2    4    4    0    0 -0.33884312102E+03 -0.19390267948E+03  0.54418580747E+03  0.67444541992E+03  0.79533147967E+02 0.  0.
         11    1    3    3    0    0  0.19561172601E+03  0.11381791605E+03 -0.54948964299E+03  0.59427042087E+03  0.00000000000E+00 0.  1.
        -11    1    3    3    0    0  0.50768575159E+02 -0.15079774306E+01 -0.57794834522E+02  0.76941309561E+02  0.00000000000E+00 0. -1.
          4    1    6    6  502    0 -0.29458587497E+03 -0.17688923599E+03  0.42738305809E+03  0.54838573822E+03  0.00000000000E+00 0. -1.
          1    1    5    5  503    0  0.10185503055E+03  0.61744326503E+02  0.18425839190E+04  0.18464296108E+04  0.00000000000E+00 0. -1.
         -2    1    5    5    0  503 -0.93922106988E+01  0.19848414366E+02  0.69213380484E+03  0.69248204090E+03  0.00000000000E+00 0.  1.
         -3    1    6    6    0  502 -0.44257246045E+02 -0.17013443495E+02  0.11680274938E+03  0.12605968169E+03  0.00000000000E+00 0.  1.
<mgrwt>
<rscale>  0 0.29968273E+04</rscale>
<asrwt>0</asrwt>
<pdfrwt beam="1">  1        2 0.48893752E+00 0.29968273E+04</pdfrwt>
<pdfrwt beam="2">  1       -2 0.10868844E+00 0.29968273E+04</pdfrwt>
<totfact> 0.77555648E-01</totfact>
</mgrwt>
</event>
<event>
12    1  0.1536832E-007  0.2129706E+04  0.7818608E-02  0.8548269E-01
         -2   -1    0    0    0  501 -0.00000000000E+00  0.00000000000E+00  0.13396018513E+04  0.13396018513E+04  0.00000000000E+00 0.  1.
          2   -1    0    0  501    0  0.00000000000E+00 -0.00000000000E+00 -0.84645434546E+03  0.84645434546E+03  0.00000000000E+00 0. -1.
         23    2    1    2    0    0 -0.11245997389E+03 -0.48938373837E+03  0.93225283960E+03  0.10627851337E+04  0.90957101751E+02 0.  0.
        254    2    1    2    0    0  0.11245997389E+03  0.48938373837E+03 -0.43910533379E+03  0.11232710630E+04  0.90375920342E+03 0.  0.
        -24    2    4    4    0    0  0.49660747226E+03  0.35137217569E+03 -0.21553619608E+03  0.65032504101E+03  0.79908821750E+02 0.  0.
         24    2    4    4    0    0 -0.38414749837E+03  0.13801156269E+03 -0.22356913771E+03  0.47294602202E+03  0.84132564883E+02 0.  0.
         13    1    3    3    0    0 -0.12254341885E+02 -0.31844547120E+01  0.37065506260E+02  0.39168372460E+02  0.00000000000E+00 0. -1.
        -13    1    3    3    0    0 -0.10020563200E+03 -0.48619928366E+03  0.89518733334E+03  0.10236167612E+04  0.00000000000E+00 0.  1.
          4    1    6    6  502    0 -0.29118279994E+03  0.80054462462E+02 -0.12962948539E+03  0.32863344843E+03  0.00000000000E+00 0. -1.
          3    1    5    5  503    0  0.96261454129E+02  0.80058198636E+02 -0.78067140283E+02  0.14754680990E+03  0.00000000000E+00 0. -1.
         -4    1    5    5    0  503  0.40034601813E+03  0.27131397705E+03 -0.13746905580E+03  0.50277823111E+03  0.00000000000E+00 0.  1.
         -3    1    6    6    0  502 -0.92964698423E+02  0.57957100227E+02 -0.93939652321E+02  0.14431257360E+03  0.00000000000E+00 0.  1.
<mgrwt>
<rscale>  0 0.21297059E+04</rscale>
<asrwt>0</asrwt>
<pdfrwt beam="1">  1        2 0.13022375E+00 0.21297059E+04</pdfrwt>
<pdfrwt beam="2">  1       -2 0.20609259E+00 0.21297059E+04</pdfrwt>
<totfact> 0.35598832E+00</totfact>
</mgrwt>
</event>
<event>
12    1  0.1536832E-007  0.1013000E+04  0.7818608E-02  0.9294401E-01
          1   -1    0    0  501    0  0.00000000000E+00  0.00000000000E+00  0.28250458267E+03  0.28250458267E+03  0.00000000000E+00 0. -1.
         -1   -1    0    0    0  501 -0.00000000000E+00 -0.00000000000E+00 -0.90809863820E+03  0.90809863820E+03  0.00000000000E+00 0.  1.
         23    2    1    2    0    0 -0.46002707750E+02 -0.38001864585E+02 -0.94869218581E+02  0.14310260822E+03  0.88982003871E+02 0.  0.
        254    2    1    2    0    0  0.46002707750E+02  0.38001864585E+02 -0.53072483694E+03  0.10475006127E+04  0.90112612332E+03 0.  0.
        -24    2    4    4    0    0  0.26232541537E+03  0.13719070921E+03 -0.68673324460E+03  0.75208085226E+03  0.79919614951E+02 0.  0.
         24    2    4    4    0    0 -0.21632270762E+03 -0.99188844622E+02  0.15600840766E+03  0.29541976039E+03  0.79374245435E+02 0.  0.
         11    1    3    3    0    0 -0.38482873305E+02 -0.27221087405E+02  0.19131392675E+00  0.47137625506E+02  0.00000000000E+00 0. -1.
        -11    1    3    3    0    0 -0.75198344452E+01 -0.10780777181E+02 -0.95060532508E+02  0.95964982714E+02  0.00000000000E+00 0.  1.
          2    1    6    6  502    0 -0.21869826121E+03 -0.89706844310E+02  0.15936440964E+03  0.28508465836E+03  0.00000000000E+00 0. -1.
          1    1    5    5  503    0  0.19743305739E+03  0.10323271916E+03 -0.41948529484E+03  0.47497865114E+03  0.00000000000E+00 0. -1.
         -2    1    5    5    0  503  0.64892357983E+02  0.33957990051E+02 -0.26724794976E+03  0.27710220112E+03  0.00000000000E+00 0.  1.
         -1    1    6    6    0  502  0.23755535852E+01 -0.94820003120E+01 -0.33560019795E+01  0.10335102033E+02  0.00000000000E+00 0.  1.
<mgrwt>
<rscale>  0 0.10129996E+04</rscale>
<asrwt>0</asrwt>
<pdfrwt beam="1">  1        1 0.43462243E-01 0.10129996E+04</pdfrwt>
<pdfrwt beam="2">  1       -1 0.13970748E+00 0.10129996E+04</pdfrwt>
<totfact> 0.40052529E+01</totfact>
</mgrwt>
</event>
<event>
12    1  0.1536832E-007  0.1424786E+04  0.7818608E-02  0.8936070E-01
          2   -1    0    0  501    0  0.00000000000E+00  0.00000000000E+00  0.31889935236E+04  0.31889935236E+04  0.00000000000E+00 0. -1.
         -2   -1    0    0    0  501 -0.00000000000E+00 -0.00000000000E+00 -0.15914230987E+03  0.15914230987E+03  0.00000000000E+00 0.  1.
         23    2    1    2    0    0 -0.11325952274E+03  0.37994203564E+03  0.12373332106E+04  0.13025061369E+04  0.91351479397E+02 0.  0.
        254    2    1    2    0    0  0.11325952274E+03 -0.37994203564E+03  0.17925180032E+04  0.20456296965E+04  0.90238372869E+03 0.  0.
        -24    2    4    4    0    0  0.34512361730E+03 -0.32700470268E+02  0.14694564501E+04  0.15119655034E+04  0.80980198434E+02 0.  0.
         24    2    4    4    0    0 -0.23186409455E+03 -0.34724156537E+03  0.32306155302E+03  0.53366419318E+03  0.78045121450E+02 0.  0.
         11    1    3    3    0    0 -0.95620557157E+02  0.28550485546E+03  0.10450387780E+04  0.10875487855E+04  0.00000000000E+00 0.  1.
        -11    1    3    3    0    0 -0.17638965585E+02  0.94437180183E+02  0.19229443261E+03  0.21495735140E+03  0.00000000000E+00 0. -1.
          4    1    6    6  502    0 -0.23533435856E+03 -0.33628281753E+03  0.32278267572E+03  0.52216572985E+03  0.00000000000E+00 0. -1.
          3    1    5    5  503    0  0.32723338503E+03 -0.50082608022E+02  0.13629763045E+04  0.14026027102E+04  0.00000000000E+00 0. -1.
         -4    1    5    5    0  503  0.17890232266E+02  0.17382137753E+02  0.10648014563E+03  0.10936279321E+03  0.00000000000E+00 0.  1.
         -3    1    6    6    0  502  0.34702640072E+01 -0.10958747837E+02  0.27887730110E+00  0.11498463331E+02  0.00000000000E+00 0.  1.
<mgrwt>
<rscale>  0 0.14247860E+04</rscale>
<asrwt>0</asrwt>
<pdfrwt beam="1">  1        2 0.49061434E+00 0.14247860E+04</pdfrwt>
<pdfrwt beam="2">  1       -2 0.24483435E-01 0.14247860E+04</pdfrwt>
<totfact> 0.19301490E+01</totfact>
</mgrwt>
</event>
<event>
12    1  0.1536832E-007  0.2069445E+04  0.7818608E-02  0.8574824E-01
         -1   -1    0    0    0  501 -0.00000000000E+00  0.00000000000E+00  0.74527252568E+03  0.74527252568E+03  0.00000000000E+00 0.  1.
          1   -1    0    0  501    0  0.00000000000E+00 -0.00000000000E+00 -0.14365897190E+04  0.14365897190E+04  0.00000000000E+00 0. -1.
         23    2    1    2    0    0 -0.14211404632E+03  0.34970078198E+03 -0.10678913173E+04  0.11363462649E+04  0.91672945740E+02 0.  0.
        254    2    1    2    0    0  0.14211404632E+03 -0.34970078198E+03  0.37657412395E+03  0.10455159799E+04  0.89933784212E+03 0.  0.
        -24    2    4    4    0    0  0.38920063492E+02  0.29962648062E+03  0.10605468914E+03  0.33001299053E+03  0.79813392343E+02 0.  0.
         24    2    4    4    0    0  0.10319398283E+03 -0.64932726260E+03  0.27051943481E+03  0.71550298935E+03  0.80553529463E+02 0.  0.
         13    1    3    3    0    0 -0.43470196901E+02  0.12255988899E+03 -0.50341499145E+03  0.51993964845E+03  0.00000000000E+00 0. -1.
        -13    1    3    3    0    0 -0.98643849421E+02  0.22714089299E+03 -0.56447632586E+03  0.61640661641E+03  0.00000000000E+00 0.  1.
          4    1    6    6  502    0  0.93208076211E+02 -0.48116645794E+03  0.23411938918E+03  0.54315816675E+03  0.00000000000E+00 0. -1.
          3    1    5    5  503    0  0.55604891927E+02  0.21909293247E+03  0.53089079423E+02  0.23218972290E+03  0.00000000000E+00 0. -1.
         -4    1    5    5    0  503 -0.16684828435E+02  0.80533548148E+02  0.52965609713E+02  0.97823267629E+02  0.00000000000E+00 0.  1.
         -3    1    6    6    0  502  0.99859066184E+01 -0.16816080465E+03  0.36400045633E+02  0.17234482259E+03  0.00000000000E+00 0.  1.
<mgrwt>
<rscale>  0 0.20694452E+04</rscale>
<asrwt>0</asrwt>
<pdfrwt beam="1">  1        1 0.22101380E+00 0.20694452E+04</pdfrwt>
<pdfrwt beam="2">  1       -1 0.11465731E+00 0.20694452E+04</pdfrwt>
<totfact> 0.46168043E+00</totfact>
</mgrwt>
</event>
<event>
12    1  0.1536832E-007  0.2130365E+04  0.7818608E-02  0.8547984E-01
          1   -1    0    0  501    0  0.00000000000E+00  0.00000000000E+00  0.96601859036E+03  0.96601859036E+03  0.00000000000E+00 0. -1.
         -1   -1    0    0    0  501 -0.00000000000E+00 -0.00000000000E+00 -0.11745262723E+04  0.11745262723E+04  0.00000000000E+00 0.  1.
         23    2    1    2    0    0 -0.40982410267E+03 -0.56777874170E+03  0.43421531607E+03  0.82907404373E+03  0.92153863870E+02 0.  0.
        254    2    1    2    0    0  0.40982410267E+03  0.56777874170E+03 -0.64272299802E+03  0.13114708189E+04  0.90362290922E+03 0.  0.
        -24    2    4    4    0    0  0.39676083872E+03  0.36848167080E+03 -0.85153987860E+03  0.10121671919E+04  0.78513404746E+02 0.  0.
         24    2    4    4    0    0  0.13063263953E+02  0.19929707090E+03  0.20881688058E+03  0.29930362700E+03  0.78026919646E+02 0.  0.
         13    1    3    3    0    0 -0.55708472333E+01 -0.76646761521E+01  0.23731995523E+02  0.25553653573E+02  0.00000000000E+00 0.  1.
        -13    1    3    3    0    0 -0.40425325544E+03 -0.56011406555E+03  0.41048332055E+03  0.80352039016E+03  0.00000000000E+00 0. -1.
          4    1    6    6  502    0  0.78887173699E+01  0.15798267370E+03  0.20286227949E+03  0.25724280648E+03  0.00000000000E+00 0. -1.
          1    1    5    5  503    0  0.36221126947E+03  0.34213934286E+03 -0.73659431620E+03  0.88928483643E+03  0.00000000000E+00 0. -1.
         -2    1    5    5    0  503  0.34549569253E+02  0.26342327945E+02 -0.11494556240E+03  0.12288235550E+03  0.00000000000E+00 0.  1.
         -3    1    6    6    0  502  0.51745465826E+01  0.41314397201E+02  0.59546010908E+01  0.42060820517E+02  0.00000000000E+00 0.  1.
<mgrwt>
<rscale>  0 0.21303654E+04</rscale>
<asrwt>0</asrwt>
<pdfrwt beam="1">  1        1 0.14861824E+00 0.21303654E+04</pdfrwt>
<pdfrwt beam="2">  1       -1 0.18069635E+00 0.21303654E+04</pdfrwt>
<totfact> 0.30370490E+00</totfact>
</mgrwt>
</event>
<event>
12    1  0.1536832E-007  0.1874963E+04  0.7818608E-02  0.8667420E-01
          1   -1    0    0  501    0  0.00000000000E+00  0.00000000000E+00  0.42784812684E+03  0.42784812684E+03  0.00000000000E+00 0. -1.
         -1   -1    0    0    0  501 -0.00000000000E+00 -0.00000000000E+00 -0.20541678229E+04  0.20541678229E+04  0.00000000000E+00 0.  1.
         23    2    1    2    0    0 -0.35008755098E+03 -0.49926649743E+03 -0.12656996659E+03  0.62979261134E+03  0.93757389304E+02 0.  0.
        254    2    1    2    0    0  0.35008755098E+03  0.49926649743E+03 -0.14997497295E+04  0.18522233384E+04  0.89980759912E+03 0.  0.
        -24    2    4    4    0    0  0.41902832659E+03 -0.11981004393E+03 -0.78026648233E+03  0.89723711224E+03  0.79243088111E+02 0.  0.
         24    2    4    4    0    0 -0.68940775613E+02  0.61907654137E+03 -0.71948324713E+03  0.95498622615E+03  0.79586145887E+02 0.  0.
         11    1    3    3    0    0 -0.17501842769E+03 -0.19651213246E+03 -0.90191950617E+02  0.27817810157E+03  0.00000000000E+00 0. -1.
        -11    1    3    3    0    0 -0.17506912329E+03 -0.30275436497E+03 -0.36378015974E+02  0.35161450977E+03  0.00000000000E+00 0.  1.
          4    1    6    6  502    0 -0.58512973383E+02  0.36129059379E+03 -0.36839888180E+03  0.51929991077E+03  0.00000000000E+00 0. -1.
          1    1    5    5  503    0  0.40045149174E+03 -0.95423896453E+02 -0.71285499057E+03  0.82318245538E+03  0.00000000000E+00 0. -1.
         -2    1    5    5    0  503  0.18576834851E+02 -0.24386147481E+02 -0.67411491756E+02  0.74054656861E+02  0.00000000000E+00 0.  1.
         -1    1    6    6    0  502 -0.10427802230E+02  0.25778594758E+03 -0.35108436533E+03  0.43568631538E+03  0.00000000000E+00 0.  1.
<mgrwt>
<rscale>  0 0.18749633E+04</rscale>
<asrwt>0</asrwt>
<pdfrwt beam="1">  1        1 0.65822789E-01 0.18749633E+04</pdfrwt>
<pdfrwt beam="2">  1       -1 0.31602582E+00 0.18749633E+04</pdfrwt>
<totfact> 0.13371449E+00</totfact>
</mgrwt>
</event>
<event>
12    1  0.1536832E-007  0.1567505E+04  0.7818608E-02  0.8840764E-01
          4   -1    0    0  501    0  0.00000000000E+00  0.00000000000E+00  0.89705786369E+03  0.89705786369E+03  0.00000000000E+00 0. -1.
         -4   -1    0    0    0  501 -0.00000000000E+00 -0.00000000000E+00 -0.68475818209E+03  0.68475818209E+03  0.00000000000E+00 0.  1.
         23    2    1    2    0    0  0.17143094410E+03 -0.37227040689E+03  0.39710440158E+03  0.57801436476E+03  0.91841579247E+02 0.  0.
        254    2    1    2    0    0 -0.17143094410E+03  0.37227040689E+03 -0.18480471998E+03  0.10038016810E+04  0.89749161882E+03 0.  0.
        -24    2    4    4    0    0  0.74197037626E+02 -0.71245972258E+02  0.28146178383E+03  0.31041000285E+03  0.80947175099E+02 0.  0.
         24    2    4    4    0    0 -0.24562798172E+03  0.44351637915E+03 -0.46626650381E+03  0.69339167817E+03  0.79672346495E+02 0.  0.
         13    1    3    3    0    0  0.17792408170E+03 -0.35065112206E+03  0.35275708062E+03  0.52825254015E+03  0.00000000000E+00 0. -1.
        -13    1    3    3    0    0 -0.64931376018E+01 -0.21619284833E+02  0.44347320952E+02  0.49761824608E+02  0.00000000000E+00 0.  1.
          4    1    6    6  502    0 -0.17516309389E+03  0.23957533603E+03 -0.28726223429E+03  0.41303515873E+03  0.00000000000E+00 0. -1.
          1    1    5    5  503    0 -0.34389912090E+01  0.13893960957E+02  0.19153377449E+02  0.23910681280E+02  0.00000000000E+00 0. -1.
         -2    1    5    5    0  503  0.77636028835E+02 -0.85139933215E+02  0.26230840638E+03  0.28649932157E+03  0.00000000000E+00 0.  1.
         -3    1    6    6    0  502 -0.70464887831E+02  0.20394104312E+03 -0.17900426952E+03  0.28035651944E+03  0.00000000000E+00 0.  1.
<mgrwt>
<rscale>  0 0.15675047E+04</rscale>
<asrwt>0</asrwt>
<pdfrwt beam="1">  1        4 0.13800890E+00 0.15675047E+04</pdfrwt>
<pdfrwt beam="2">  1       -4 0.10534741E+00 0.15675047E+04</pdfrwt>
<totfact> 0.51956713E-01</totfact>
</mgrwt>
</event>
<event>
12    1  0.1536832E-007  0.1818985E+04  0.7818608E-02  0.8696268E-01
         -3   -1    0    0    0  501 -0.00000000000E+00  0.00000000000E+00  0.11912202190E+04  0.11912202190E+04  0.00000000000E+00 0.  1.
          3   -1    0    0  501    0  0.00000000000E+00 -0.00000000000E+00 -0.69439410398E+03  0.69439410398E+03  0.00000000000E+00 0. -1.
         23    2    1    2    0    0 -0.34477090954E+03 -0.35170683638E+03 -0.30598345122E+03  0.58685174770E+03  0.90578267437E+02 0.  0.
        254    2    1    2    0    0  0.34477090954E+03  0.35170683638E+03  0.80280956620E+03  0.12987625753E+04  0.89426861091E+03 0.  0.
        -24    2    4    4    0    0  0.51456577224E+03 -0.10108891807E+03  0.43133502295E+03  0.68427668081E+03  0.84780720481E+02 0.  0.
         24    2    4    4    0    0 -0.16979486270E+03  0.45279575446E+03  0.37147454325E+03  0.61448589444E+03  0.75797674922E+02 0.  0.
         13    1    3    3    0    0 -0.22691044893E+02 -0.61018166157E+02 -0.57585646812E+02  0.86914940248E+02  0.00000000000E+00 0.  1.
        -13    1    3    3    0    0 -0.32207986465E+03 -0.29068867023E+03 -0.24839780441E+03  0.49993680745E+03  0.00000000000E+00 0. -1.
          2    1    6    6  502    0  0.44213344306E+01  0.40458710960E+02  0.19948945526E+02  0.45325665117E+02  0.00000000000E+00 0. -1.
          1    1    5    5  503    0  0.19070263268E+02 -0.62367402890E+01  0.43607980574E+02  0.48002373278E+02  0.00000000000E+00 0. -1.
         -2    1    5    5    0  503  0.49549550897E+03 -0.94852177786E+02  0.38772704237E+03  0.63627430753E+03  0.00000000000E+00 0.  1.
         -1    1    6    6    0  502 -0.17421619713E+03  0.41233704350E+03  0.35152559773E+03  0.56916022932E+03  0.00000000000E+00 0.  1.
<mgrwt>
<rscale>  0 0.18189847E+04</rscale>
<asrwt>0</asrwt>
<pdfrwt beam="1">  1        3 0.10682986E+00 0.18189847E+04</pdfrwt>
<pdfrwt beam="2">  1       -3 0.18326465E+00 0.18189847E+04</pdfrwt>
<totfact> 0.34696398E-01</totfact>
</mgrwt>
</event>
<event>
12    1  0.1536832E-007  0.2567030E+04  0.7818608E-02  0.8379487E-01
         -1   -1    0    0    0  501 -0.00000000000E+00  0.00000000000E+00  0.22195490150E+04  0.22195490150E+04  0.00000000000E+00 0.  1.
          1   -1    0    0  501    0  0.00000000000E+00 -0.00000000000E+00 -0.74222785859E+03  0.74222785859E+03  0.00000000000E+00 0. -1.
         23    2    1    2    0    0 -0.77559768921E+03  0.61645888386E+02  0.14438810520E+04  0.16431153037E+04  0.98404359791E+02 0.  0.
        254    2    1    2    0    0  0.77559768921E+03 -0.61645888386E+02  0.33440104458E+02  0.13186615699E+04  0.10641419568E+04 0.  0.
        -24    2    4    4    0    0 -0.15998072824E+02 -0.39835093156E+02 -0.40170484920E+03  0.41179366717E+03  0.79777600010E+02 0.  0.
         24    2    4    4    0    0  0.79159576204E+03 -0.21810795230E+02  0.43514495366E+03  0.90686790272E+03  0.77192622896E+02 0.  0.
         13    1    3    3    0    0 -0.28119143528E+03  0.49049639538E+02  0.61266982329E+03  0.67589851515E+03  0.00000000000E+00 0. -1.
        -13    1    3    3    0    0 -0.49440625393E+03  0.12596248848E+02  0.83121122868E+03  0.96721678857E+03  0.00000000000E+00 0.  1.
          4    1    6    6  502    0  0.37166478595E+03 -0.24776907893E+02  0.24531917016E+03  0.44601581085E+03  0.00000000000E+00 0. -1.
          3    1    5    5  503    0  0.95503356858E+01 -0.18312844785E+02 -0.34755897132E+03  0.34817209501E+03  0.00000000000E+00 0. -1.
         -4    1    5    5    0  503 -0.25548408509E+02 -0.21522248371E+02 -0.54145877884E+02  0.63621572160E+02  0.00000000000E+00 0.  1.
         -3    1    6    6    0  502  0.41993097609E+03  0.29661126633E+01  0.18982578350E+03  0.46085209187E+03  0.00000000000E+00 0.  1.
<mgrwt>
<rscale>  0 0.25670303E+04</rscale>
<asrwt>0</asrwt>
<pdfrwt beam="1">  1        1 0.11418890E+00 0.25670303E+04</pdfrwt>
<pdfrwt beam="2">  1       -1 0.34146908E+00 0.25670303E+04</pdfrwt>
<totfact> 0.38912660E-01</totfact>
</mgrwt>
</event>
<event>
12    1  0.1536832E-007  0.2567095E+04  0.7818608E-02  0.8379465E-01
         -1   -1    0    0    0  501 -0.00000000000E+00  0.00000000000E+00  0.15832234988E+04  0.15832234988E+04  0.00000000000E+00 0.  1.
          1   -1    0    0  501    0  0.00000000000E+00 -0.00000000000E+00 -0.10405946755E+04  0.10405946755E+04  0.00000000000E+00 0. -1.
         23    2    1    2    0    0 -0.11046493938E+04  0.41859560150E+02  0.14738801435E+02  0.11089882348E+04  0.87379440439E+02 0.  0.
        254    2    1    2    0    0  0.11046493938E+04 -0.41859560150E+02  0.52789002186E+03  0.15148299395E+04  0.89108886446E+03 0.  0.
        -24    2    4    4    0    0  0.85400911551E+03  0.76802729419E+02 -0.56649363731E+02  0.86297895109E+03  0.79330265259E+02 0.  0.
         24    2    4    4    0    0  0.25064027830E+03 -0.11866228957E+03  0.58453938560E+03  0.65185098840E+03  0.79511821106E+02 0.  0.
         11    1    3    3    0    0 -0.76633313712E+03  0.31641829611E+02  0.50423573991E+02  0.76864180165E+03  0.00000000000E+00 0. -1.
        -11    1    3    3    0    0 -0.33831625669E+03  0.10217730539E+02 -0.35684772556E+02  0.34034643314E+03  0.00000000000E+00 0.  1.
          4    1    6    6  502    0  0.24747595736E+02 -0.15518089842E+02  0.20854957515E+02  0.35891278328E+02  0.00000000000E+00 0. -1.
          1    1    5    5  503    0  0.27669683113E+02 -0.10202071901E+02 -0.84394512288E+01  0.30674386248E+02  0.00000000000E+00 0. -1.
         -2    1    5    5    0  503  0.82633943240E+03  0.87004801320E+02 -0.48209912502E+02  0.83230456484E+03  0.00000000000E+00 0.  1.
         -3    1    6    6    0  502  0.22589268256E+03 -0.10314419973E+03  0.56368442808E+03  0.61595971007E+03  0.00000000000E+00 0.  1.
<mgrwt>
<rscale>  0 0.25670948E+04</rscale>
<asrwt>0</asrwt>
<pdfrwt beam="1">  1        1 0.16009149E+00 0.25670948E+04</pdfrwt>
<pdfrwt beam="2">  1       -1 0.24357285E+00 0.25670948E+04</pdfrwt>
<totfact> 0.95462852E-01</totfact>
</mgrwt>
</event>
<event>
12    1  0.1536832E-007  0.1871557E+04  0.7818608E-02  0.8669145E-01
          2   -1    0    0  501    0  0.00000000000E+00  0.00000000000E+00  0.15415574913E+04  0.15415574913E+04  0.00000000000E+00 0.  1.
         -2   -1    0    0    0  501 -0.00000000000E+00 -0.00000000000E+00 -0.56804992154E+03  0.56804992154E+03  0.00000000000E+00 0. -1.
         23    2    1    2    0    0  0.23125779945E+03  0.61792609866E+03  0.69087373045E+03  0.95986229306E+03  0.93361003652E+02 0.  0.
        254    2    1    2    0    0 -0.23125779945E+03 -0.61792609866E+03  0.28263383930E+03  0.11497451198E+04  0.89817543949E+03 0.  0.
        -24    2    4    4    0    0  0.30315803246E+03 -0.16941671874E+03 -0.70054708469E+02  0.36331533836E+03  0.80520529535E+02 0.  0.
         24    2    4    4    0    0 -0.53441583191E+03 -0.44850937991E+03  0.35268854777E+03  0.78642978140E+03  0.85566606148E+02 0.  0.
         13    1    3    3    0    0  0.71778083341E+02  0.12768739010E+03  0.20095352056E+03  0.24867344101E+03  0.00000000000E+00 0. -1.
        -13    1    3    3    0    0  0.15947971611E+03  0.49023870856E+03  0.48992020989E+03  0.71118885205E+03  0.00000000000E+00 0.  1.
          4    1    6    6  502    0 -0.79012360211E+02 -0.90931793114E+02  0.91294048186E+02  0.15114942044E+03  0.00000000000E+00 0. -1.
          1    1    5    5  503    0  0.10966696227E+02 -0.30097511046E+01 -0.20480698058E+02  0.23426182378E+02  0.00000000000E+00 0. -1.
         -2    1    5    5    0  503  0.29219133623E+03 -0.16640696764E+03 -0.49574010411E+02  0.33988915599E+03  0.00000000000E+00 0.  1.
         -3    1    6    6    0  502 -0.45540347170E+03 -0.35757758680E+03  0.26139449958E+03  0.63528036096E+03  0.00000000000E+00 0.  1.
<mgrwt>
<rscale>  0 0.18715572E+04</rscale>
<asrwt>0</asrwt>
<pdfrwt beam="1">  1        2 0.23716269E+00 0.18715572E+04</pdfrwt>
<pdfrwt beam="2">  1       -2 0.87392296E-01 0.18715572E+04</pdfrwt>
<totfact> 0.12766635E+01</totfact>
</mgrwt>
</event>
<event>
12    1  0.1536832E-007  0.1423070E+04  0.7818608E-02  0.8937287E-01
         -1   -1    0    0    0  501 -0.00000000000E+00  0.00000000000E+00  0.40700613118E+03  0.40700613118E+03  0.00000000000E+00 0.  1.
          1   -1    0    0  501    0  0.00000000000E+00 -0.00000000000E+00 -0.12439172655E+04  0.12439172655E+04  0.00000000000E+00 0. -1.
         23    2    1    2    0    0  0.34747265288E+03 -0.62677877345E+02  0.21844928060E+02  0.36535088685E+03  0.91314340744E+02 0.  0.
        254    2    1    2    0    0 -0.34747265288E+03  0.62677877345E+02 -0.85875606233E+03  0.12855725098E+04  0.88913943930E+03 0.  0.
        -24    2    4    4    0    0 -0.48015824396E+03  0.23311246812E+03 -0.18000018081E+03  0.56890286119E+03  0.79731037467E+02 0.  0.
         24    2    4    4    0    0  0.13268559108E+03 -0.17043459078E+03 -0.67875588152E+03  0.71666964861E+03  0.79072262652E+02 0.  0.
         11    1    3    3    0    0  0.12762579482E+03  0.78230783073E+01 -0.23656664822E+02  0.13003531001E+03  0.00000000000E+00 0. -1.
        -11    1    3    3    0    0  0.21984685806E+03 -0.70500955652E+02  0.45501592882E+02  0.23531557684E+03  0.00000000000E+00 0.  1.
          4    1    6    6  502    0  0.42808179023E+02 -0.13582873617E+02 -0.19848092775E+03  0.20349868139E+03  0.00000000000E+00 0. -1.
          3    1    5    5  503    0 -0.91979468261E+01  0.27843621567E+00  0.66574979346E+01  0.11357906114E+02  0.00000000000E+00 0. -1.
         -4    1    5    5    0  503 -0.47096029713E+03  0.23283403191E+03 -0.18665767875E+03  0.55754495507E+03  0.00000000000E+00 0.  1.
         -3    1    6    6    0  502  0.89877412053E+02 -0.15685171716E+03 -0.48027495377E+03  0.51317096721E+03  0.00000000000E+00 0.  1.
<mgrwt>
<rscale>  0 0.14230699E+04</rscale>
<asrwt>0</asrwt>
<pdfrwt beam="1">  1        1 0.19137188E+00 0.14230699E+04</pdfrwt>
<pdfrwt beam="2">  1       -1 0.62616329E-01 0.14230699E+04</pdfrwt>
<totfact> 0.24994169E+01</totfact>
</mgrwt>
</event>
<event>
12    1  0.1536832E-007  0.2821366E+04  0.7818608E-02  0.8296666E-01
         -2   -1    0    0    0  501 -0.00000000000E+00  0.00000000000E+00  0.49806746160E+03  0.49806746160E+03  0.00000000000E+00 0.  1.
          2   -1    0    0  501    0  0.00000000000E+00 -0.00000000000E+00 -0.39954969446E+04  0.39954969446E+04  0.00000000000E+00 0. -1.
         23    2    1    2    0    0  0.73552441387E+03  0.30297198401E+03 -0.93550135547E+01  0.80071027939E+03  0.90891411803E+02 0.  0.
        254    2    1    2    0    0 -0.73552441387E+03 -0.30297198401E+03 -0.34880744694E+04  0.36928541268E+04  0.91527040323E+03 0.  0.
        -24    2    4    4    0    0  0.96418728527E+02  0.58978103733E+02 -0.14971633090E+04  0.15034926248E+04  0.78848658663E+02 0.  0.
         24    2    4    4    0    0 -0.83194314240E+03 -0.36195008775E+03 -0.19909111604E+04  0.21893615020E+04  0.80245122282E+02 0.  0.
         13    1    3    3    0    0  0.28744861604E+03  0.71494176702E+02 -0.99940566712E+01  0.29637477176E+03  0.00000000000E+00 0. -1.
        -13    1    3    3    0    0  0.44807579783E+03  0.23147780731E+03  0.63904311655E+00  0.50433550763E+03  0.00000000000E+00 0.  1.
          4    1    6    6  502    0 -0.78482687430E+02 -0.97964220630E+01 -0.16834609382E+03  0.18599975650E+03  0.00000000000E+00 0. -1.
          3    1    5    5  503    0  0.52261865021E+00  0.23746368406E+02 -0.10816219617E+03  0.11073944114E+03  0.00000000000E+00 0. -1.
         -4    1    5    5    0  503  0.95896109877E+02  0.35231735327E+02 -0.13890011129E+04  0.13927531837E+04  0.00000000000E+00 0.  1.
         -3    1    6    6    0  502 -0.75346045497E+03 -0.35215366568E+03 -0.18225650666E+04  0.20033617455E+04  0.00000000000E+00 0.  1.
<mgrwt>
<rscale>  0 0.28213664E+04</rscale>
<asrwt>0</asrwt>
<pdfrwt beam="1">  1        2 0.61469184E+00 0.28213664E+04</pdfrwt>
<pdfrwt beam="2">  1       -2 0.76625763E-01 0.28213664E+04</pdfrwt>
<totfact> 0.45649691E-01</totfact>
</mgrwt>
</event>
<event>
12    1  0.1536832E-007  0.1793009E+04  0.7818608E-02  0.8710026E-01
         -2   -1    0    0    0  501 -0.00000000000E+00  0.00000000000E+00  0.87805323741E+03  0.87805323741E+03  0.00000000000E+00 0. -1.
          2   -1    0    0  501    0  0.00000000000E+00 -0.00000000000E+00 -0.91534303540E+03  0.91534303540E+03  0.00000000000E+00 0.  1.
         23    2    1    2    0    0  0.79847798825E+02 -0.65997482421E+02  0.64257050916E+03  0.65704634897E+03  0.89898313616E+02 0.  0.
        254    2    1    2    0    0 -0.79847798825E+02  0.65997482421E+02 -0.67986030715E+03  0.11363499238E+04  0.90462686977E+03 0.  0.
        -24    2    4    4    0    0 -0.36949223963E+03 -0.22478036197E+03 -0.15740975673E+03  0.46711421477E+03  0.79794309684E+02 0.  0.
         24    2    4    4    0    0  0.28964444080E+03  0.29077784439E+03 -0.52245055042E+03  0.66923570907E+03  0.80474839428E+02 0.  0.
         13    1    3    3    0    0  0.17598534495E+02  0.21299148416E+01  0.34590242198E+03  0.34635636342E+03  0.00000000000E+00 0.  1.
        -13    1    3    3    0    0  0.62249264330E+02 -0.68127397263E+02  0.29666808718E+03  0.31068998555E+03  0.00000000000E+00 0. -1.
          2    1    6    6  502    0  0.26115265121E+03  0.21891760306E+03 -0.41848876828E+03  0.53968367896E+03  0.00000000000E+00 0. -1.
          3    1    5    5  503    0 -0.23000916364E+03 -0.95447688782E+02 -0.77654653026E+02  0.26085383223E+03  0.00000000000E+00 0. -1.
         -4    1    5    5    0  503 -0.13948307599E+03 -0.12933267318E+03 -0.79755103702E+02  0.20626038254E+03  0.00000000000E+00 0.  1.
         -1    1    6    6    0  502  0.28491789590E+02  0.71860241324E+02 -0.10396178215E+03  0.12955203010E+03  0.00000000000E+00 0.  1.
<mgrwt>
<rscale>  0 0.17930086E+04</rscale>
<asrwt>0</asrwt>
<pdfrwt beam="1">  1        2 0.14082201E+00 0.17930086E+04</pdfrwt>
<pdfrwt beam="2">  1       -2 0.13508511E+00 0.17930086E+04</pdfrwt>
<totfact> 0.10651042E+01</totfact>
</mgrwt>
</event>
<event>
12    1  0.1536832E-007  0.1732706E+04  0.7818608E-02  0.8742928E-01
         -2   -1    0    0    0  501 -0.00000000000E+00  0.00000000000E+00  0.74440278950E+03  0.74440278950E+03  0.00000000000E+00 0.  1.
          2   -1    0    0  501    0  0.00000000000E+00 -0.00000000000E+00 -0.10082812725E+04  0.10082812725E+04  0.00000000000E+00 0. -1.
         23    2    1    2    0    0 -0.15025010729E+03 -0.13255473728E+03  0.50633615884E+03  0.55215698071E+03  0.91406632586E+02 0.  0.
        254    2    1    2    0    0  0.15025010729E+03  0.13255473728E+03 -0.77021464185E+03  0.12005270813E+04  0.89882635994E+03 0.  0.
        -24    2    4    4    0    0 -0.88642359473E+02 -0.31494987907E+03 -0.91035829159E+02  0.34898690056E+03  0.80333307859E+02 0.  0.
         24    2    4    4    0    0  0.23889246676E+03  0.44750461636E+03 -0.67917881269E+03  0.85154018075E+03  0.80664908665E+02 0.  0.
         11    1    3    3    0    0 -0.13194754527E+03 -0.12686553456E+03  0.35307589277E+03  0.39770290999E+03  0.00000000000E+00 0.  1.
        -11    1    3    3    0    0 -0.18302562011E+02 -0.56892027204E+01  0.15326026607E+03  0.15445407071E+03  0.00000000000E+00 0. -1.
          2    1    6    6  502    0  0.10377590690E+02  0.26526468772E+01 -0.42683444052E+01  0.11530381084E+02  0.00000000000E+00 0. -1.
          3    1    5    5  503    0 -0.75527484991E+02 -0.14608167445E+03 -0.21335651019E+02  0.16582963126E+03  0.00000000000E+00 0. -1.
         -4    1    5    5    0  503 -0.13114874481E+02 -0.16886820462E+03 -0.69700178140E+02  0.18315726930E+03  0.00000000000E+00 0.  1.
         -1    1    6    6    0  502  0.22851487607E+03  0.44485196948E+03 -0.67491046828E+03  0.84000979966E+03  0.00000000000E+00 0.  1.
<mgrwt>
<rscale>  0 0.17327059E+04</rscale>
<asrwt>0</asrwt>
<pdfrwt beam="1">  1        2 0.15512020E+00 0.17327059E+04</pdfrwt>
<pdfrwt beam="2">  1       -2 0.11452351E+00 0.17327059E+04</pdfrwt>
<totfact> 0.14068366E+01</totfact>
</mgrwt>
</event>
<event>
12    1  0.1536832E-007  0.2376476E+04  0.7818608E-02  0.8448363E-01
          2   -1    0    0  501    0  0.00000000000E+00  0.00000000000E+00  0.26828948229E+04  0.26828948229E+04  0.00000000000E+00 0. -1.
         -2   -1    0    0    0  501 -0.00000000000E+00 -0.00000000000E+00 -0.52626356214E+03  0.52626356214E+03  0.00000000000E+00 0.  1.
         23    2    1    2    0    0 -0.73033658951E+03  0.23192893346E+03  0.63337103001E+02  0.77420879690E+03  0.90582053570E+02 0.  0.
        254    2    1    2    0    0  0.73033658951E+03 -0.23192893346E+03  0.20932941578E+04  0.24349495882E+04  0.97975328616E+03 0.  0.
        -24    2    4    4    0    0  0.64109176301E+03 -0.30871729042E+03  0.21607206211E+04  0.22762767287E+04  0.80106986665E+02 0.  0.
         24    2    4    4    0    0  0.89244826496E+02  0.76788356960E+02 -0.67426463330E+02  0.15867285942E+03  0.82277928621E+02 0.  0.
         11    1    3    3    0    0 -0.19245812284E+03  0.90945205249E+02  0.46618552524E+02  0.21790926746E+03  0.00000000000E+00 0. -1.
        -11    1    3    3    0    0 -0.53787846667E+03  0.14098372821E+03  0.16718550477E+02  0.55629952944E+03  0.00000000000E+00 0.  1.
          2    1    6    6  502    0  0.79946376704E+02  0.89893567032E+02 -0.74080757633E+02  0.14128069646E+03  0.00000000000E+00 0. -1.
          3    1    5    5  503    0  0.58932872885E+03 -0.26947894004E+03  0.20174525174E+04  0.21189718992E+04  0.00000000000E+00 0. -1.
         -4    1    5    5    0  503  0.51763034167E+02 -0.39238350383E+02  0.14326810373E+03  0.15730482953E+03  0.00000000000E+00 0.  1.
         -1    1    6    6    0  502  0.92984497919E+01 -0.13105210072E+02  0.66542943030E+01  0.17392162955E+02  0.00000000000E+00 0.  1.
<mgrwt>
<rscale>  0 0.23764762E+04</rscale>
<asrwt>0</asrwt>
<pdfrwt beam="1">  1        2 0.41275304E+00 0.23764762E+04</pdfrwt>
<pdfrwt beam="2">  1       -2 0.80963627E-01 0.23764762E+04</pdfrwt>
<totfact> 0.32956485E+00</totfact>
</mgrwt>
</event>
<event>
12    1  0.1536832E-007  0.1503795E+04  0.7818608E-02  0.8881933E-01
         -2   -1    0    0    0  501 -0.00000000000E+00  0.00000000000E+00  0.44085539596E+03  0.44085539596E+03  0.00000000000E+00 0. -1.
          2   -1    0    0  501    0  0.00000000000E+00 -0.00000000000E+00 -0.12823937941E+04  0.12823937941E+04  0.00000000000E+00 0.  1.
         23    2    1    2    0    0 -0.45426382598E+03 -0.18047282238E+02 -0.46247023438E+03  0.65474584422E+03  0.90178017525E+02 0.  0.
        254    2    1    2    0    0  0.45426382598E+03  0.18047282238E+02 -0.37906816377E+03  0.10685033459E+04  0.88956472465E+03 0.  0.
        -24    2    4    4    0    0 -0.19622859123E+03  0.11811055971E+03  0.87615422389E+02  0.25791986548E+03  0.79940167869E+02 0.  0.
         24    2    4    4    0    0  0.65049241720E+03 -0.10006327747E+03 -0.46668358616E+03  0.81058348038E+03  0.78095868857E+02 0.  0.
         13    1    3    3    0    0 -0.25387455136E+03  0.87525713028E+01 -0.19926194476E+03  0.32285324524E+03  0.00000000000E+00 0. -1.
        -13    1    3    3    0    0 -0.20038927462E+03 -0.26799853541E+02 -0.26320828962E+03  0.33189259898E+03  0.00000000000E+00 0.  1.
          2    1    6    6  502    0  0.13380133058E+03 -0.40604421674E+02 -0.69369189724E+02  0.15608843521E+03  0.00000000000E+00 0. -1.
          3    1    5    5  503    0 -0.54763402408E+00  0.25983320006E+02  0.13528391594E+02  0.29299320823E+02  0.00000000000E+00 0. -1.
         -4    1    5    5    0  503 -0.19568095720E+03  0.92127239704E+02  0.74087030795E+02  0.22862054466E+03  0.00000000000E+00 0.  1.
         -1    1    6    6    0  502  0.51669108662E+03 -0.59458855798E+02 -0.39731439644E+03  0.65449504517E+03  0.00000000000E+00 0.  1.
<mgrwt>
<rscale>  0 0.15037955E+04</rscale>
<asrwt>0</asrwt>
<pdfrwt beam="1">  1        2 0.19729135E+00 0.15037955E+04</pdfrwt>
<pdfrwt beam="2">  1       -2 0.67823908E-01 0.15037955E+04</pdfrwt>
<totfact> 0.32561817E+01</totfact>
</mgrwt>
</event>
<event>
12    1  0.1536832E-007  0.1553581E+04  0.7818608E-02  0.8849583E-01
         -2   -1    0    0    0  501 -0.00000000000E+00  0.00000000000E+00  0.66854675793E+03  0.66854675793E+03  0.00000000000E+00 0. -1.
          2   -1    0    0  501    0  0.00000000000E+00 -0.00000000000E+00 -0.90256043715E+03  0.90256043715E+03  0.00000000000E+00 0.  1.
         23    2    1    2    0    0 -0.31963030120E+03 -0.39448327808E+03 -0.17252459938E+03  0.54526798959E+03  0.98852703303E+02 0.  0.
        254    2    1    2    0    0  0.31963030120E+03  0.39448327808E+03 -0.61489079840E+02  0.10258392055E+04  0.88926069431E+03 0.  0.
        -24    2    4    4    0    0 -0.26545067778E+03  0.27175216454E+03  0.10164323689E+03  0.40120874101E+03  0.79522355298E+02 0.  0.
         24    2    4    4    0    0  0.58508097898E+03  0.12273111354E+03 -0.16313231673E+03  0.62463046448E+03  0.78539074308E+02 0.  0.
         13    1    3    3    0    0 -0.11356484167E+03 -0.97980576203E+02 -0.13099382026E+02  0.15056148374E+03  0.00000000000E+00 0. -1.
        -13    1    3    3    0    0 -0.20606545953E+03 -0.29650270188E+03 -0.15942521735E+03  0.39470650585E+03  0.00000000000E+00 0.  1.
          4    1    6    6  502    0  0.16255695603E+03  0.58135937349E+02 -0.74890477893E+02  0.18818377944E+03  0.00000000000E+00 0. -1.
          3    1    5    5  503    0 -0.17543906153E+03  0.15886619502E+03  0.99686022692E+02  0.25681634556E+03  0.00000000000E+00 0. -1.
         -4    1    5    5    0  503 -0.90011616252E+02  0.11288596952E+03  0.19572141996E+01  0.14439239545E+03  0.00000000000E+00 0.  1.
         -3    1    6    6    0  502  0.42252402295E+03  0.64595176193E+02 -0.88241838838E+02  0.43644668504E+03  0.00000000000E+00 0.  1.
<mgrwt>
<rscale>  0 0.15535815E+04</rscale>
<asrwt>0</asrwt>
<pdfrwt beam="1">  1        2 0.13885545E+00 0.15535815E+04</pdfrwt>
<pdfrwt beam="2">  1       -2 0.10285335E+00 0.15535815E+04</pdfrwt>
<totfact> 0.21711765E+01</totfact>
</mgrwt>
</event>
<event>
12    1  0.1536832E-007  0.1826249E+04  0.7818608E-02  0.8692464E-01
          2   -1    0    0  501    0  0.00000000000E+00  0.00000000000E+00  0.30596884364E+04  0.30596884364E+04  0.00000000000E+00 0. -1.
         -2   -1    0    0    0  501 -0.00000000000E+00 -0.00000000000E+00 -0.27251013312E+03  0.27251013312E+03  0.00000000000E+00 0.  1.
         23    2    1    2    0    0  0.31089152272E+03  0.61506648299E+03  0.10888945276E+04  0.12918370456E+04  0.90506037412E+02 0.  0.
        254    2    1    2    0    0 -0.31089152272E+03 -0.61506648299E+03  0.16982837757E+04  0.20403615239E+04  0.89663094306E+03 0.  0.
        -24    2    4    4    0    0 -0.60722749307E+03 -0.53259258941E+03  0.12710004367E+04  0.15078912728E+04  0.76901793487E+02 0.  0.
         24    2    4    4    0    0  0.29633597035E+03 -0.82473893584E+02  0.42728333901E+03  0.53247025113E+03  0.79602550792E+02 0.  0.
         13    1    3    3    0    0  0.37656234378E+02  0.75348677561E+02  0.84354577266E+02  0.11921035988E+03  0.00000000000E+00 0. -1.
        -13    1    3    3    0    0  0.27323528835E+03  0.53971780543E+03  0.10045399503E+04  0.11726266857E+04  0.00000000000E+00 0.  1.
          2    1    6    6  502    0  0.15385565672E+03 -0.53362665280E+02  0.16061976635E+03  0.22873094783E+03  0.00000000000E+00 0. -1.
          1    1    5    5  503    0 -0.41802871622E+02 -0.34776992315E+02  0.12666863646E+03  0.13784724419E+03  0.00000000000E+00 0. -1.
         -4    1    5    5    0  503 -0.56542462145E+03 -0.49781559709E+03  0.11443318002E+04  0.13700440286E+04  0.00000000000E+00 0.  1.
         -1    1    6    6    0  502  0.14248031363E+03 -0.29111228304E+02  0.26666357266E+03  0.30373930330E+03  0.00000000000E+00 0.  1.
<mgrwt>
<rscale>  0 0.18262487E+04</rscale>
<asrwt>0</asrwt>
<pdfrwt beam="1">  1        2 0.47072127E+00 0.18262487E+04</pdfrwt>
<pdfrwt beam="2">  1       -2 0.41924638E-01 0.18262487E+04</pdfrwt>
<totfact> 0.81421783E+00</totfact>
</mgrwt>
</event>
<event>
12    1  0.1536832E-007  0.2098932E+04  0.7818608E-02  0.8561714E-01
          2   -1    0    0  501    0  0.00000000000E+00  0.00000000000E+00  0.11504336216E+04  0.11504336216E+04  0.00000000000E+00 0. -1.
         -2   -1    0    0    0  501 -0.00000000000E+00 -0.00000000000E+00 -0.95736017091E+03  0.95736017091E+03  0.00000000000E+00 0.  1.
         23    2    1    2    0    0  0.36353695842E+03 -0.81033474822E+02  0.84693124140E+03  0.92987736307E+03  0.93026009837E+02 0.  0.
        254    2    1    2    0    0 -0.36353695842E+03  0.81033474822E+02 -0.65385779068E+03  0.11779164295E+04  0.90621827404E+03 0.  0.
        -24    2    4    4    0    0  0.12830421589E+03 -0.55656926570E+02  0.15164555240E+03  0.22101220636E+03  0.79311767769E+02 0.  0.
         24    2    4    4    0    0 -0.49184117432E+03  0.13669040139E+03 -0.80550334307E+03  0.95690422311E+03  0.78981326392E+02 0.  0.
         13    1    3    3    0    0  0.61164517815E+02  0.20859114389E+02  0.13175004408E+03  0.14674561325E+03  0.00000000000E+00 0.  1.
        -13    1    3    3    0    0  0.30237244061E+03 -0.10189258921E+03  0.71518119733E+03  0.78313174982E+03  0.00000000000E+00 0. -1.
          2    1    6    6  502    0 -0.24589446310E+02 -0.62063929566E+01 -0.22229309329E+02  0.33723914016E+02  0.00000000000E+00 0. -1.
          1    1    5    5  503    0 -0.54010798700E+01 -0.19470291477E+02  0.32677523678E+02  0.38419844712E+02  0.00000000000E+00 0. -1.
         -2    1    5    5    0  503  0.13370529576E+03 -0.36186635092E+02  0.11896802872E+03  0.18259236165E+03  0.00000000000E+00 0.  1.
         -1    1    6    6    0  502 -0.46725172801E+03  0.14289679435E+03 -0.78327403375E+03  0.92318030909E+03  0.00000000000E+00 0.  1.
<mgrwt>
<rscale>  0 0.20989324E+04</rscale>
<asrwt>0</asrwt>
<pdfrwt beam="1">  1        2 0.17698979E+00 0.20989324E+04</pdfrwt>
<pdfrwt beam="2">  1       -2 0.14728618E+00 0.20989324E+04</pdfrwt>
<totfact> 0.58805485E+00</totfact>
</mgrwt>
</event>
<event>
12    1  0.1536832E-007  0.1545288E+04  0.7818608E-02  0.8854883E-01
          2   -1    0    0  501    0  0.00000000000E+00  0.00000000000E+00  0.25832684582E+04  0.25832684582E+04  0.00000000000E+00 0. -1.
         -2   -1    0    0    0  501 -0.00000000000E+00 -0.00000000000E+00 -0.23109439134E+03  0.23109439134E+03  0.00000000000E+00 0.  1.
         23    2    1    2    0    0 -0.15213634632E+03  0.37330619643E+03  0.23109034920E+03  0.47293584291E+03  0.88105492698E+02 0.  0.
        254    2    1    2    0    0  0.15213634632E+03 -0.37330619643E+03  0.21210837177E+04  0.23414270067E+04  0.90596981515E+03 0.  0.
        -24    2    4    4    0    0 -0.36399407906E+03 -0.22367307875E+03  0.11373881736E+04  0.12176407150E+04  0.80471843722E+02 0.  0.
         24    2    4    4    0    0  0.51613042538E+03 -0.14963311768E+03  0.98369554409E+03  0.11237862917E+04  0.80361806751E+02 0.  0.
         13    1    3    3    0    0 -0.96152394538E+02  0.23868600225E+03  0.97458581217E+02  0.27516261683E+03  0.00000000000E+00 0. -1.
        -13    1    3    3    0    0 -0.55983951786E+02  0.13462019418E+03  0.13363176799E+03  0.19777322608E+03  0.00000000000E+00 0.  1.
          2    1    6    6  502    0  0.31665199222E+03 -0.11204482709E+03  0.68097023023E+03  0.75930427492E+03  0.00000000000E+00 0. -1.
          1    1    5    5  503    0 -0.31856187278E+02 -0.29702814102E+02  0.63951894937E+02  0.77375181418E+02  0.00000000000E+00 0. -1.
         -2    1    5    5    0  503 -0.33213789178E+03 -0.19397026465E+03  0.10734362787E+04  0.11402655336E+04  0.00000000000E+00 0.  1.
         -1    1    6    6    0  502  0.19947843316E+03 -0.37588290589E+02  0.30272531387E+03  0.36448201676E+03  0.00000000000E+00 0.  1.
<mgrwt>
<rscale>  0 0.15452881E+04</rscale>
<asrwt>0</asrwt>
<pdfrwt beam="1">  1        2 0.39742590E+00 0.15452881E+04</pdfrwt>
<pdfrwt beam="2">  1       -2 0.35552985E-01 0.15452881E+04</pdfrwt>
<totfact> 0.22349913E+01</totfact>
</mgrwt>
</event>
<event>
12    1  0.1536832E-007  0.1217027E+04  0.7818608E-02  0.9098082E-01
         -2   -1    0    0    0  501 -0.00000000000E+00  0.00000000000E+00  0.29040834084E+03  0.29040834084E+03  0.00000000000E+00 0.  1.
          2   -1    0    0  501    0  0.00000000000E+00 -0.00000000000E+00 -0.12750629309E+04  0.12750629309E+04  0.00000000000E+00 0. -1.
         23    2    1    2    0    0  0.98565890617E+02  0.22979256045E+03 -0.91016970316E+02  0.28144106163E+03  0.91679477826E+02 0.  0.
        254    2    1    2    0    0 -0.98565890617E+02 -0.22979256045E+03 -0.89363761977E+03  0.12840302101E+04  0.88748269247E+03 0.  0.
        -24    2    4    4    0    0 -0.26804026439E+03  0.13628083309E+03 -0.12480464739E+02  0.31157947597E+03  0.80671922286E+02 0.  0.
         24    2    4    4    0    0  0.16947437378E+03 -0.36607339353E+03 -0.88115715503E+03  0.97245073416E+03  0.80568018987E+02 0.  0.
         11    1    3    3    0    0  0.60151917380E+02  0.18166761360E+03 -0.28123347452E+02  0.19342258830E+03  0.00000000000E+00 0.  1.
        -11    1    3    3    0    0  0.38413973237E+02  0.48124946852E+02 -0.62893622864E+02  0.88018473324E+02  0.00000000000E+00 0. -1.
          4    1    6    6  502    0  0.41628804516E+02 -0.17840753016E+03 -0.35851132246E+03  0.40260721866E+03  0.00000000000E+00 0. -1.
          3    1    5    5  503    0 -0.94277669848E+01 -0.10207191251E+02  0.18365809135E+01  0.14015797266E+02  0.00000000000E+00 0. -1.
         -4    1    5    5    0  503 -0.25861249741E+03  0.14648802434E+03 -0.14317045653E+02  0.29756367871E+03  0.00000000000E+00 0.  1.
         -3    1    6    6    0  502  0.12784556926E+03 -0.18766586338E+03 -0.52264583257E+03  0.56984351550E+03  0.00000000000E+00 0.  1.
<mgrwt>
<rscale>  0 0.12170274E+04</rscale>
<asrwt>0</asrwt>
<pdfrwt beam="1">  1        2 0.19616353E+00 0.12170274E+04</pdfrwt>
<pdfrwt beam="2">  1       -2 0.44678205E-01 0.12170274E+04</pdfrwt>
<totfact> 0.80021976E+01</totfact>
</mgrwt>
</event>
<event>
12    1  0.1536832E-007  0.1262684E+04  0.7818608E-02  0.9059692E-01
         -2   -1    0    0    0  501 -0.00000000000E+00  0.00000000000E+00  0.21937428070E+03  0.21937428070E+03  0.00000000000E+00 0.  1.
          2   -1    0    0  501    0  0.00000000000E+00 -0.00000000000E+00 -0.18169523482E+04  0.18169523482E+04  0.00000000000E+00 0. -1.
         23    2    1    2    0    0 -0.11523405912E+03 -0.26626142552E+03 -0.48930899793E+03  0.57617031170E+03  0.91514466259E+02 0.  0.
        254    2    1    2    0    0  0.11523405912E+03  0.26626142552E+03 -0.11082690696E+04  0.14601563172E+04  0.90532983214E+03 0.  0.
        -24    2    4    4    0    0 -0.15790380031E+03 -0.89817605161E+01 -0.10449015817E+04  0.10594969675E+04  0.75499845670E+02 0.  0.
         24    2    4    4    0    0  0.27313785943E+03  0.27524318603E+03 -0.63367487910E+02  0.40065934965E+03  0.78417945788E+02 0.  0.
         11    1    3    3    0    0 -0.31034900585E+02 -0.72709011519E+01 -0.52693078155E+02  0.61584020194E+02  0.00000000000E+00 0.  1.
        -11    1    3    3    0    0 -0.84199158533E+02 -0.25899052437E+03 -0.43661591977E+03  0.51458629151E+03  0.00000000000E+00 0. -1.
          4    1    6    6  502    0  0.83132769846E+02  0.38225527374E+02 -0.76754433809E+01  0.91821352617E+02  0.00000000000E+00 0. -1.
          3    1    5    5  503    0 -0.35493797395E+02  0.19812611082E+02 -0.42691944426E+03  0.42885027819E+03  0.00000000000E+00 0. -1.
         -4    1    5    5    0  503 -0.12241000292E+03 -0.28794371598E+02 -0.61798213740E+03  0.63064668935E+03  0.00000000000E+00 0.  1.
         -3    1    6    6    0  502  0.19000508959E+03  0.23701765866E+03 -0.55692044529E+02  0.30883799703E+03  0.00000000000E+00 0.  1.
<mgrwt>
<rscale>  0 0.12626838E+04</rscale>
<asrwt>0</asrwt>
<pdfrwt beam="1">  1        2 0.27953112E+00 0.12626838E+04</pdfrwt>
<pdfrwt beam="2">  1       -2 0.33749890E-01 0.12626838E+04</pdfrwt>
<totfact> 0.68149558E+01</totfact>
</mgrwt>
</event>
<event>
12    1  0.1536832E-007  0.1287915E+04  0.7818608E-02  0.9039204E-01
         -2   -1    0    0    0  501 -0.00000000000E+00  0.00000000000E+00  0.31324026961E+03  0.31324026961E+03  0.00000000000E+00 0.  1.
          2   -1    0    0  501    0  0.00000000000E+00 -0.00000000000E+00 -0.13238441472E+04  0.13238441472E+04  0.00000000000E+00 0. -1.
         23    2    1    2    0    0 -0.10711998176E+03  0.27130834452E+03 -0.92524139425E+02  0.31785389579E+03  0.85950418242E+02 0.  0.
        254    2    1    2    0    0  0.10711998176E+03 -0.27130834452E+03 -0.91807973821E+03  0.13192305211E+04  0.90134114169E+03 0.  0.
        -24    2    4    4    0    0 -0.16498446716E+03  0.87010255009E+02  0.82555714318E+02  0.21914158677E+03  0.80105743906E+02 0.  0.
         24    2    4    4    0    0  0.27210444892E+03 -0.35831859953E+03 -0.10006354525E+04  0.11000889343E+04  0.80568632931E+02 0.  0.
         13    1    3    3    0    0 -0.11704652586E+03  0.26718033666E+03 -0.95089081092E+02  0.30680149096E+03  0.00000000000E+00 0. -1.
        -13    1    3    3    0    0  0.99265441052E+01  0.41280078611E+01  0.25649416666E+01  0.11052404830E+02  0.00000000000E+00 0.  1.
          4    1    6    6  502    0  0.20914244837E+03 -0.22680934779E+03 -0.62093841408E+03  0.69335961668E+03  0.00000000000E+00 0. -1.
          3    1    5    5  503    0 -0.93292472355E+02  0.27518117686E+02  0.41123797563E+01  0.97353191352E+02  0.00000000000E+00 0. -1.
         -4    1    5    5    0  503 -0.71691994803E+02  0.59492137324E+02  0.78443334562E+02  0.12178839542E+03  0.00000000000E+00 0.  1.
         -3    1    6    6    0  502  0.62962000551E+02 -0.13150925174E+03 -0.37969703844E+03  0.40672931762E+03  0.00000000000E+00 0.  1.
<mgrwt>
<rscale>  0 0.12879151E+04</rscale>
<asrwt>0</asrwt>
<pdfrwt beam="1">  1        2 0.20366833E+00 0.12879151E+04</pdfrwt>
<pdfrwt beam="2">  1       -2 0.48190810E-01 0.12879151E+04</pdfrwt>
<totfact> 0.64048772E+01</totfact>
</mgrwt>
</event>
<event>
12    1  0.1536832E-007  0.1979787E+04  0.7818608E-02  0.8616130E-01
         -1   -1    0    0    0  501 -0.00000000000E+00  0.00000000000E+00  0.11293518220E+04  0.11293518220E+04  0.00000000000E+00 0.  1.
          1   -1    0    0  501    0  0.00000000000E+00 -0.00000000000E+00 -0.86765598207E+03  0.86765598207E+03  0.00000000000E+00 0. -1.
         23    2    1    2    0    0 -0.18437462872E+03  0.72844720842E+03 -0.13474327397E+03  0.76835011695E+03  0.87044891623E+02 0.  0.
        254    2    1    2    0    0  0.18437462872E+03 -0.72844720842E+03  0.39643911393E+03  0.12286576872E+04  0.88758458862E+03 0.  0.
        -24    2    4    4    0    0 -0.19723894907E+03 -0.19063008667E+03  0.48053785244E+03  0.55910281255E+03  0.80226519356E+02 0.  0.
         24    2    4    4    0    0  0.38161357779E+03 -0.53781712175E+03 -0.84098738501E+02  0.66955487460E+03  0.79717959530E+02 0.  0.
         11    1    3    3    0    0 -0.85908390831E+02  0.30577758302E+03 -0.99942390873E+02  0.33296946315E+03  0.00000000000E+00 0.  1.
        -11    1    3    3    0    0 -0.98466237892E+02  0.42266962540E+03 -0.34800883098E+02  0.43538065380E+03  0.00000000000E+00 0. -1.
          2    1    6    6  502    0  0.16578014669E+03 -0.16820929968E+03 -0.25314950791E+02  0.23752530869E+03  0.00000000000E+00 0. -1.
          1    1    5    5  503    0 -0.16693763737E+03 -0.11192589955E+03  0.35286205979E+03  0.40608769373E+03  0.00000000000E+00 0. -1.
         -2    1    5    5    0  503 -0.30301311705E+02 -0.78704187119E+02  0.12767579264E+03  0.15301511882E+03  0.00000000000E+00 0.  1.
         -1    1    6    6    0  502  0.21583343111E+03 -0.36960782207E+03 -0.58783787710E+02  0.43202956591E+03  0.00000000000E+00 0.  1.
<mgrwt>
<rscale>  0 0.19797867E+04</rscale>
<asrwt>0</asrwt>
<pdfrwt beam="1">  1        1 0.13348554E+00 0.19797867E+04</pdfrwt>
<pdfrwt beam="2">  1       -1 0.17374643E+00 0.19797867E+04</pdfrwt>
<totfact> 0.41546332E+00</totfact>
</mgrwt>
</event>
<event>
12    1  0.1536832E-007  0.3296980E+04  0.7818608E-02  0.8163664E-01
          2   -1    0    0  501    0  0.00000000000E+00  0.00000000000E+00  0.28201750525E+04  0.28201750525E+04  0.00000000000E+00 0. -1.
         -2   -1    0    0    0  501 -0.00000000000E+00 -0.00000000000E+00 -0.96359964593E+03  0.96359964593E+03  0.00000000000E+00 0.  1.
         23    2    1    2    0    0  0.11336469616E+04  0.43751366845E+03  0.19160865435E+04  0.22707376695E+04  0.91039981816E+02 0.  0.
        254    2    1    2    0    0 -0.11336469616E+04 -0.43751366845E+03 -0.59511136851E+02  0.15130370289E+04  0.89953645393E+03 0.  0.
        -24    2    4    4    0    0 -0.79155810122E+03 -0.15002593397E+03 -0.43928759278E+03  0.92119333347E+03  0.80941707431E+02 0.  0.
         24    2    4    4    0    0 -0.34208886035E+03 -0.28748773447E+03  0.37977645593E+03  0.59184369545E+03  0.79842454374E+02 0.  0.
         11    1    3    3    0    0  0.27533342209E+03  0.14383634947E+03  0.45474765905E+03  0.55072027578E+03  0.00000000000E+00 0.  1.
        -11    1    3    3    0    0  0.85831353948E+03  0.29367731898E+03  0.14613388844E+04  0.17200173938E+04  0.00000000000E+00 0. -1.
          2    1    6    6  502    0 -0.30996152992E+02 -0.44821882354E+02  0.77852501161E+02  0.95030387641E+02  0.00000000000E+00 0. -1.
          1    1    5    5  503    0 -0.19746926929E+03 -0.73392746497E+02 -0.11095511805E+03  0.23810007512E+03  0.00000000000E+00 0. -1.
         -2    1    5    5    0  503 -0.59408883193E+03 -0.76633187475E+02 -0.32833247472E+03  0.68309325835E+03  0.00000000000E+00 0.  1.
         -1    1    6    6    0  502 -0.31109270736E+03 -0.24266585212E+03  0.30192395477E+03  0.49681330781E+03  0.00000000000E+00 0.  1.
<mgrwt>
<rscale>  0 0.32969802E+04</rscale>
<asrwt>0</asrwt>
<pdfrwt beam="1">  1        2 0.43387308E+00 0.32969802E+04</pdfrwt>
<pdfrwt beam="2">  1       -2 0.14824610E+00 0.32969802E+04</pdfrwt>
<totfact> 0.58024386E-01</totfact>
</mgrwt>
</event>
<event>
12    1  0.1536832E-007  0.1144493E+04  0.7818608E-02  0.9162879E-01
         -1   -1    0    0    0  501 -0.00000000000E+00  0.00000000000E+00  0.26673013015E+03  0.26673013015E+03  0.00000000000E+00 0.  1.
          1   -1    0    0  501    0  0.00000000000E+00 -0.00000000000E+00 -0.12277064685E+04  0.12277064685E+04  0.00000000000E+00 0. -1.
         23    2    1    2    0    0 -0.97879166868E+02  0.19783434792E+03 -0.10851139606E+03  0.26419215126E+03  0.96457292043E+02 0.  0.
        254    2    1    2    0    0  0.97879166868E+02 -0.19783434792E+03 -0.85246494227E+03  0.12302444474E+04  0.85911941077E+03 0.  0.
        -24    2    4    4    0    0 -0.23327223639E+01 -0.22181844036E+03  0.10906095548E+03  0.25989725362E+03  0.80270968309E+02 0.  0.
         24    2    4    4    0    0  0.10021188923E+03  0.23984092448E+02 -0.96152589774E+03  0.97034719375E+03  0.80149640965E+02 0.  0.
         13    1    3    3    0    0 -0.21684806101E+02 -0.12168903012E+01 -0.30040826883E+02  0.37069703498E+02  0.00000000000E+00 0. -1.
        -13    1    3    3    0    0 -0.76194360767E+02  0.19905123822E+03 -0.78470569178E+02  0.22712244776E+03  0.00000000000E+00 0.  1.
          4    1    6    6  502    0  0.87020026501E+02  0.42504108314E+02 -0.89096887122E+03  0.89621683409E+03  0.00000000000E+00 0. -1.
          3    1    5    5  503    0  0.30773131168E+02 -0.11760436912E+03  0.30724730304E+02  0.12538653153E+03  0.00000000000E+00 0. -1.
         -4    1    5    5    0  503 -0.33105853532E+02 -0.10421407125E+03  0.78336225171E+02  0.13451072209E+03  0.00000000000E+00 0.  1.
         -3    1    6    6    0  502  0.13191862731E+02 -0.18520015866E+02 -0.70557026527E+02  0.74130359653E+02  0.00000000000E+00 0.  1.
<mgrwt>
<rscale>  0 0.11444934E+04</rscale>
<asrwt>0</asrwt>
<pdfrwt beam="1">  1        1 0.18887791E+00 0.11444934E+04</pdfrwt>
<pdfrwt beam="2">  1       -1 0.41035406E-01 0.11444934E+04</pdfrwt>
<totfact> 0.58858853E+01</totfact>
</mgrwt>
</event>
<event>
12    1  0.1536832E-007  0.2155606E+04  0.7818608E-02  0.8537136E-01
          2   -1    0    0  501    0  0.00000000000E+00  0.00000000000E+00  0.15309895703E+04  0.15309895703E+04  0.00000000000E+00 0.  1.
         -2   -1    0    0    0  501 -0.00000000000E+00 -0.00000000000E+00 -0.75876388576E+03  0.75876388576E+03  0.00000000000E+00 0. -1.
         23    2    1    2    0    0  0.66591580818E+03  0.49349788626E+03 -0.96523819582E+01  0.83413524922E+03  0.93297471484E+02 0.  0.
        254    2    1    2    0    0 -0.66591580818E+03 -0.49349788626E+03  0.78187806648E+03  0.14556182068E+04  0.90581842875E+03 0.  0.
        -24    2    4    4    0    0 -0.35333163216E+03 -0.72583980211E+03  0.39544306388E+03  0.90246943436E+03  0.79932487626E+02 0.  0.
         24    2    4    4    0    0 -0.31258417602E+03  0.23234191585E+03  0.38643500260E+03  0.55314877246E+03  0.70355669855E+02 0.  0.
         11    1    3    3    0    0  0.20252916532E+02  0.18811110890E+02 -0.17504927644E+02  0.32717900495E+02  0.00000000000E+00 0. -1.
        -11    1    3    3    0    0  0.64566289165E+03  0.47468677537E+03  0.78525456861E+01  0.80141734872E+03  0.00000000000E+00 0.  1.
          2    1    6    6  502    0 -0.26683058042E+03  0.22298769965E+03  0.35445361128E+03  0.49654751575E+03  0.00000000000E+00 0. -1.
          3    1    5    5  503    0 -0.35303353608E+03 -0.68725559559E+03  0.37737619267E+03  0.85986378111E+03  0.00000000000E+00 0. -1.
         -4    1    5    5    0  503 -0.29809607910E+00 -0.38584206517E+02  0.18066871211E+02  0.42605653253E+02  0.00000000000E+00 0.  1.
         -1    1    6    6    0  502 -0.45753595598E+02  0.93542162015E+01  0.31981391314E+02  0.56601256711E+02  0.00000000000E+00 0.  1.
<mgrwt>
<rscale>  0 0.21556063E+04</rscale>
<asrwt>0</asrwt>
<pdfrwt beam="1">  1        2 0.23553686E+00 0.21556063E+04</pdfrwt>
<pdfrwt beam="2">  1       -2 0.11673291E+00 0.21556063E+04</pdfrwt>
<totfact> 0.63593629E+00</totfact>
</mgrwt>
</event>
<event>
12    1  0.1536832E-007  0.1167923E+04  0.7818608E-02  0.9141406E-01
         -1   -1    0    0    0  501 -0.00000000000E+00  0.00000000000E+00  0.20154406420E+03  0.20154406420E+03  0.00000000000E+00 0.  1.
          1   -1    0    0  501    0  0.00000000000E+00 -0.00000000000E+00 -0.16919928516E+04  0.16919928516E+04  0.00000000000E+00 0. -1.
         23    2    1    2    0    0 -0.18880413947E+03  0.11574527703E+03 -0.48643416644E+03  0.54210627040E+03  0.90647878537E+02 0.  0.
        254    2    1    2    0    0  0.18880413947E+03 -0.11574527703E+03 -0.10040146209E+04  0.13514306454E+04  0.87708349546E+03 0.  0.
        -24    2    4    4    0    0  0.92191442080E+02 -0.33390949497E+03 -0.42816909212E+02  0.35790434005E+03  0.79167013911E+02 0.  0.
         24    2    4    4    0    0  0.96612697392E+02  0.21816421794E+03 -0.96119771173E+03  0.99352630534E+03  0.79144419194E+02 0.  0.
         11    1    3    3    0    0 -0.24154155337E+02  0.37536534903E+02 -0.18093187096E+03  0.18635653088E+03  0.00000000000E+00 0. -1.
        -11    1    3    3    0    0 -0.16464998413E+03  0.78208742131E+02 -0.30550229549E+03  0.35574973952E+03  0.00000000000E+00 0.  1.
          2    1    6    6  502    0  0.55982008375E+02  0.17638268327E+03 -0.60752143856E+03  0.63508041580E+03  0.00000000000E+00 0. -1.
          3    1    5    5  503    0  0.96020733714E+02 -0.31815067781E+03 -0.24185993213E+02  0.33320383756E+03  0.00000000000E+00 0. -1.
         -4    1    5    5    0  503 -0.38292916332E+01 -0.15758817155E+02 -0.18630915999E+02  0.24700502495E+02  0.00000000000E+00 0.  1.
         -1    1    6    6    0  502  0.40630689016E+02  0.41781534664E+02 -0.35367627317E+03  0.35844588954E+03  0.00000000000E+00 0.  1.
<mgrwt>
<rscale>  0 0.11679231E+04</rscale>
<asrwt>0</asrwt>
<pdfrwt beam="1">  1        1 0.26030660E+00 0.11679231E+04</pdfrwt>
<pdfrwt beam="2">  1       -1 0.31006779E-01 0.11679231E+04</pdfrwt>
<totfact> 0.46109126E+01</totfact>
</mgrwt>
</event>
<event>
12    1  0.1536832E-007  0.1856260E+04  0.7818608E-02  0.8676940E-01
          1   -1    0    0  501    0  0.00000000000E+00  0.00000000000E+00  0.12286922719E+04  0.12286922719E+04  0.00000000000E+00 0. -1.
         -1   -1    0    0    0  501 -0.00000000000E+00 -0.00000000000E+00 -0.70109111904E+03  0.70109111904E+03  0.00000000000E+00 0.  1.
         23    2    1    2    0    0  0.65010853405E+03  0.21117260170E+03 -0.21162849461E+02  0.68983032463E+03  0.90460139422E+02 0.  0.
        254    2    1    2    0    0 -0.65010853405E+03 -0.21117260170E+03  0.54876400232E+03  0.12399530663E+04  0.87698728763E+03 0.  0.
        -24    2    4    4    0    0  0.10002571042E+03 -0.32371444827E+03  0.15313871974E+03  0.38075899738E+03  0.82035113438E+02 0.  0.
         24    2    4    4    0    0 -0.75013424447E+03  0.11254184657E+03  0.39562528258E+03  0.85919406894E+03  0.79548927870E+02 0.  0.
         13    1    3    3    0    0  0.53240183023E+03  0.14742924823E+03 -0.43391014269E+02  0.55413885641E+03  0.00000000000E+00 0.  1.
        -13    1    3    3    0    0  0.11770670382E+03  0.63743353469E+02  0.22228164808E+02  0.13569146822E+03  0.00000000000E+00 0. -1.
          2    1    6    6  502    0 -0.58797004479E+03  0.10168611007E+03  0.34353259284E+03  0.68852268001E+03  0.00000000000E+00 0. -1.
          3    1    5    5  503    0  0.59256486231E+02 -0.27227314681E+03  0.14643066691E+03  0.31477918903E+03  0.00000000000E+00 0. -1.
         -4    1    5    5    0  503  0.40769224188E+02 -0.51441301462E+02  0.67080528267E+01  0.65979808348E+02  0.00000000000E+00 0.  1.
         -1    1    6    6    0  502 -0.16216419968E+03  0.10855736499E+02  0.52092689747E+02  0.17067138893E+03  0.00000000000E+00 0.  1.
<mgrwt>
<rscale>  0 0.18562599E+04</rscale>
<asrwt>0</asrwt>
<pdfrwt beam="1">  1        1 0.18902958E+00 0.18562599E+04</pdfrwt>
<pdfrwt beam="2">  1       -1 0.10786017E+00 0.18562599E+04</pdfrwt>
<totfact> 0.76450866E+00</totfact>
</mgrwt>
</event>
<event>
12    1  0.1536832E-007  0.1177184E+04  0.7818608E-02  0.9133065E-01
          2   -1    0    0  501    0  0.00000000000E+00  0.00000000000E+00  0.21347077309E+04  0.21347077309E+04  0.00000000000E+00 0. -1.
         -2   -1    0    0    0  501 -0.00000000000E+00 -0.00000000000E+00 -0.16228937907E+03  0.16228937907E+03  0.00000000000E+00 0.  1.
         23    2    1    2    0    0  0.28153863356E+02 -0.30159959165E+02 -0.33066630598E+02  0.10190429233E+03  0.87113831145E+02 0.  0.
        254    2    1    2    0    0 -0.28153863356E+02  0.30159959165E+02  0.20054849825E+04  0.21950928177E+04  0.89149324180E+03 0.  0.
        -24    2    4    4    0    0 -0.25424756266E+03 -0.29673320042E+03  0.14727617290E+04  0.15257326758E+04  0.78362440972E+02 0.  0.
         24    2    4    4    0    0  0.22609369931E+03  0.32689315958E+03  0.53272325346E+03  0.66936014190E+03  0.79192399536E+02 0.  0.
         11    1    3    3    0    0  0.37340589795E+02  0.13517679844E+02 -0.40425906144E+02  0.56668343915E+02  0.00000000000E+00 0.  1.
        -11    1    3    3    0    0 -0.91867264390E+01 -0.43677639009E+02  0.73592755454E+01  0.45235948411E+02  0.00000000000E+00 0. -1.
          4    1    6    6  502    0 -0.41199195695E+01  0.26392085960E+02  0.36599486018E+02  0.45310465848E+02  0.00000000000E+00 0. -1.
          1    1    5    5  503    0 -0.10927050048E+03 -0.82932651485E+02  0.60386291800E+03  0.61924816568E+03  0.00000000000E+00 0. -1.
         -2    1    5    5    0  503 -0.14497706219E+03 -0.21380054893E+03  0.86889881099E+03  0.90648451009E+03  0.00000000000E+00 0.  1.
         -3    1    6    6    0  502  0.23021361888E+03  0.30050107362E+03  0.49612376744E+03  0.62404967606E+03  0.00000000000E+00 0.  1.
<mgrwt>
<rscale>  0 0.11771837E+04</rscale>
<asrwt>0</asrwt>
<pdfrwt beam="1">  1        2 0.32841655E+00 0.11771837E+04</pdfrwt>
<pdfrwt beam="2">  1       -2 0.24967598E-01 0.11771837E+04</pdfrwt>
<totfact> 0.80053446E+01</totfact>
</mgrwt>
</event>
<event>
12    1  0.1536832E-007  0.1751440E+04  0.7818608E-02  0.8732558E-01
         -2   -1    0    0    0  501 -0.00000000000E+00  0.00000000000E+00  0.95175385175E+03  0.95175385175E+03  0.00000000000E+00 0.  1.
          2   -1    0    0  501    0  0.00000000000E+00 -0.00000000000E+00 -0.80576000855E+03  0.80576000855E+03  0.00000000000E+00 0. -1.
         23    2    1    2    0    0 -0.34684921894E+03  0.48034145027E+02  0.58189313783E+03  0.68498777582E+03  0.89425775890E+02 0.  0.
        254    2    1    2    0    0  0.34684921894E+03 -0.48034145027E+02 -0.43589929463E+03  0.10725260845E+04  0.91525534529E+03 0.  0.
        -24    2    4    4    0    0 -0.24017787545E+03  0.16889434997E+03  0.15345158784E+01  0.30468193248E+03  0.81351164312E+02 0.  0.
         24    2    4    4    0    0  0.58702709440E+03 -0.21692849499E+03 -0.43743381050E+03  0.76784415200E+03  0.81101921634E+02 0.  0.
         11    1    3    3    0    0 -0.29951080883E+03  0.98375133842E+01  0.46463452395E+03  0.55289125705E+03  0.00000000000E+00 0.  1.
        -11    1    3    3    0    0 -0.47338410110E+02  0.38196631643E+02  0.11725861389E+03  0.13209651877E+03  0.00000000000E+00 0. -1.
          4    1    6    6  502    0  0.25173718385E+03 -0.13483323741E+03 -0.18641381748E+03  0.34103038426E+03  0.00000000000E+00 0. -1.
          3    1    5    5  503    0 -0.75398593651E+02  0.10100577022E+03 -0.72196941091E+01  0.12625069317E+03  0.00000000000E+00 0. -1.
         -4    1    5    5    0  503 -0.16477928180E+03  0.67888579747E+02  0.87542099875E+01  0.17843123932E+03  0.00000000000E+00 0.  1.
         -3    1    6    6    0  502  0.33528991055E+03 -0.82095257585E+02 -0.25101999302E+03  0.42681376774E+03  0.00000000000E+00 0.  1.
<mgrwt>
<rscale>  0 0.17514396E+04</rscale>
<asrwt>0</asrwt>
<pdfrwt beam="1">  1        2 0.12396308E+00 0.17514396E+04</pdfrwt>
<pdfrwt beam="2">  1       -2 0.14642367E+00 0.17514396E+04</pdfrwt>
<totfact> 0.10322517E+01</totfact>
</mgrwt>
</event>
<event>
12    1  0.1536832E-007  0.1739518E+04  0.7818608E-02  0.8739141E-01
          1   -1    0    0  501    0  0.00000000000E+00  0.00000000000E+00  0.14656232537E+04  0.14656232537E+04  0.00000000000E+00 0. -1.
         -1   -1    0    0    0  501 -0.00000000000E+00 -0.00000000000E+00 -0.51614978882E+03  0.51614978882E+03  0.00000000000E+00 0.  1.
         23    2    1    2    0    0  0.26491295781E+03  0.56691357532E+03  0.45476484989E+03  0.77909252979E+03  0.92758957439E+02 0.  0.
        254    2    1    2    0    0 -0.26491295781E+03 -0.56691357532E+03  0.49470861497E+03  0.12026805127E+04  0.90007439960E+03 0.  0.
        -24    2    4    4    0    0  0.17441254418E+03 -0.39504405402E+03 -0.88586806379E+02  0.44854720105E+03  0.82869953044E+02 0.  0.
         24    2    4    4    0    0 -0.43932550199E+03 -0.17186952130E+03  0.58329542135E+03  0.75413331166E+03  0.77055007197E+02 0.  0.
         13    1    3    3    0    0  0.21346436294E+03  0.40452315472E+03  0.28683257466E+03  0.53988789840E+03  0.00000000000E+00 0. -1.
        -13    1    3    3    0    0  0.51448594873E+02  0.16239042060E+03  0.16793227523E+03  0.23920463140E+03  0.00000000000E+00 0.  1.
          2    1    6    6  502    0 -0.39931967164E+03 -0.13021674662E+03  0.50491872014E+03  0.65677660982E+03  0.00000000000E+00 0. -1.
          1    1    5    5  503    0  0.17838877993E+03 -0.34307212998E+03 -0.87277926895E+02  0.39640696222E+03  0.00000000000E+00 0. -1.
         -2    1    5    5    0  503 -0.39762357504E+01 -0.51971924043E+02 -0.13088794846E+01  0.52140238828E+02  0.00000000000E+00 0.  1.
         -1    1    6    6    0  502 -0.40005830350E+02 -0.41652774673E+02  0.78376701209E+02  0.97356701836E+02  0.00000000000E+00 0.  1.
<mgrwt>
<rscale>  0 0.17395185E+04</rscale>
<asrwt>0</asrwt>
<pdfrwt beam="1">  1        1 0.22548050E+00 0.17395185E+04</pdfrwt>
<pdfrwt beam="2">  1       -1 0.79407660E-01 0.17395185E+04</pdfrwt>
<totfact> 0.10388925E+01</totfact>
</mgrwt>
</event>
<event>
12    1  0.1536832E-007  0.2214249E+04  0.7818608E-02  0.8512521E-01
          1   -1    0    0  501    0  0.00000000000E+00  0.00000000000E+00  0.25729195736E+04  0.25729195736E+04  0.00000000000E+00 0. -1.
         -1   -1    0    0    0  501 -0.00000000000E+00 -0.00000000000E+00 -0.47639427258E+03  0.47639427258E+03  0.00000000000E+00 0.  1.
         23    2    1    2    0    0 -0.43048940597E+02  0.91951772321E+02 -0.37960090452E+03  0.40284670881E+03  0.88770965780E+02 0.  0.
        254    2    1    2    0    0  0.43048940597E+02 -0.91951772321E+02  0.24761262056E+04  0.26464671374E+04  0.92858978226E+03 0.  0.
        -24    2    4    4    0    0  0.16815787330E+03  0.36765417697E+03  0.15248693553E+04  0.15796464012E+04  0.81299064869E+02 0.  0.
         24    2    4    4    0    0 -0.12510893271E+03 -0.45960594929E+03  0.95125685027E+03  0.10668207362E+04  0.79542531438E+02 0.  0.
         13    1    3    3    0    0 -0.55239244409E+01 -0.26742379605E+01  0.30739990143E+01  0.68640192189E+01  0.00000000000E+00 0. -1.
        -13    1    3    3    0    0 -0.37525016156E+02  0.94626010281E+02 -0.38267490353E+03  0.39598268959E+03  0.00000000000E+00 0.  1.
          4    1    6    6  502    0 -0.12677468974E+03 -0.33640168034E+03  0.69441935766E+03  0.78195662078E+03  0.00000000000E+00 0. -1.
          1    1    5    5  503    0  0.12173294691E+03  0.28854097931E+03  0.12907583187E+04  0.13282062507E+04  0.00000000000E+00 0. -1.
         -2    1    5    5    0  503  0.46424926398E+02  0.79113197654E+02  0.23411103661E+03  0.25144015052E+03  0.00000000000E+00 0.  1.
         -3    1    6    6    0  502  0.16657570378E+01 -0.12320426895E+03  0.25683749262E+03  0.28486411541E+03  0.00000000000E+00 0.  1.
<mgrwt>
<rscale>  0 0.22142485E+04</rscale>
<asrwt>0</asrwt>
<pdfrwt beam="1">  1        1 0.39583377E+00 0.22142485E+04</pdfrwt>
<pdfrwt beam="2">  1       -1 0.73291428E-01 0.22142485E+04</pdfrwt>
<totfact> 0.20591421E+00</totfact>
</mgrwt>
</event>
<event>
12    1  0.1536832E-007  0.1758308E+04  0.7818608E-02  0.8728790E-01
          2   -1    0    0  501    0  0.00000000000E+00  0.00000000000E+00  0.65115572266E+03  0.65115572266E+03  0.00000000000E+00 0.  1.
         -2   -1    0    0    0  501 -0.00000000000E+00 -0.00000000000E+00 -0.11869849631E+04  0.11869849631E+04  0.00000000000E+00 0. -1.
         23    2    1    2    0    0 -0.58674555929E+03  0.91281601012E+02  0.68735720904E+02  0.60482121749E+03  0.92094645734E+02 0.  0.
        254    2    1    2    0    0  0.58674555929E+03 -0.91281601012E+02 -0.60456496139E+03  0.12333194683E+04  0.89608896675E+03 0.  0.
        -24    2    4    4    0    0  0.46100740018E+03 -0.32855973324E+03 -0.57416012489E+01  0.57220576430E+03  0.83109261761E+02 0.  0.
         24    2    4    4    0    0  0.12573815911E+03  0.23727813222E+03 -0.59882336014E+03  0.66111370401E+03  0.79818019824E+02 0.  0.
         13    1    3    3    0    0 -0.53473448834E+03  0.85845290158E+02  0.88793615440E+02  0.54881207440E+03  0.00000000000E+00 0.  1.
        -13    1    3    3    0    0 -0.52011070952E+02  0.54363108541E+01 -0.20057894537E+02  0.56009143097E+02  0.00000000000E+00 0. -1.
          2    1    6    6  502    0  0.12430331273E+03  0.15884712798E+03 -0.43130566498E+03  0.47613895059E+03  0.00000000000E+00 0. -1.
          3    1    5    5  503    0  0.29062311924E+03 -0.25418651792E+03  0.26331928623E+01  0.38610816753E+03  0.00000000000E+00 0. -1.
         -4    1    5    5    0  503  0.17038428093E+03 -0.74373215316E+02 -0.83747941112E+01  0.18609759677E+03  0.00000000000E+00 0.  1.
         -1    1    6    6    0  502  0.14348463814E+01  0.78431004244E+02 -0.16751769516E+03  0.18497475342E+03  0.00000000000E+00 0.  1.
<mgrwt>
<rscale>  0 0.17583083E+04</rscale>
<asrwt>0</asrwt>
<pdfrwt beam="1">  1        2 0.10017780E+00 0.17583083E+04</pdfrwt>
<pdfrwt beam="2">  1       -2 0.18261307E+00 0.17583083E+04</pdfrwt>
<totfact> 0.73866158E+00</totfact>
</mgrwt>
</event>
<event>
12    1  0.1536832E-007  0.1241988E+04  0.7818608E-02  0.9076878E-01
          2   -1    0    0  501    0  0.00000000000E+00  0.00000000000E+00  0.31711866363E+04  0.31711866363E+04  0.00000000000E+00 0. -1.
         -2   -1    0    0    0  501 -0.00000000000E+00 -0.00000000000E+00 -0.12160551661E+03  0.12160551661E+03  0.00000000000E+00 0.  1.
         23    2    1    2    0    0  0.25684301481E+01  0.20749972397E+03  0.23096925292E+03  0.32503678373E+03  0.96121707752E+02 0.  0.
        254    2    1    2    0    0 -0.25684301481E+01 -0.20749972397E+03  0.28186118668E+04  0.29677553692E+04  0.90550336470E+03 0.  0.
        -24    2    4    4    0    0  0.17945140118E+03 -0.42519936264E+03  0.24563743496E+04  0.25004624203E+04  0.74431622960E+02 0.  0.
         24    2    4    4    0    0 -0.18201983133E+03  0.21769963867E+03  0.36223751718E+03  0.46729294890E+03  0.81377696972E+02 0.  0.
         11    1    3    3    0    0 -0.17308597287E+02 -0.27002929708E+01  0.19364940233E+02  0.26112832715E+02  0.00000000000E+00 0. -1.
        -11    1    3    3    0    0  0.19877027435E+02  0.21020001694E+03  0.21160431269E+03  0.29892395101E+03  0.00000000000E+00 0.  1.
          2    1    6    6  502    0 -0.84720458471E+02  0.13978416134E+03  0.15385701865E+03  0.22447527711E+03  0.00000000000E+00 0. -1.
          3    1    5    5  503    0  0.15500582238E+03 -0.35744826253E+03  0.21967329890E+04  0.22310158875E+04  0.00000000000E+00 0. -1.
         -4    1    5    5    0  503  0.24445578802E+02 -0.67751100110E+02  0.25964136058E+03  0.26944653275E+03  0.00000000000E+00 0.  1.
         -3    1    6    6    0  502 -0.97299372859E+02  0.77915477330E+02  0.20838049853E+03  0.24281767179E+03  0.00000000000E+00 0.  1.
<mgrwt>
<rscale>  0 0.12419884E+04</rscale>
<asrwt>0</asrwt>
<pdfrwt beam="1">  1        2 0.48787480E+00 0.12419884E+04</pdfrwt>
<pdfrwt beam="2">  1       -2 0.18708543E-01 0.12419884E+04</pdfrwt>
<totfact> 0.32537979E+01</totfact>
</mgrwt>
</event>
<event>
12    1  0.1536832E-007  0.1840199E+04  0.7818608E-02  0.8685210E-01
         -1   -1    0    0    0  501 -0.00000000000E+00  0.00000000000E+00  0.11936536132E+04  0.11936536132E+04  0.00000000000E+00 0.  1.
          1   -1    0    0  501    0  0.00000000000E+00 -0.00000000000E+00 -0.70923673665E+03  0.70923673665E+03  0.00000000000E+00 0. -1.
         23    2    1    2    0    0  0.13994384148E+03  0.62878105599E+03  0.47240644337E+03  0.80395689386E+03  0.90713528818E+02 0.  0.
        254    2    1    2    0    0 -0.13994384148E+03 -0.62878105599E+03  0.12010433148E+02  0.10989334560E+04  0.89025872362E+03 0.  0.
        -24    2    4    4    0    0 -0.18902812204E+03 -0.69025783794E+03  0.30688963006E+03  0.78359825555E+03  0.87506955747E+02 0.  0.
         24    2    4    4    0    0  0.49084280565E+02  0.61476781950E+02 -0.29487919691E+03  0.31533520041E+03  0.79334018718E+02 0.  0.
         13    1    3    3    0    0  0.72630870213E+02  0.39416092426E+03  0.24134957695E+03  0.46785435321E+03  0.00000000000E+00 0. -1.
        -13    1    3    3    0    0  0.67312971265E+02  0.23462013173E+03  0.23105686643E+03  0.33610254066E+03  0.00000000000E+00 0.  1.
          4    1    6    6  502    0  0.47816214065E+02  0.40771122445E+02 -0.92082790549E+02  0.11148055915E+03  0.00000000000E+00 0. -1.
          1    1    5    5  503    0 -0.40662465965E+02 -0.56147192317E+02  0.21582430882E+02  0.72606781131E+02  0.00000000000E+00 0. -1.
         -2    1    5    5    0  503 -0.14836565608E+03 -0.63411064562E+03  0.28530719918E+03  0.71099147442E+03  0.00000000000E+00 0.  1.
         -3    1    6    6    0  502  0.12680665010E+01  0.20705659506E+02 -0.20279640636E+03  0.20385464126E+03  0.00000000000E+00 0.  1.
<mgrwt>
<rscale>  0 0.18401989E+04</rscale>
<asrwt>0</asrwt>
<pdfrwt beam="1">  1        1 0.10911334E+00 0.18401989E+04</pdfrwt>
<pdfrwt beam="2">  1       -1 0.18363902E+00 0.18401989E+04</pdfrwt>
<totfact> 0.49212675E+00</totfact>
</mgrwt>
</event>
<event>
12    1  0.1536832E-007  0.2309432E+04  0.7818608E-02  0.8474212E-01
         -2   -1    0    0    0  501 -0.00000000000E+00  0.00000000000E+00  0.88948596075E+03  0.88948596075E+03  0.00000000000E+00 0.  1.
          2   -1    0    0  501    0  0.00000000000E+00 -0.00000000000E+00 -0.14990328722E+04  0.14990328722E+04  0.00000000000E+00 0. -1.
         23    2    1    2    0    0 -0.80256132704E+03 -0.15581517429E+03  0.29363140915E+03  0.87435454622E+03  0.99465651689E+02 0.  0.
        254    2    1    2    0    0  0.80256132704E+03  0.15581517429E+03 -0.90317832055E+03  0.15141642867E+04  0.89921040704E+03 0.  0.
        -24    2    4    4    0    0  0.54278355096E+03 -0.34258239347E+03 -0.44804294045E+03  0.78660812625E+03  0.77673600902E+02 0.  0.
         24    2    4    4    0    0  0.25977777608E+03  0.49839756777E+03 -0.45513538010E+03  0.72755616043E+03  0.79404810060E+02 0.  0.
         11    1    3    3    0    0 -0.66653933670E+02 -0.30839802202E+02  0.35568217834E+01  0.73528846413E+02  0.00000000000E+00 0. -1.
        -11    1    3    3    0    0 -0.73590739337E+03 -0.12497537209E+03  0.29007458736E+03  0.80082569981E+03  0.00000000000E+00 0.  1.
          2    1    6    6  502    0  0.81988499377E+02  0.18436987324E+03 -0.11820936412E+03  0.23385426649E+03  0.00000000000E+00 0. -1.
          3    1    5    5  503    0  0.15994671125E+03 -0.11795157667E+03 -0.99536235957E+02  0.22226782751E+03  0.00000000000E+00 0. -1.
         -4    1    5    5    0  503  0.38283683971E+03 -0.22463081680E+03 -0.34850670450E+03  0.56434029873E+03  0.00000000000E+00 0.  1.
         -1    1    6    6    0  502  0.17778927670E+03  0.31402769453E+03 -0.33692601598E+03  0.49370189394E+03  0.00000000000E+00 0.  1.
<mgrwt>
<rscale>  0 0.23094317E+04</rscale>
<asrwt>0</asrwt>
<pdfrwt beam="1">  1        2 0.23062044E+00 0.23094317E+04</pdfrwt>
<pdfrwt beam="2">  1       -2 0.13684399E+00 0.23094317E+04</pdfrwt>
<totfact> 0.43879675E+00</totfact>
</mgrwt>
</event>
<event>
12    1  0.1536832E-007  0.1476353E+04  0.7818608E-02  0.8900332E-01
          2   -1    0    0  501    0  0.00000000000E+00  0.00000000000E+00  0.11342789328E+04  0.11342789328E+04  0.00000000000E+00 0. -1.
         -2   -1    0    0    0  501 -0.00000000000E+00 -0.00000000000E+00 -0.48039744732E+03  0.48039744732E+03  0.00000000000E+00 0.  1.
         23    2    1    2    0    0 -0.45527877553E+03 -0.10356181795E+03  0.21113891509E+03  0.52054028038E+03  0.91535394519E+02 0.  0.
        254    2    1    2    0    0  0.45527877553E+03  0.10356181795E+03  0.44274257036E+03  0.10941360997E+04  0.88493446508E+03 0.  0.
        -24    2    4    4    0    0  0.19095759697E+03  0.44593639583E+03  0.32161080699E+02  0.49268296790E+03  0.79863000072E+02 0.  0.
         24    2    4    4    0    0  0.26432117856E+03 -0.34237457789E+03  0.41058148966E+03  0.60145313180E+03  0.77991493705E+02 0.  0.
         13    1    3    3    0    0 -0.95937655032E+02  0.64279923801E+01  0.17302606763E+02  0.97697149088E+02  0.00000000000E+00 0.  1.
        -13    1    3    3    0    0 -0.35934112050E+03 -0.10998981033E+03  0.19383630832E+03  0.42284313129E+03  0.00000000000E+00 0. -1.
          4    1    6    6  502    0  0.19288209364E+03 -0.23699341337E+03  0.33486641887E+03  0.45332648115E+03  0.00000000000E+00 0. -1.
          1    1    5    5  503    0  0.18352243589E+03  0.44759591799E+03  0.33622943378E+02  0.48492586299E+03  0.00000000000E+00 0. -1.
         -2    1    5    5    0  503  0.74351610844E+01 -0.16595221570E+01 -0.14618626790E+01  0.77571049131E+01  0.00000000000E+00 0.  1.
         -3    1    6    6    0  502  0.71439084921E+02 -0.10538116452E+03  0.75715070791E+02  0.14812665066E+03  0.00000000000E+00 0.  1.
<mgrwt>
<rscale>  0 0.14763532E+04</rscale>
<asrwt>0</asrwt>
<pdfrwt beam="1">  1        2 0.17450445E+00 0.14763532E+04</pdfrwt>
<pdfrwt beam="2">  1       -2 0.73907300E-01 0.14763532E+04</pdfrwt>
<totfact> 0.33143215E+01</totfact>
</mgrwt>
</event>
<event>
12    1  0.1536832E-007  0.1502757E+04  0.7818608E-02  0.8882622E-01
         -2   -1    0    0    0  501 -0.00000000000E+00  0.00000000000E+00  0.34823988038E+03  0.34823988038E+03  0.00000000000E+00 0.  1.
          2   -1    0    0  501    0  0.00000000000E+00 -0.00000000000E+00 -0.16212081779E+04  0.16212081779E+04  0.00000000000E+00 0. -1.
         23    2    1    2    0    0 -0.35795917039E+03  0.12610156190E+03 -0.78439167027E+03  0.87614746183E+03  0.91256292455E+02 0.  0.
        254    2    1    2    0    0  0.35795917039E+03 -0.12610156190E+03 -0.48857662723E+03  0.10933005964E+04  0.90142259896E+03 0.  0.
        -24    2    4    4    0    0 -0.24164088409E+03 -0.79012927214E+02  0.62889200554E+02  0.27354841940E+03  0.78995738344E+02 0.  0.
         24    2    4    4    0    0  0.59960005448E+03 -0.47088634681E+02 -0.55146582778E+03  0.81975217704E+03  0.78367772078E+02 0.  0.
         11    1    3    3    0    0 -0.28477087819E+03  0.99708227917E+02 -0.52706969973E+03  0.60732088071E+03  0.00000000000E+00 0. -1.
        -11    1    3    3    0    0 -0.73188292197E+02  0.26393333979E+02 -0.25732197054E+03  0.26882658112E+03  0.00000000000E+00 0.  1.
          4    1    6    6  502    0  0.22095849644E+02  0.10713289974E+02 -0.11857040230E+02  0.27268856899E+02  0.00000000000E+00 0. -1.
          3    1    5    5  503    0 -0.11144382479E+03 -0.47328760280E+02  0.69099715359E+02  0.13940770530E+03  0.00000000000E+00 0. -1.
         -4    1    5    5    0  503 -0.13019705930E+03 -0.31684166934E+02 -0.62105148045E+01  0.13414071410E+03  0.00000000000E+00 0.  1.
         -3    1    6    6    0  502  0.57750420483E+03 -0.57801924655E+02 -0.53960878755E+03  0.79248332014E+03  0.00000000000E+00 0.  1.
<mgrwt>
<rscale>  0 0.15027566E+04</rscale>
<asrwt>0</asrwt>
<pdfrwt beam="1">  1        2 0.24941665E+00 0.15027566E+04</pdfrwt>
<pdfrwt beam="2">  1       -2 0.53575366E-01 0.15027566E+04</pdfrwt>
<totfact> 0.34408792E+01</totfact>
</mgrwt>
</event>
<event>
12    1  0.1536832E-007  0.1083862E+04  0.7818608E-02  0.9221065E-01
         -2   -1    0    0    0  501 -0.00000000000E+00  0.00000000000E+00  0.52611538446E+03  0.52611538446E+03  0.00000000000E+00 0.  1.
          2   -1    0    0  501    0  0.00000000000E+00 -0.00000000000E+00 -0.55822211930E+03  0.55822211930E+03  0.00000000000E+00 0. -1.
         23    2    1    2    0    0 -0.24717337624E+02  0.14499903698E+03  0.29014364807E+02  0.17537544059E+03  0.90989253726E+02 0.  0.
        254    2    1    2    0    0  0.24717337624E+02 -0.14499903698E+03 -0.61121099646E+02  0.90896206317E+03  0.89489696388E+03 0.  0.
        -24    2    4    4    0    0  0.34774403467E+02  0.12250355184E+03 -0.42435309428E+03  0.45113460088E+03  0.85032347609E+02 0.  0.
         24    2    4    4    0    0 -0.10057065842E+02 -0.26750258882E+03  0.36323199463E+03  0.45782746230E+03  0.77522407815E+02 0.  0.
         11    1    3    3    0    0 -0.97475908356E+01  0.79150273296E+02  0.61242176315E+02  0.10055041248E+03  0.00000000000E+00 0.  1.
        -11    1    3    3    0    0 -0.14969746789E+02  0.65848763684E+02 -0.32227811508E+02  0.74825028113E+02  0.00000000000E+00 0. -1.
          4    1    6    6  502    0 -0.28483951546E+02 -0.90103217432E+02  0.17256564709E+03  0.19674559167E+03  0.00000000000E+00 0. -1.
          1    1    5    5  503    0  0.55976651296E+02  0.11906141415E+03 -0.36970876707E+03  0.39242015529E+03  0.00000000000E+00 0. -1.
         -2    1    5    5    0  503 -0.21202247830E+02  0.34421376827E+01 -0.54644327203E+02  0.58714445585E+02  0.00000000000E+00 0.  1.
         -3    1    6    6    0  502  0.18426885704E+02 -0.17739937138E+03  0.19066634754E+03  0.26108187063E+03  0.00000000000E+00 0.  1.
<mgrwt>
<rscale>  0 0.10838621E+04</rscale>
<asrwt>0</asrwt>
<pdfrwt beam="1">  1        2 0.85880326E-01 0.10838621E+04</pdfrwt>
<pdfrwt beam="2">  1       -2 0.80940828E-01 0.10838621E+04</pdfrwt>
<totfact> 0.72416750E+01</totfact>
</mgrwt>
</event>
<event>
12    1  0.1536832E-007  0.1202882E+04  0.7818608E-02  0.9110338E-01
         -4   -1    0    0    0  501 -0.00000000000E+00  0.00000000000E+00  0.10474025189E+04  0.10474025189E+04  0.00000000000E+00 0.  1.
          4   -1    0    0  501    0  0.00000000000E+00 -0.00000000000E+00 -0.34536018364E+03  0.34536018364E+03  0.00000000000E+00 0. -1.
         23    2    1    2    0    0  0.13143972633E+03 -0.20433655109E+03  0.22521017867E+03  0.34605953071E+03  0.10003872477E+03 0.  0.
        254    2    1    2    0    0 -0.13143972633E+03  0.20433655109E+03  0.47683215655E+03  0.10467031718E+04  0.89954921852E+03 0.  0.
        -24    2    4    4    0    0 -0.40451821636E+03 -0.17429245490E+03  0.15442538009E+03  0.47361070229E+03  0.80293537135E+02 0.  0.
         24    2    4    4    0    0  0.27307849003E+03  0.37862900599E+03  0.32240677646E+03  0.57309246949E+03  0.80975695024E+02 0.  0.
         13    1    3    3    0    0  0.45639110465E+02 -0.15125436555E+03  0.16558349108E+03  0.22886394216E+03  0.00000000000E+00 0.  1.
        -13    1    3    3    0    0  0.85800615863E+02 -0.53082185540E+02  0.59626687593E+02  0.11719558856E+03  0.00000000000E+00 0. -1.
          2    1    6    6  502    0  0.36230158579E+02  0.14521642918E+02  0.20266178876E+02  0.43979773874E+02  0.00000000000E+00 0. -1.
          3    1    5    5  503    0 -0.19516637831E+02 -0.31583100814E+02  0.13083669937E+02  0.39364626612E+02  0.00000000000E+00 0. -1.
         -4    1    5    5    0  503 -0.38500157853E+03 -0.14270935409E+03  0.14134171016E+03  0.43424607568E+03  0.00000000000E+00 0.  1.
         -1    1    6    6    0  502  0.23684833145E+03  0.36410736307E+03  0.30214059758E+03  0.52911269562E+03  0.00000000000E+00 0.  1.
<mgrwt>
<rscale>  0 0.12028818E+04</rscale>
<asrwt>0</asrwt>
<pdfrwt beam="1">  1        4 0.53132336E-01 0.12028818E+04</pdfrwt>
<pdfrwt beam="2">  1       -4 0.16113885E+00 0.12028818E+04</pdfrwt>
<totfact> 0.16404863E+00</totfact>
</mgrwt>
</event>
<event>
12    1  0.1536832E-007  0.3302318E+04  0.7818608E-02  0.8162306E-01
          2   -1    0    0  501    0  0.00000000000E+00  0.00000000000E+00  0.21124152457E+04  0.21124152457E+04  0.00000000000E+00 0. -1.
         -2   -1    0    0    0  501 -0.00000000000E+00 -0.00000000000E+00 -0.12906204716E+04  0.12906204716E+04  0.00000000000E+00 0.  1.
         23    2    1    2    0    0  0.70248598094E+03  0.10912849101E+04  0.12113920585E+04  0.17776618056E+04  0.90672306565E+02 0.  0.
        254    2    1    2    0    0 -0.70248598094E+03 -0.10912849101E+04 -0.38959728441E+03  0.16253739118E+04  0.89758843619E+03 0.  0.
        -24    2    4    4    0    0 -0.41298200631E+03 -0.11832459207E+04 -0.24514616289E+03  0.12794652536E+04  0.79433289759E+02 0.  0.
         24    2    4    4    0    0 -0.28950397463E+03  0.91961010668E+02 -0.14445112151E+03  0.34590865820E+03  0.80729762198E+02 0.  0.
         13    1    3    3    0    0  0.61860411631E+03  0.90620968750E+03  0.10023014898E+04  0.14861007122E+04  0.00000000000E+00 0. -1.
        -13    1    3    3    0    0  0.83881864631E+02  0.18507522255E+03  0.20909056872E+03  0.29156109333E+03  0.00000000000E+00 0.  1.
          2    1    6    6  502    0 -0.59980396549E+02  0.16074532309E+02  0.39953534198E+01  0.62225408059E+02  0.00000000000E+00 0. -1.
          1    1    5    5  503    0 -0.67488289813E+01 -0.54242914768E+02  0.73934106720E+00  0.54666142358E+02  0.00000000000E+00 0. -1.
         -2    1    5    5    0  503 -0.40623317733E+03 -0.11290030060E+04 -0.24588550396E+03  0.12247991112E+04  0.00000000000E+00 0.  1.
         -1    1    6    6    0  502 -0.22952357808E+03  0.75886478359E+02 -0.14844647493E+03  0.28368325014E+03  0.00000000000E+00 0.  1.
<mgrwt>
<rscale>  0 0.33023182E+04</rscale>
<asrwt>0</asrwt>
<pdfrwt beam="1">  1        2 0.32498696E+00 0.33023182E+04</pdfrwt>
<pdfrwt beam="2">  1       -2 0.19855700E+00 0.33023182E+04</pdfrwt>
<totfact> 0.65646281E-01</totfact>
</mgrwt>
</event>
<event>
12    1  0.1536832E-007  0.2056638E+04  0.7818608E-02  0.8580589E-01
          1   -1    0    0  501    0  0.00000000000E+00  0.00000000000E+00  0.17244866734E+04  0.17244866734E+04  0.00000000000E+00 0. -1.
         -1   -1    0    0    0  501 -0.00000000000E+00 -0.00000000000E+00 -0.61319129819E+03  0.61319129819E+03  0.00000000000E+00 0.  1.
         23    2    1    2    0    0 -0.28039936027E+03  0.35840242287E+03 -0.32826050048E+03  0.57041477237E+03  0.10267403959E+03 0.  0.
        254    2    1    2    0    0  0.28039936027E+03 -0.35840242287E+03  0.14395558757E+04  0.17672631992E+04  0.91859784353E+03 0.  0.
        -24    2    4    4    0    0  0.59033489609E+03 -0.15577665132E+03  0.10887850083E+04  0.12508232694E+04  0.79651756092E+02 0.  0.
         24    2    4    4    0    0 -0.30993553582E+03 -0.20262577155E+03  0.35077086733E+03  0.51643992981E+03  0.80949120260E+02 0.  0.
         13    1    3    3    0    0 -0.69403856261E+02  0.91497900627E+02 -0.31852513170E+02  0.11917778182E+03  0.00000000000E+00 0. -1.
        -13    1    3    3    0    0 -0.21099550400E+03  0.26690452224E+03 -0.29640798731E+03  0.45123699055E+03  0.00000000000E+00 0.  1.
          4    1    6    6  502    0 -0.15177782558E+03 -0.54736707678E+02  0.16992236816E+03  0.23432077736E+03  0.00000000000E+00 0. -1.
          1    1    5    5  503    0  0.24692194836E+03 -0.10505427548E+03  0.49193448312E+03  0.56036272633E+03  0.00000000000E+00 0. -1.
         -2    1    5    5    0  503  0.34341294773E+03 -0.50722375840E+02  0.59685052521E+03  0.69046054306E+03  0.00000000000E+00 0.  1.
         -3    1    6    6    0  502 -0.15815771025E+03 -0.14788906387E+03  0.18084849917E+03  0.28211915244E+03  0.00000000000E+00 0.  1.
<mgrwt>
<rscale>  0 0.20566382E+04</rscale>
<asrwt>0</asrwt>
<pdfrwt beam="1">  1        1 0.26530564E+00 0.20566382E+04</pdfrwt>
<pdfrwt beam="2">  1       -1 0.94337124E-01 0.20566382E+04</pdfrwt>
<totfact> 0.46045365E+00</totfact>
</mgrwt>
</event>
<event>
12    1  0.1536832E-007  0.3292254E+04  0.7818608E-02  0.8164869E-01
         -2   -1    0    0    0  501 -0.00000000000E+00  0.00000000000E+00  0.17950899698E+04  0.17950899698E+04  0.00000000000E+00 0.  1.
          2   -1    0    0  501    0  0.00000000000E+00 -0.00000000000E+00 -0.15095254449E+04  0.15095254449E+04  0.00000000000E+00 0. -1.
         23    2    1    2    0    0  0.44120840049E+02 -0.51070368506E+03  0.15734504623E+04  0.16573827179E+04  0.91685406132E+02 0.  0.
        254    2    1    2    0    0 -0.44120840049E+02  0.51070368506E+03 -0.12878859374E+04  0.16472326968E+04  0.88992160738E+03 0.  0.
        -24    2    4    4    0    0  0.10361836525E+03  0.73399251160E+03 -0.98352181403E+03  0.12341508366E+04  0.79569818760E+02 0.  0.
         24    2    4    4    0    0 -0.14773920530E+03 -0.22328882654E+03 -0.30436412334E+03  0.41308186023E+03  0.79462763795E+02 0.  0.
         13    1    3    3    0    0  0.26650798460E+02 -0.31710447667E+02  0.12746834177E+03  0.13402983140E+03  0.00000000000E+00 0. -1.
        -13    1    3    3    0    0  0.17470041589E+02 -0.47899323740E+03  0.14459821205E+04  0.15233528865E+04  0.00000000000E+00 0.  1.
          2    1    6    6  502    0 -0.71145091824E+00 -0.45139345072E+02 -0.75160036342E+02  0.87676095368E+02  0.00000000000E+00 0. -1.
          1    1    5    5  503    0  0.22758863455E+02  0.34719834150E+03 -0.41104243746E+03  0.53853555091E+03  0.00000000000E+00 0. -1.
         -2    1    5    5    0  503  0.80859501797E+02  0.38679417010E+03 -0.57247937657E+03  0.69561528567E+03  0.00000000000E+00 0.  1.
         -1    1    6    6    0  502 -0.14702775438E+03 -0.17814948146E+03 -0.22920408700E+03  0.32540576486E+03  0.00000000000E+00 0.  1.
<mgrwt>
<rscale>  0 0.32922539E+04</rscale>
<asrwt>0</asrwt>
<pdfrwt beam="1">  1        2 0.23223469E+00 0.32922539E+04</pdfrwt>
<pdfrwt beam="2">  1       -2 0.27616769E+00 0.32922539E+04</pdfrwt>
<totfact> 0.46564835E-01</totfact>
</mgrwt>
</event>
<event>
12    1  0.1536832E-007  0.1664428E+04  0.7818608E-02  0.8781917E-01
         -2   -1    0    0    0  501 -0.00000000000E+00  0.00000000000E+00  0.99970692904E+03  0.99970692904E+03  0.00000000000E+00 0. -1.
          2   -1    0    0  501    0  0.00000000000E+00 -0.00000000000E+00 -0.69278285798E+03  0.69278285798E+03  0.00000000000E+00 0.  1.
         23    2    1    2    0    0  0.25988826344E+03  0.14645534119E+03  0.62528923630E+03  0.69912945141E+03  0.93831148164E+02 0.  0.
        254    2    1    2    0    0 -0.25988826344E+03 -0.14645534119E+03 -0.31836516524E+03  0.99336033561E+03  0.89242215430E+03 0.  0.
        -24    2    4    4    0    0 -0.90258820366E+02  0.25829869230E+03 -0.44590424668E+03  0.52922013590E+03  0.79865423944E+02 0.  0.
         24    2    4    4    0    0 -0.16962944307E+03 -0.40475403349E+03  0.12753908144E+03  0.46414019971E+03  0.80993407846E+02 0.  0.
         13    1    3    3    0    0  0.17080816780E+03  0.62393561671E+02  0.29141722465E+03  0.34350019730E+03  0.00000000000E+00 0. -1.
        -13    1    3    3    0    0  0.89080095636E+02  0.84061779517E+02  0.33387201165E+03  0.35562925411E+03  0.00000000000E+00 0.  1.
          4    1    6    6  502    0 -0.11446221125E+03 -0.34606932265E+03  0.90994457670E+02  0.37569344579E+03  0.00000000000E+00 0. -1.
          1    1    5    5  503    0 -0.97660337694E+02  0.25932619631E+03 -0.43836346053E+03  0.51860403120E+03  0.00000000000E+00 0. -1.
         -2    1    5    5    0  503  0.74015173283E+01 -0.10275040124E+01 -0.75407861453E+01  0.10616104697E+02  0.00000000000E+00 0.  1.
         -3    1    6    6    0  502 -0.55167231826E+02 -0.58684710839E+02  0.36544623766E+02  0.88446753925E+02  0.00000000000E+00 0.  1.
<mgrwt>
<rscale>  0 0.16644276E+04</rscale>
<asrwt>0</asrwt>
<pdfrwt beam="1">  1        2 0.10658198E+00 0.16644276E+04</pdfrwt>
<pdfrwt beam="2">  1       -2 0.15380107E+00 0.16644276E+04</pdfrwt>
<totfact> 0.11096372E+01</totfact>
</mgrwt>
</event>
<event>
12    1  0.1536832E-007  0.1738584E+04  0.7818608E-02  0.8739660E-01
         -1   -1    0    0    0  501 -0.00000000000E+00  0.00000000000E+00  0.49603455669E+03  0.49603455669E+03  0.00000000000E+00 0.  1.
          1   -1    0    0  501    0  0.00000000000E+00 -0.00000000000E+00 -0.15234186128E+04  0.15234186128E+04  0.00000000000E+00 0. -1.
         23    2    1    2    0    0  0.27417034681E+03  0.33710716509E+03 -0.90816555989E+03  0.10107096449E+04  0.89211446619E+02 0.  0.
        254    2    1    2    0    0 -0.27417034681E+03 -0.33710716509E+03 -0.11921849623E+03  0.10087435246E+04  0.90251860303E+03 0.  0.
        -24    2    4    4    0    0 -0.24013754804E+03 -0.59471217929E+03  0.10862005930E+03  0.65517135529E+03  0.78118943488E+02 0.  0.
         24    2    4    4    0    0 -0.34032798771E+02  0.25760501420E+03 -0.22783855553E+03  0.35357216935E+03  0.74728152779E+02 0.  0.
         13    1    3    3    0    0  0.35199888228E+01  0.22177097767E+02 -0.19212954833E+02  0.29552523074E+02  0.00000000000E+00 0.  1.
        -13    1    3    3    0    0  0.27065035799E+03  0.31493006733E+03 -0.88895260506E+03  0.98115712178E+03  0.00000000000E+00 0. -1.
          4    1    6    6  502    0 -0.10239262631E+02  0.19333477713E+03 -0.20340299920E+03  0.28081303144E+03  0.00000000000E+00 0. -1.
          1    1    5    5  503    0 -0.12532446764E+03 -0.21160466843E+03  0.49865295902E+02  0.25093685585E+03  0.00000000000E+00 0. -1.
         -4    1    5    5    0  503 -0.11481308039E+03 -0.38310751087E+03  0.58754763402E+02  0.40423449943E+03  0.00000000000E+00 0.  1.
         -3    1    6    6    0  502 -0.23793536139E+02  0.64270237068E+02 -0.24435556334E+02  0.72759137901E+02  0.00000000000E+00 0.  1.
<mgrwt>
<rscale>  0 0.17385836E+04</rscale>
<asrwt>0</asrwt>
<pdfrwt beam="1">  1        1 0.23437209E+00 0.17385836E+04</pdfrwt>
<pdfrwt beam="2">  1       -1 0.76313010E-01 0.17385836E+04</pdfrwt>
<totfact> 0.10303980E+01</totfact>
</mgrwt>
</event>
<event>
12    1  0.1536832E-007  0.1741066E+04  0.7818608E-02  0.8738283E-01
          2   -1    0    0  501    0  0.00000000000E+00  0.00000000000E+00  0.23184538619E+04  0.23184538619E+04  0.00000000000E+00 0. -1.
         -2   -1    0    0    0  501 -0.00000000000E+00 -0.00000000000E+00 -0.32686766523E+03  0.32686766523E+03  0.00000000000E+00 0.  1.
         23    2    1    2    0    0  0.58591154509E+03 -0.18167736229E+03  0.74268342916E+03  0.96727696322E+03  0.88017299406E+02 0.  0.
        254    2    1    2    0    0 -0.58591154509E+03  0.18167736229E+03  0.12489027676E+04  0.16780445639E+04  0.93796398286E+03 0.  0.
        -24    2    4    4    0    0 -0.44642880567E+03  0.49502920234E+02  0.13649086848E+04  0.14391745085E+04  0.80612222510E+02 0.  0.
         24    2    4    4    0    0 -0.13948273941E+03  0.13217444206E+03 -0.11600591724E+03  0.23887005545E+03  0.81706871381E+02 0.  0.
         11    1    3    3    0    0  0.22795871706E+03 -0.46413104873E+02  0.33804231201E+03  0.41035589151E+03  0.00000000000E+00 0. -1.
        -11    1    3    3    0    0  0.35795282803E+03 -0.13526425742E+03  0.40464111715E+03  0.55692107171E+03  0.00000000000E+00 0.  1.
          2    1    6    6  502    0 -0.49124257240E+02  0.65390021272E+01 -0.81124754706E+01  0.50217162967E+02  0.00000000000E+00 0. -1.
          1    1    5    5  503    0 -0.16638183910E+03  0.54318944230E+02  0.57711168581E+03  0.60306828965E+03  0.00000000000E+00 0. -1.
         -2    1    5    5    0  503 -0.28004696658E+03 -0.48160239960E+01  0.78779699898E+03  0.83610621884E+03  0.00000000000E+00 0.  1.
         -1    1    6    6    0  502 -0.90358482173E+02  0.12563543993E+03 -0.10789344177E+03  0.18865289249E+03  0.00000000000E+00 0.  1.
<mgrwt>
<rscale>  0 0.17410659E+04</rscale>
<asrwt>0</asrwt>
<pdfrwt beam="1">  1        2 0.35668520E+00 0.17410659E+04</pdfrwt>
<pdfrwt beam="2">  1       -2 0.50287335E-01 0.17410659E+04</pdfrwt>
<totfact> 0.15711205E+01</totfact>
</mgrwt>
</event>
<event>
12    1  0.1536832E-007  0.1164762E+04  0.7818608E-02  0.9144272E-01
         -1   -1    0    0    0  501 -0.00000000000E+00  0.00000000000E+00  0.17028794748E+04  0.17028794748E+04  0.00000000000E+00 0.  1.
          1   -1    0    0  501    0  0.00000000000E+00 -0.00000000000E+00 -0.19917300878E+03  0.19917300878E+03  0.00000000000E+00 0. -1.
         23    2    1    2    0    0 -0.64547953432E+02 -0.14120450408E+03  0.47109643687E+02  0.18502336069E+03  0.88933543765E+02 0.  0.
        254    2    1    2    0    0  0.64547953432E+02  0.14120450408E+03  0.14565968223E+04  0.17170291229E+04  0.89577316090E+03 0.  0.
        -24    2    4    4    0    0  0.22610681537E+02  0.51638776511E+03  0.83624432894E+03  0.98639534722E+03  0.80645126686E+02 0.  0.
         24    2    4    4    0    0  0.41937271895E+02 -0.37518326102E+03  0.62035249340E+03  0.73063377569E+03  0.80419425388E+02 0.  0.
         13    1    3    3    0    0  0.20142673927E+02 -0.39074897039E+02  0.24832812025E+02  0.50490033121E+02  0.00000000000E+00 0.  1.
        -13    1    3    3    0    0 -0.84690627359E+02 -0.10212960704E+03  0.22276831662E+02  0.13453332757E+03  0.00000000000E+00 0. -1.
          4    1    6    6  502    0  0.38147081972E+02 -0.24992311661E+03  0.47975786139E+03  0.54229546342E+03  0.00000000000E+00 0. -1.
          3    1    5    5  503    0  0.57705885632E+01  0.36440450132E+03  0.51850535280E+03  0.63377578145E+03  0.00000000000E+00 0. -1.
         -4    1    5    5    0  503  0.16840092974E+02  0.15198326379E+03  0.31773897613E+03  0.35261956576E+03  0.00000000000E+00 0.  1.
         -3    1    6    6    0  502  0.37901899229E+01 -0.12526014441E+03  0.14059463201E+03  0.18833831227E+03  0.00000000000E+00 0.  1.
<mgrwt>
<rscale>  0 0.11647620E+04</rscale>
<asrwt>0</asrwt>
<pdfrwt beam="1">  1        1 0.30642003E-01 0.11647620E+04</pdfrwt>
<pdfrwt beam="2">  1       -1 0.26198145E+00 0.11647620E+04</pdfrwt>
<totfact> 0.86781321E+00</totfact>
</mgrwt>
</event>
<event>
12    1  0.1536832E-007  0.2250067E+04  0.7818608E-02  0.8497873E-01
          2   -1    0    0  501    0  0.00000000000E+00  0.00000000000E+00  0.26987005114E+04  0.26987005114E+04  0.00000000000E+00 0. -1.
         -2   -1    0    0    0  501 -0.00000000000E+00 -0.00000000000E+00 -0.46900352529E+03  0.46900352529E+03  0.00000000000E+00 0.  1.
         23    2    1    2    0    0  0.71828335832E+03 -0.60254278119E+03  0.10743603739E+04  0.14295056626E+04  0.10122964199E+03 0.  0.
        254    2    1    2    0    0 -0.71828335832E+03  0.60254278119E+03  0.11553366122E+04  0.17381983741E+04  0.89863347040E+03 0.  0.
        -24    2    4    4    0    0  0.13076745223E+03  0.15166119588E+03 -0.21059405460E+02  0.21694354623E+03  0.80745023332E+02 0.  0.
         24    2    4    4    0    0 -0.84905081055E+03  0.45088158531E+03  0.11763960177E+04  0.15212548279E+04  0.78276292708E+02 0.  0.
         11    1    3    3    0    0  0.28202618299E+03 -0.17570392023E+03  0.35959119823E+03  0.48960848167E+03  0.00000000000E+00 0.  1.
        -11    1    3    3    0    0  0.43625717533E+03 -0.42683886096E+03  0.71476917563E+03  0.93989718091E+03  0.00000000000E+00 0. -1.
          2    1    6    6  502    0 -0.67047659537E+03  0.36781295161E+03  0.88631189551E+03  0.11706297486E+04  0.00000000000E+00 0. -1.
          3    1    5    5  503    0  0.11225537713E+03  0.71731930263E+02 -0.21232639235E+02  0.13489834870E+03  0.00000000000E+00 0. -1.
         -4    1    5    5    0  503  0.18512075096E+02  0.79929265618E+02  0.17323377488E+00  0.82045197523E+02  0.00000000000E+00 0.  1.
         -1    1    6    6    0  502 -0.17857421519E+03  0.83068633699E+02  0.29008412216E+03  0.35062507920E+03  0.00000000000E+00 0.  1.
<mgrwt>
<rscale>  0 0.22500667E+04</rscale>
<asrwt>0</asrwt>
<pdfrwt beam="1">  1        2 0.41518468E+00 0.22500667E+04</pdfrwt>
<pdfrwt beam="2">  1       -2 0.72154390E-01 0.22500667E+04</pdfrwt>
<totfact> 0.42132975E+00</totfact>
</mgrwt>
</event>
<event>
12    1  0.1536832E-007  0.1607881E+04  0.7818608E-02  0.8815721E-01
          2   -1    0    0  501    0  0.00000000000E+00  0.00000000000E+00  0.22805718721E+04  0.22805718721E+04  0.00000000000E+00 0.  1.
         -2   -1    0    0    0  501 -0.00000000000E+00 -0.00000000000E+00 -0.28340291615E+03  0.28340291615E+03  0.00000000000E+00 0. -1.
         23    2    1    2    0    0 -0.11857753029E+03  0.55049266079E+02 -0.15839638793E+03  0.22407132258E+03  0.89596258349E+02 0.  0.
        254    2    1    2    0    0  0.11857753029E+03 -0.55049266079E+02  0.21555653438E+04  0.23399034656E+04  0.90088579995E+03 0.  0.
        -24    2    4    4    0    0  0.33552670225E+03 -0.33523714976E+03  0.77370436558E+03  0.91103132829E+03  0.79984506589E+02 0.  0.
         24    2    4    4    0    0 -0.21694917197E+03  0.28018788368E+03  0.13818609783E+04  0.14288721373E+04  0.81016222414E+02 0.  0.
         11    1    3    3    0    0 -0.11374649704E+03  0.72122233018E+02 -0.11468839748E+03  0.17689915376E+03  0.00000000000E+00 0. -1.
        -11    1    3    3    0    0 -0.48310332465E+01 -0.17072966939E+02 -0.43707990448E+02  0.47172168822E+02  0.00000000000E+00 0.  1.
          2    1    6    6  502    0 -0.10912112025E+03  0.77858575783E+02  0.53212221502E+03  0.54874714435E+03  0.00000000000E+00 0. -1.
          1    1    5    5  503    0  0.20583976575E+03 -0.14989169140E+03  0.39816177522E+03  0.47262070158E+03  0.00000000000E+00 0. -1.
         -2    1    5    5    0  503  0.12968693651E+03 -0.18534545836E+03  0.37554259036E+03  0.43841062671E+03  0.00000000000E+00 0.  1.
         -1    1    6    6    0  502 -0.10782805172E+03  0.20232930790E+03  0.84973876323E+03  0.88012499300E+03  0.00000000000E+00 0.  1.
<mgrwt>
<rscale>  0 0.16078815E+04</rscale>
<asrwt>0</asrwt>
<pdfrwt beam="1">  1        2 0.35085720E+00 0.16078815E+04</pdfrwt>
<pdfrwt beam="2">  1       -2 0.43600450E-01 0.16078815E+04</pdfrwt>
<totfact> 0.22253047E+01</totfact>
</mgrwt>
</event>
<event>
12    1  0.1536832E-007  0.1772817E+04  0.7818608E-02  0.8720890E-01
          2   -1    0    0  501    0  0.00000000000E+00  0.00000000000E+00  0.15187068490E+04  0.15187068490E+04  0.00000000000E+00 0. -1.
         -2   -1    0    0    0  501 -0.00000000000E+00 -0.00000000000E+00 -0.51736130123E+03  0.51736130123E+03  0.00000000000E+00 0.  1.
         23    2    1    2    0    0 -0.42181568819E+03  0.48695186778E+03  0.21320261710E+03  0.68518795328E+03  0.94744810130E+02 0.  0.
        254    2    1    2    0    0  0.42181568819E+03 -0.48695186778E+03  0.78814293062E+03  0.13508801969E+04  0.88806386650E+03 0.  0.
        -24    2    4    4    0    0 -0.24630631928E+03 -0.22737385483E+03  0.11172548735E+03  0.36243990167E+03  0.80711988084E+02 0.  0.
         24    2    4    4    0    0  0.66812200747E+03 -0.25957801295E+03  0.67641744327E+03  0.98844029524E+03  0.75537394774E+02 0.  0.
         11    1    3    3    0    0 -0.38046923286E+03  0.41201551436E+03  0.21213372126E+03  0.59959514417E+03  0.00000000000E+00 0. -1.
        -11    1    3    3    0    0 -0.41346455334E+02  0.74936353417E+02  0.10688958418E+01  0.85592809105E+02  0.00000000000E+00 0.  1.
          2    1    6    6  502    0  0.29037535581E+03 -0.14824906248E+03  0.33108736395E+03  0.46466598149E+03  0.00000000000E+00 0. -1.
          1    1    5    5  503    0 -0.12312735990E+02 -0.55660130758E+01  0.25235204955E+02  0.28625155689E+02  0.00000000000E+00 0. -1.
         -2    1    5    5    0  503 -0.23399358329E+03 -0.22180784175E+03  0.86490282395E+02  0.33381474598E+03  0.00000000000E+00 0.  1.
         -3    1    6    6    0  502  0.37774665166E+03 -0.11132895047E+03  0.34533007933E+03  0.52377431375E+03  0.00000000000E+00 0.  1.
<mgrwt>
<rscale>  0 0.17728171E+04</rscale>
<asrwt>0</asrwt>
<pdfrwt beam="1">  1        2 0.23364721E+00 0.17728171E+04</pdfrwt>
<pdfrwt beam="2">  1       -2 0.79594047E-01 0.17728171E+04</pdfrwt>
<totfact> 0.16388332E+01</totfact>
</mgrwt>
</event>
<event>
12    1  0.1536832E-007  0.1321782E+04  0.7818608E-02  0.9012468E-01
          1   -1    0    0  501    0  0.00000000000E+00  0.00000000000E+00  0.20374589094E+04  0.20374589094E+04  0.00000000000E+00 0. -1.
         -1   -1    0    0    0  501 -0.00000000000E+00 -0.00000000000E+00 -0.21437343064E+03  0.21437343064E+03  0.00000000000E+00 0.  1.
         23    2    1    2    0    0 -0.25705001373E+03 -0.10489484210E+03  0.84172321565E+03  0.89105721464E+03  0.91691605577E+02 0.  0.
        254    2    1    2    0    0  0.25705001373E+03  0.10489484210E+03  0.98136226312E+03  0.13607751254E+04  0.90086592400E+03 0.  0.
        -24    2    4    4    0    0 -0.27604946941E+03  0.11086969257E+03  0.67195346248E+03  0.73922949203E+03  0.80270716091E+02 0.  0.
         24    2    4    4    0    0  0.53309948314E+03 -0.59748504656E+01  0.30940880065E+03  0.62154563339E+03  0.79714557681E+02 0.  0.
         11    1    3    3    0    0 -0.23083153351E+03 -0.69626846496E+02  0.62434866746E+03  0.66928495663E+03  0.00000000000E+00 0. -1.
        -11    1    3    3    0    0 -0.26218480217E+02 -0.35267995604E+02  0.21737454819E+03  0.22177225800E+03  0.00000000000E+00 0.  1.
          4    1    6    6  502    0  0.51512686690E+03  0.10183941094E+01  0.27980593850E+03  0.58621505384E+03  0.00000000000E+00 0. -1.
          3    1    5    5  503    0 -0.11937580440E+03  0.76792775353E+02  0.38780562866E+03  0.41296600180E+03  0.00000000000E+00 0. -1.
         -4    1    5    5    0  503 -0.15667366501E+03  0.34076917213E+02  0.28414783382E+03  0.32626349023E+03  0.00000000000E+00 0.  1.
         -3    1    6    6    0  502  0.17972616242E+02 -0.69932445750E+01  0.29602862144E+02  0.35330579550E+02  0.00000000000E+00 0.  1.
<mgrwt>
<rscale>  0 0.13217822E+04</rscale>
<asrwt>0</asrwt>
<pdfrwt beam="1">  1        1 0.31345520E+00 0.13217822E+04</pdfrwt>
<pdfrwt beam="2">  1       -1 0.32980529E-01 0.13217822E+04</pdfrwt>
<totfact> 0.23823500E+01</totfact>
</mgrwt>
</event>
<event>
12    1  0.1536832E-007  0.1473944E+04  0.7818608E-02  0.8901967E-01
         -1   -1    0    0    0  501 -0.00000000000E+00  0.00000000000E+00  0.30648112883E+03  0.30648112883E+03  0.00000000000E+00 0.  1.
          1   -1    0    0  501    0  0.00000000000E+00 -0.00000000000E+00 -0.17721397102E+04  0.17721397102E+04  0.00000000000E+00 0. -1.
         23    2    1    2    0    0  0.19883553916E+03  0.40515905033E+03 -0.41289302482E+03  0.61902823301E+03  0.95004608451E+02 0.  0.
        254    2    1    2    0    0 -0.19883553916E+03 -0.40515905033E+03 -0.10527655565E+04  0.14595926060E+04  0.90465785286E+03 0.  0.
        -24    2    4    4    0    0 -0.32857267995E+03  0.18110572022E+03 -0.26750848805E+03  0.46761938042E+03  0.79673118801E+02 0.  0.
         24    2    4    4    0    0  0.12973714078E+03 -0.58626477055E+03 -0.78525706849E+03  0.99197322558E+03  0.82729134884E+02 0.  0.
         11    1    3    3    0    0  0.10299916033E+03  0.20085373195E+03 -0.14293849935E+03  0.26717496751E+03  0.00000000000E+00 0. -1.
        -11    1    3    3    0    0  0.95836378830E+02  0.20430531838E+03 -0.26995452547E+03  0.35185326551E+03  0.00000000000E+00 0.  1.
          2    1    6    6  502    0  0.17609117361E+02 -0.22115723191E+03 -0.24746160882E+03  0.33235199726E+03  0.00000000000E+00 0. -1.
          3    1    5    5  503    0 -0.25544702855E+03  0.17236896961E+03 -0.23275507817E+03  0.38618541207E+03  0.00000000000E+00 0. -1.
         -4    1    5    5    0  503 -0.73125651395E+02  0.87367506181E+01 -0.34753409876E+02  0.81433968350E+02  0.00000000000E+00 0.  1.
         -1    1    6    6    0  502  0.11212802342E+03 -0.36510753864E+03 -0.53779545967E+03  0.65962122832E+03  0.00000000000E+00 0.  1.
<mgrwt>
<rscale>  0 0.14739435E+04</rscale>
<asrwt>0</asrwt>
<pdfrwt beam="1">  1        1 0.27263687E+00 0.14739435E+04</pdfrwt>
<pdfrwt beam="2">  1       -1 0.47150944E-01 0.14739435E+04</pdfrwt>
<totfact> 0.18511347E+01</totfact>
</mgrwt>
</event>
<event>
12    1  0.1536832E-007  0.2401192E+04  0.7818608E-02  0.8439058E-01
          2   -1    0    0  501    0  0.00000000000E+00  0.00000000000E+00  0.13439294114E+04  0.13439294114E+04  0.00000000000E+00 0. -1.
         -2   -1    0    0    0  501 -0.00000000000E+00 -0.00000000000E+00 -0.10725490368E+04  0.10725490368E+04  0.00000000000E+00 0.  1.
         23    2    1    2    0    0 -0.76476915374E+03 -0.45653074505E+02 -0.57344908399E+03  0.96123046301E+03  0.90355350486E+02 0.  0.
        254    2    1    2    0    0  0.76476915374E+03  0.45653074505E+02  0.84482945857E+03  0.14552479852E+04  0.90391029568E+03 0.  0.
        -24    2    4    4    0    0  0.91071277059E+03 -0.10887797622E+03  0.51624690500E+03  0.10558033134E+04  0.83412262487E+02 0.  0.
         24    2    4    4    0    0 -0.14594361685E+03  0.15453105072E+03  0.32858255357E+03  0.39944467176E+03  0.80063514459E+02 0.  0.
         13    1    3    3    0    0 -0.22792875357E+03 -0.42896383089E+02 -0.13713742119E+03  0.26944069603E+03  0.00000000000E+00 0. -1.
        -13    1    3    3    0    0 -0.53684040018E+03 -0.27566914165E+01 -0.43631166279E+03  0.69178976698E+03  0.00000000000E+00 0.  1.
          2    1    6    6  502    0 -0.86774479745E+02  0.14169685553E+03  0.25144106484E+03  0.30138085256E+03  0.00000000000E+00 0. -1.
          1    1    5    5  503    0  0.20213521505E+03 -0.16698390579E+02  0.76436004900E+02  0.21674857383E+03  0.00000000000E+00 0. -1.
         -2    1    5    5    0  503  0.70857755554E+03 -0.92179585640E+02  0.43981090010E+03  0.83905473961E+03  0.00000000000E+00 0.  1.
         -1    1    6    6    0  502 -0.59169137103E+02  0.12834195194E+02  0.77141488728E+02  0.98063819194E+02  0.00000000000E+00 0.  1.
<mgrwt>
<rscale>  0 0.24011915E+04</rscale>
<asrwt>0</asrwt>
<pdfrwt beam="1">  1        2 0.20675837E+00 0.24011915E+04</pdfrwt>
<pdfrwt beam="2">  1       -2 0.16500754E+00 0.24011915E+04</pdfrwt>
<totfact> 0.32447681E+00</totfact>
</mgrwt>
</event>
<event>
12    1  0.1536832E-007  0.2201727E+04  0.7818608E-02  0.8517710E-01
         -2   -1    0    0    0  501 -0.00000000000E+00  0.00000000000E+00  0.13421480833E+04  0.13421480833E+04  0.00000000000E+00 0.  1.
          2   -1    0    0  501    0  0.00000000000E+00 -0.00000000000E+00 -0.90295569589E+03  0.90295569589E+03  0.00000000000E+00 0. -1.
         23    2    1    2    0    0  0.50410476011E+03 -0.60340321015E+02  0.95633984414E+03  0.10864456527E+04  0.89530415147E+02 0.  0.
        254    2    1    2    0    0 -0.50410476011E+03  0.60340321015E+02 -0.51714745668E+03  0.11586581265E+04  0.90403794099E+03 0.  0.
        -24    2    4    4    0    0 -0.36972079730E+03 -0.33534237184E+03 -0.53089912372E+03  0.73290983994E+03  0.78453678083E+02 0.  0.
         24    2    4    4    0    0 -0.13438396282E+03  0.39568269285E+03  0.13751667035E+02  0.42574828661E+03  0.80303501314E+02 0.  0.
         11    1    3    3    0    0  0.20344278754E+03 -0.49982993610E+02  0.31852956173E+03  0.38124578575E+03  0.00000000000E+00 0. -1.
        -11    1    3    3    0    0  0.30066197257E+03 -0.10357327405E+02  0.63781028241E+03  0.70519986693E+03  0.00000000000E+00 0.  1.
          2    1    6    6  502    0 -0.37128517070E+02  0.23334880033E+03  0.85862047274E+01  0.23644008185E+03  0.00000000000E+00 0. -1.
          1    1    5    5  503    0 -0.32226189992E+03 -0.32201614175E+03 -0.46997221980E+03  0.65453878042E+03  0.00000000000E+00 0. -1.
         -2    1    5    5    0  503 -0.47458897372E+02 -0.13326230084E+02 -0.60926903918E+02  0.78371059513E+02  0.00000000000E+00 0.  1.
         -3    1    6    6    0  502 -0.97255445748E+02  0.16233389252E+03  0.51654623076E+01  0.18930820476E+03  0.00000000000E+00 0.  1.
<mgrwt>
<rscale>  0 0.22017268E+04</rscale>
<asrwt>0</asrwt>
<pdfrwt beam="1">  1        2 0.13891626E+00 0.22017268E+04</pdfrwt>
<pdfrwt beam="2">  1       -2 0.20648432E+00 0.22017268E+04</pdfrwt>
<totfact> 0.32172426E+00</totfact>
</mgrwt>
</event>
<event>
12    1  0.1536832E-007  0.2547601E+04  0.7818608E-02  0.8386221E-01
         -1   -1    0    0    0  501 -0.00000000000E+00  0.00000000000E+00  0.74012047685E+03  0.74012047685E+03  0.00000000000E+00 0.  1.
          1   -1    0    0  501    0  0.00000000000E+00 -0.00000000000E+00 -0.21923020364E+04  0.21923020364E+04  0.00000000000E+00 0. -1.
         23    2    1    2    0    0 -0.15108173324E+03 -0.90152083541E+03  0.87883463685E+02  0.92275839117E+03  0.90520928512E+02 0.  0.
        254    2    1    2    0    0  0.15108173324E+03  0.90152083541E+03 -0.15400650232E+04  0.20096641220E+04  0.91180266558E+03 0.  0.
        -24    2    4    4    0    0  0.21383093275E+03  0.41149681990E+03 -0.94105193079E+02  0.47938760316E+03  0.76833496018E+02 0.  0.
         24    2    4    4    0    0 -0.62749199508E+02  0.49002401551E+03 -0.14459598301E+04  0.15302765189E+04  0.82978287069E+02 0.  0.
         11    1    3    3    0    0 -0.41938405817E+02 -0.25373282505E+03  0.65844022297E+02  0.26547054763E+03  0.00000000000E+00 0. -1.
        -11    1    3    3    0    0 -0.10914332743E+03 -0.64778801036E+03  0.22039441388E+02  0.65728784354E+03  0.00000000000E+00 0.  1.
          2    1    6    6  502    0  0.73992365816E+01  0.18914950926E+03 -0.47408709871E+03  0.51048101112E+03  0.00000000000E+00 0. -1.
          1    1    5    5  503    0  0.60159294891E+02  0.59073502284E+02 -0.30674030514E+02  0.89720207210E+02  0.00000000000E+00 0. -1.
         -2    1    5    5    0  503  0.15367163786E+03  0.35242331762E+03 -0.63431162565E+02  0.38966739595E+03  0.00000000000E+00 0.  1.
         -1    1    6    6    0  502 -0.70148436090E+02  0.30087450625E+03 -0.97187273140E+03  0.10197955078E+04  0.00000000000E+00 0.  1.
<mgrwt>
<rscale>  0 0.25476009E+04</rscale>
<asrwt>0</asrwt>
<pdfrwt beam="1">  1        1 0.33727723E+00 0.25476009E+04</pdfrwt>
<pdfrwt beam="2">  1       -1 0.11386469E+00 0.25476009E+04</pdfrwt>
<totfact> 0.13709936E+00</totfact>
</mgrwt>
</event>
<event>
12    1  0.1536832E-007  0.1828493E+04  0.7818608E-02  0.8691292E-01
          2   -1    0    0  501    0  0.00000000000E+00  0.00000000000E+00  0.16030363895E+04  0.16030363895E+04  0.00000000000E+00 0.  1.
         -2   -1    0    0    0  501 -0.00000000000E+00 -0.00000000000E+00 -0.52141465481E+03  0.52141465481E+03  0.00000000000E+00 0. -1.
         23    2    1    2    0    0  0.36309282537E+03 -0.31720234647E+03 -0.11199948070E+03  0.50331165537E+03  0.91241494456E+02 0.  0.
        254    2    1    2    0    0 -0.36309282537E+03  0.31720234647E+03  0.11936212154E+04  0.16211393889E+04  0.98534642848E+03 0.  0.
        -24    2    4    4    0    0 -0.37714766548E+03  0.54513410733E+02 -0.74129853598E+01  0.38908551685E+03  0.78233711046E+02 0.  0.
         24    2    4    4    0    0  0.14054840103E+02  0.26268893574E+03  0.12010342007E+04  0.12320538721E+04  0.79186974281E+02 0.  0.
         13    1    3    3    0    0  0.18879862339E+03 -0.16913933315E+03 -0.10540086410E+03  0.27452208721E+03  0.00000000000E+00 0. -1.
        -13    1    3    3    0    0  0.17429420198E+03 -0.14806301332E+03 -0.65986165982E+01  0.22878956816E+03  0.00000000000E+00 0.  1.
          4    1    6    6  502    0 -0.79989528891E+01  0.64865879306E+02  0.17314988890E+03  0.18507417317E+03  0.00000000000E+00 0. -1.
          3    1    5    5  503    0 -0.14751334907E+03 -0.22032400350E+01 -0.32985589757E+02  0.15117239018E+03  0.00000000000E+00 0. -1.
         -2    1    5    5    0  503 -0.22963431641E+03  0.56716650768E+02  0.25572604397E+02  0.23791312667E+03  0.00000000000E+00 0.  1.
         -3    1    6    6    0  502  0.22053792993E+02  0.19782305643E+03  0.10278843118E+04  0.10469796989E+04  0.00000000000E+00 0.  1.
<mgrwt>
<rscale>  0 0.18284930E+04</rscale>
<asrwt>0</asrwt>
<pdfrwt beam="1">  1        2 0.24662098E+00 0.18284930E+04</pdfrwt>
<pdfrwt beam="2">  1       -2 0.80217640E-01 0.18284930E+04</pdfrwt>
<totfact> 0.14374398E+01</totfact>
</mgrwt>
</event>
<event>
12    1  0.1536832E-007  0.2912671E+04  0.7818608E-02  0.8269117E-01
         -1   -1    0    0    0  501 -0.00000000000E+00  0.00000000000E+00  0.97325432701E+03  0.97325432701E+03  0.00000000000E+00 0. -1.
          1   -1    0    0  501    0  0.00000000000E+00 -0.00000000000E+00 -0.21791976091E+04  0.21791976091E+04  0.00000000000E+00 0.  1.
         23    2    1    2    0    0 -0.12449999468E+04  0.13283614957E+03 -0.96620870162E+03  0.15841100806E+04  0.90416715248E+02 0.  0.
        254    2    1    2    0    0  0.12449999468E+04 -0.13283614957E+03 -0.23973458048E+03  0.15683418555E+04  0.91353883143E+03 0.  0.
        -24    2    4    4    0    0  0.35616135646E+03  0.35638985986E+01  0.33729626471E+03  0.49686688206E+03  0.79020978844E+02 0.  0.
         24    2    4    4    0    0  0.88883859030E+03 -0.13640004816E+03 -0.57703084519E+03  0.10714749734E+04  0.80343074478E+02 0.  0.
         13    1    3    3    0    0 -0.73223854758E+02  0.78067991889E+01 -0.31949687355E+02  0.80271175033E+02  0.00000000000E+00 0.  1.
        -13    1    3    3    0    0 -0.11717760920E+04  0.12502935038E+03 -0.93425901427E+03  0.15038389056E+04  0.00000000000E+00 0. -1.
          2    1    6    6  502    0  0.46613900640E+03 -0.10050958758E+03 -0.33861571738E+03  0.58484900148E+03  0.00000000000E+00 0. -1.
          1    1    5    5  503    0  0.27866361503E+03  0.14490907813E+02  0.21760022475E+03  0.35385484957E+03  0.00000000000E+00 0. -1.
         -4    1    5    5    0  503  0.77497741428E+02 -0.10927009215E+02  0.11969603996E+03  0.14301203250E+03  0.00000000000E+00 0.  1.
         -1    1    6    6    0  502  0.42269958391E+03 -0.35890460585E+02 -0.23841512781E+03  0.48662597194E+03  0.00000000000E+00 0.  1.
<mgrwt>
<rscale>  0 0.29126713E+04</rscale>
<asrwt>0</asrwt>
<pdfrwt beam="1">  1        1 0.33526117E+00 0.29126713E+04</pdfrwt>
<pdfrwt beam="2">  1       -1 0.14973144E+00 0.29126713E+04</pdfrwt>
<totfact> 0.67651872E-01</totfact>
</mgrwt>
</event>
<event>
12    1  0.1536832E-007  0.1644542E+04  0.7818608E-02  0.8793642E-01
          1   -1    0    0  501    0  0.00000000000E+00  0.00000000000E+00  0.43952062511E+03  0.43952062511E+03  0.00000000000E+00 0. -1.
         -1   -1    0    0    0  501 -0.00000000000E+00 -0.00000000000E+00 -0.15383350417E+04  0.15383350417E+04  0.00000000000E+00 0.  1.
         23    2    1    2    0    0 -0.96637949295E+02  0.47484338317E+03 -0.16787527180E+02  0.49388135752E+03  0.93924663711E+02 0.  0.
        254    2    1    2    0    0  0.96637949295E+02 -0.47484338317E+03 -0.10820268894E+04  0.14839743092E+04  0.89251466620E+03 0.  0.
        -24    2    4    4    0    0  0.34145358645E+03  0.11750543024E+03 -0.36246502386E+03  0.51696358302E+03  0.73975501440E+02 0.  0.
         24    2    4    4    0    0 -0.24481563716E+03 -0.59234881342E+03 -0.71956186552E+03  0.96701072622E+03  0.80800082754E+02 0.  0.
         13    1    3    3    0    0 -0.79527887225E+02  0.42271527040E+03 -0.44478825385E+02  0.43242484964E+03  0.00000000000E+00 0. -1.
        -13    1    3    3    0    0 -0.17110062071E+02  0.52128112769E+02  0.27691298204E+02  0.61456507883E+02  0.00000000000E+00 0.  1.
          2    1    6    6  502    0 -0.23013803373E+03 -0.58675640749E+03 -0.70043151245E+03  0.94225840401E+03  0.00000000000E+00 0. -1.
          3    1    5    5  503    0  0.28963608646E+03  0.95304103413E+02 -0.33885724984E+03  0.45584665237E+03  0.00000000000E+00 0. -1.
         -4    1    5    5    0  503  0.51817499992E+02  0.22201326830E+02 -0.23607774020E+02  0.61116930654E+02  0.00000000000E+00 0.  1.
         -1    1    6    6    0  502 -0.14677603424E+02 -0.55924059256E+01 -0.19130353071E+02  0.24752322212E+02  0.00000000000E+00 0.  1.
<mgrwt>
<rscale>  0 0.16445425E+04</rscale>
<asrwt>0</asrwt>
<pdfrwt beam="1">  1        1 0.67618557E-01 0.16445425E+04</pdfrwt>
<pdfrwt beam="2">  1       -1 0.23666693E+00 0.16445425E+04</pdfrwt>
<totfact> 0.43101947E+00</totfact>
</mgrwt>
</event>
<event>
12    1  0.2621434E-007  0.1655171E+04  0.7818608E-02  0.8787353E-01
         -2   -1    0    0    0  501 -0.00000000000E+00  0.00000000000E+00  0.90524946634E+03  0.90524946634E+03  0.00000000000E+00 0.  1.
          2   -1    0    0  501    0  0.00000000000E+00 -0.00000000000E+00 -0.75658424267E+03  0.75658424267E+03  0.00000000000E+00 0. -1.
         23    2    1    2    0    0 -0.38660841767E+03  0.25035191235E+02 -0.37520666141E+03  0.54745244223E+03  0.93975040934E+02 0.  0.
        254    2    1    2    0    0  0.38660841767E+03 -0.25035191235E+02  0.52387188508E+03  0.11143812668E+04  0.90405255731E+03 0.  0.
        -24    2    4    4    0    0  0.56406114038E+03 -0.32788019612E+02  0.66290519821E+03  0.87456708208E+03  0.78640033807E+02 0.  0.
         24    2    4    4    0    0 -0.17745272271E+03  0.77528283766E+01 -0.13903331313E+03  0.23981418471E+03  0.81430988470E+02 0.  0.
         13    1    3    3    0    0  0.14680198597E+01 -0.51606650523E+01 -0.19259763514E+02  0.19993149744E+02  0.00000000000E+00 0.  1.
        -13    1    3    3    0    0 -0.38807643753E+03  0.30195856287E+02 -0.35594689790E+03  0.52745929248E+03  0.00000000000E+00 0. -1.
          4    1    6    6  502    0  0.52475994626E+01 -0.94141782677E+00 -0.22075663711E+02  0.22710316949E+02  0.00000000000E+00 0. -1.
          1    1    5    5  503    0  0.12884149525E+02  0.32846369126E+01  0.39419158201E+02  0.41601204093E+02  0.00000000000E+00 0. -1.
         -2    1    5    5    0  503  0.55117699086E+03 -0.36072656524E+02  0.62348604001E+03  0.83296587799E+03  0.00000000000E+00 0.  1.
         -3    1    6    6    0  502 -0.18270032218E+03  0.86942462034E+01 -0.11695764942E+03  0.21710386776E+03  0.00000000000E+00 0.  1.
<mgrwt>
<rscale>  0 0.16551707E+04</rscale>
<asrwt>0</asrwt>
<pdfrwt beam="1">  1        2 0.11639758E+00 0.16551707E+04</pdfrwt>
<pdfrwt beam="2">  1       -2 0.13926915E+00 0.16551707E+04</pdfrwt>
<totfact> 0.12884804E+01</totfact>
</mgrwt>
</event>
<event>
12    1  0.1536832E-007  0.1875218E+04  0.7818608E-02  0.8667291E-01
          2   -1    0    0  501    0  0.00000000000E+00  0.00000000000E+00  0.23093658366E+04  0.23093658366E+04  0.00000000000E+00 0. -1.
         -2   -1    0    0    0  501 -0.00000000000E+00 -0.00000000000E+00 -0.38067174673E+03  0.38067174673E+03  0.00000000000E+00 0.  1.
         23    2    1    2    0    0  0.60120596872E+03  0.81456993330E+01  0.18329180962E+03  0.63559083540E+03  0.94153350065E+02 0.  0.
        254    2    1    2    0    0 -0.60120596872E+03 -0.81456993330E+01  0.17454022802E+04  0.20544467479E+04  0.90155829036E+03 0.  0.
        -24    2    4    4    0    0 -0.82112654266E+03 -0.96942138641E+02  0.13695221835E+04  0.16017434304E+04  0.79651920528E+02 0.  0.
         24    2    4    4    0    0  0.21992057393E+03  0.88796439308E+02  0.37588009675E+03  0.45270331753E+03  0.86049869791E+02 0.  0.
         11    1    3    3    0    0  0.43084066767E+03  0.47932688466E+02  0.12440008632E+03  0.45099512749E+03  0.00000000000E+00 0.  1.
        -11    1    3    3    0    0  0.17036530105E+03 -0.39786989133E+02  0.58891723296E+02  0.18459570791E+03  0.00000000000E+00 0. -1.
          4    1    6    6  502    0  0.23773821936E+02  0.16835190364E+02  0.89764590924E+01  0.30482701026E+02  0.00000000000E+00 0. -1.
          3    1    5    5  503    0 -0.23890117301E+03  0.63570016166E+01  0.41558132471E+03  0.47939755880E+03  0.00000000000E+00 0. -1.
         -4    1    5    5    0  503 -0.58222536965E+03 -0.10329914026E+03  0.95394085877E+03  0.11223458716E+04  0.00000000000E+00 0.  1.
         -3    1    6    6    0  502  0.19614675200E+03  0.71961248944E+02  0.36690363766E+03  0.42222061650E+03  0.00000000000E+00 0.  1.
<mgrwt>
<rscale>  0 0.18752177E+04</rscale>
<asrwt>0</asrwt>
<pdfrwt beam="1">  1        2 0.35528704E+00 0.18752177E+04</pdfrwt>
<pdfrwt beam="2">  1       -2 0.58564886E-01 0.18752177E+04</pdfrwt>
<totfact> 0.11459893E+01</totfact>
</mgrwt>
</event>
<event>
12    1  0.1536832E-007  0.1423183E+04  0.7818608E-02  0.8937207E-01
          1   -1    0    0  501    0  0.00000000000E+00  0.00000000000E+00  0.18226237412E+04  0.18226237412E+04  0.00000000000E+00 0. -1.
         -1   -1    0    0    0  501 -0.00000000000E+00 -0.00000000000E+00 -0.27782054321E+03  0.27782054321E+03  0.00000000000E+00 0.  1.
         23    2    1    2    0    0 -0.36968558203E+03  0.13837105229E+03  0.58262661342E+03  0.71003208757E+03  0.94222168525E+02 0.  0.
        254    2    1    2    0    0  0.36968558203E+03 -0.13837105229E+03  0.96217658453E+03  0.13904121968E+04  0.92284793956E+03 0.  0.
        -24    2    4    4    0    0 -0.27635687519E+03 -0.17612260065E+03  0.44169578537E+03  0.55588412789E+03  0.80744683456E+02 0.  0.
         24    2    4    4    0    0  0.64604245722E+03  0.37751548353E+02  0.52048079917E+03  0.83452806892E+03  0.82102372579E+02 0.  0.
         13    1    3    3    0    0 -0.37539096971E+02  0.15281444029E+02  0.12453028875E+03  0.13095991428E+03  0.00000000000E+00 0.  1.
        -13    1    3    3    0    0 -0.33214648506E+03  0.12308960826E+03  0.45809632467E+03  0.57907217329E+03  0.00000000000E+00 0. -1.
          2    1    6    6  502    0  0.38004177724E+03 -0.86711601052E-01  0.34762508411E+03  0.51504850167E+03  0.00000000000E+00 0. -1.
          3    1    5    5  503    0 -0.13491122983E+03 -0.72168143294E+02  0.14298177526E+03  0.20941124348E+03  0.00000000000E+00 0. -1.
         -4    1    5    5    0  503 -0.14144564536E+03 -0.10395445735E+03  0.29871401011E+03  0.34647288441E+03  0.00000000000E+00 0.  1.
         -1    1    6    6    0  502  0.26600067998E+03  0.37838259954E+02  0.17285571506E+03  0.31947956725E+03  0.00000000000E+00 0.  1.
<mgrwt>
<rscale>  0 0.14231828E+04</rscale>
<asrwt>0</asrwt>
<pdfrwt beam="1">  1        1 0.28040365E+00 0.14231828E+04</pdfrwt>
<pdfrwt beam="2">  1       -1 0.42741623E-01 0.14231828E+04</pdfrwt>
<totfact> 0.20636894E+01</totfact>
</mgrwt>
</event>
<event>
12    1  0.1536832E-007  0.1433047E+04  0.7818608E-02  0.8930239E-01
          1   -1    0    0  501    0  0.00000000000E+00  0.00000000000E+00  0.94359712485E+03  0.94359712485E+03  0.00000000000E+00 0. -1.
         -1   -1    0    0    0  501 -0.00000000000E+00 -0.00000000000E+00 -0.54409446509E+03  0.54409446509E+03  0.00000000000E+00 0.  1.
         23    2    1    2    0    0 -0.16717870609E+03  0.38409953571E+03  0.20167256807E+03  0.47375806988E+03  0.91069813680E+02 0.  0.
        254    2    1    2    0    0  0.16717870609E+03 -0.38409953571E+03  0.19783009168E+03  0.10139335201E+04  0.90191089627E+03 0.  0.
        -24    2    4    4    0    0 -0.29524569533E+03 -0.13189502175E+03  0.32600214801E+03  0.46596029921E+03  0.79216681066E+02 0.  0.
         24    2    4    4    0    0  0.46242440142E+03 -0.25220451395E+03 -0.12817205633E+03  0.54797322085E+03  0.80019565483E+02 0.  0.
         13    1    3    3    0    0 -0.11193909740E+02  0.12086627666E+03  0.40738746734E+02  0.12803751768E+03  0.00000000000E+00 0.  1.
        -13    1    3    3    0    0 -0.15598479635E+03  0.26323325904E+03  0.16093382134E+03  0.34572055220E+03  0.00000000000E+00 0. -1.
          2    1    6    6  502    0  0.33650561005E+03 -0.22113430840E+03 -0.10618541961E+03  0.41642736615E+03  0.00000000000E+00 0. -1.
          1    1    5    5  503    0 -0.24531214737E+03 -0.86394062318E+02  0.28952072270E+03  0.38918405995E+03  0.00000000000E+00 0. -1.
         -2    1    5    5    0  503 -0.49933547958E+02 -0.45500959436E+02  0.36481425310E+02  0.76776239254E+02  0.00000000000E+00 0.  1.
         -1    1    6    6    0  502  0.12591879137E+03 -0.31070205553E+02 -0.21986636719E+02  0.13154585469E+03  0.00000000000E+00 0.  1.
<mgrwt>
<rscale>  0 0.14330471E+04</rscale>
<asrwt>0</asrwt>
<pdfrwt beam="1">  1        1 0.14516879E+00 0.14330471E+04</pdfrwt>
<pdfrwt beam="2">  1       -1 0.83706841E-01 0.14330471E+04</pdfrwt>
<totfact> 0.23092615E+01</totfact>
</mgrwt>
</event>
<event>
12    1  0.1536832E-007  0.1617340E+04  0.7818608E-02  0.8809966E-01
          1   -1    0    0  501    0  0.00000000000E+00  0.00000000000E+00  0.89316499897E+03  0.89316499897E+03  0.00000000000E+00 0. -1.
         -1   -1    0    0    0  501 -0.00000000000E+00 -0.00000000000E+00 -0.73216846865E+03  0.73216846865E+03  0.00000000000E+00 0.  1.
         23    2    1    2    0    0 -0.32358344373E+02  0.51935503749E+03 -0.13737943670E+03  0.54570684728E+03  0.90255947815E+02 0.  0.
        254    2    1    2    0    0  0.32358344373E+02 -0.51935503749E+03  0.29837596702E+03  0.10796266203E+04  0.89765734234E+03 0.  0.
        -24    2    4    4    0    0  0.10148086798E+03  0.19975798969E+02 -0.26321293320E+03  0.29393368194E+03  0.80115928907E+02 0.  0.
         24    2    4    4    0    0 -0.69122523610E+02 -0.53933083646E+03  0.56158890022E+03  0.78569293840E+03  0.79218849866E+02 0.  0.
         13    1    3    3    0    0  0.11591430382E+02  0.15597553452E+02  0.55758041924E+01  0.20217183889E+02  0.00000000000E+00 0.  1.
        -13    1    3    3    0    0 -0.43949774755E+02  0.50375748404E+03 -0.14295524089E+03  0.52548966339E+03  0.00000000000E+00 0. -1.
          2    1    6    6  502    0 -0.62949497914E+02 -0.45169159687E+03  0.42563104414E+03  0.62381866252E+03  0.00000000000E+00 0. -1.
          1    1    5    5  503    0  0.11443569134E+03  0.24039054024E+02 -0.24159948418E+03  0.26840960178E+03  0.00000000000E+00 0. -1.
         -2    1    5    5    0  503 -0.12954823352E+02 -0.40632550546E+01 -0.21613449021E+02  0.25524080165E+02  0.00000000000E+00 0.  1.
         -1    1    6    6    0  502 -0.61730256960E+01 -0.87639239591E+02  0.13595785608E+03  0.16187427588E+03  0.00000000000E+00 0.  1.
<mgrwt>
<rscale>  0 0.16173401E+04</rscale>
<asrwt>0</asrwt>
<pdfrwt beam="1">  1        1 0.13741000E+00 0.16173401E+04</pdfrwt>
<pdfrwt beam="2">  1       -1 0.11264130E+00 0.16173401E+04</pdfrwt>
<totfact> 0.12743882E+01</totfact>
</mgrwt>
</event>
<event>
12    1  0.1536832E-007  0.1379254E+04  0.7818608E-02  0.8968974E-01
         -2   -1    0    0    0  501 -0.00000000000E+00  0.00000000000E+00  0.30425891756E+03  0.30425891756E+03  0.00000000000E+00 0. -1.
          2   -1    0    0  501    0  0.00000000000E+00 -0.00000000000E+00 -0.15630935030E+04  0.15630935030E+04  0.00000000000E+00 0.  1.
         23    2    1    2    0    0 -0.17751403327E+03  0.65606017114E+02  0.92934028685E+02  0.23414987052E+03  0.10185306419E+03 0.  0.
        254    2    1    2    0    0  0.17751403327E+03 -0.65606017114E+02 -0.13517686141E+04  0.16332025501E+04  0.89680365849E+03 0.  0.
        -24    2    4    4    0    0  0.29793801309E+03 -0.18337155523E+03 -0.10582242639E+03  0.37342723791E+03  0.76533190038E+02 0.  0.
         24    2    4    4    0    0 -0.12042397982E+03  0.11776553811E+03 -0.12459461878E+04  0.12597753122E+04  0.79254510714E+02 0.  0.
         11    1    3    3    0    0 -0.16676714583E+03  0.21154117774E+02  0.82433507721E+02  0.18722729722E+03  0.00000000000E+00 0. -1.
        -11    1    3    3    0    0 -0.10746887441E+02  0.44451899340E+02  0.10500520965E+02  0.46922573300E+02  0.00000000000E+00 0.  1.
          2    1    6    6  502    0 -0.11146130028E+03  0.92820129611E+02 -0.11770911764E+04  0.11859944500E+04  0.00000000000E+00 0. -1.
          3    1    5    5  503    0  0.28783024336E+03 -0.18182087144E+03 -0.11534172421E+03  0.35945624439E+03  0.00000000000E+00 0. -1.
         -4    1    5    5    0  503  0.10107769726E+02 -0.15506837878E+01  0.95192978210E+01  0.13970993524E+02  0.00000000000E+00 0.  1.
         -1    1    6    6    0  502 -0.89626795409E+01  0.24945408501E+02 -0.68855011384E+02  0.73780862170E+02  0.00000000000E+00 0.  1.
<mgrwt>
<rscale>  0 0.13792536E+04</rscale>
<asrwt>0</asrwt>
<pdfrwt beam="1">  1        2 0.24047593E+00 0.13792536E+04</pdfrwt>
<pdfrwt beam="2">  1       -2 0.46809063E-01 0.13792536E+04</pdfrwt>
<totfact> 0.49313461E+01</totfact>
</mgrwt>
</event>
<event>
12    1  0.1536832E-007  0.1536802E+04  0.7818608E-02  0.8860342E-01
         -2   -1    0    0    0  501 -0.00000000000E+00  0.00000000000E+00  0.26416795406E+03  0.26416795406E+03  0.00000000000E+00 0.  1.
          2   -1    0    0  501    0  0.00000000000E+00 -0.00000000000E+00 -0.22350933418E+04  0.22350933418E+04  0.00000000000E+00 0. -1.
         23    2    1    2    0    0  0.92439720593E+02 -0.48315873187E+03 -0.69413613001E+03  0.85580919975E+03  0.92719778230E+02 0.  0.
        254    2    1    2    0    0 -0.92439720593E+02  0.48315873187E+03 -0.12767892577E+04  0.16434520961E+04  0.91036065458E+03 0.  0.
        -24    2    4    4    0    0  0.36149880080E+03  0.37727225400E+02 -0.31718740845E+03  0.48945164532E+03  0.82766747588E+02 0.  0.
         24    2    4    4    0    0 -0.45393852140E+03  0.44543150647E+03 -0.95960184930E+03  0.11540004508E+04  0.80074484757E+02 0.  0.
         11    1    3    3    0    0 -0.11076974021E+02 -0.63345541902E+02 -0.57767251091E+02  0.86443116157E+02  0.00000000000E+00 0.  1.
        -11    1    3    3    0    0  0.10351669461E+03 -0.41981318997E+03 -0.63636887892E+03  0.76936608360E+03  0.00000000000E+00 0. -1.
          2    1    6    6  502    0 -0.24008236117E+03  0.25557047702E+03 -0.46092768843E+03  0.57914604620E+03  0.00000000000E+00 0. -1.
          3    1    5    5  503    0  0.22331419949E+03 -0.16436401158E+02 -0.17919798831E+03  0.28679488488E+03  0.00000000000E+00 0. -1.
         -4    1    5    5    0  503  0.13818460132E+03  0.54163626558E+02 -0.13798942014E+03  0.20265676045E+03  0.00000000000E+00 0.  1.
         -1    1    6    6    0  502 -0.21385616023E+03  0.18986102945E+03 -0.49867416086E+03  0.57485440460E+03  0.00000000000E+00 0.  1.
<mgrwt>
<rscale>  0 0.15368019E+04</rscale>
<asrwt>0</asrwt>
<pdfrwt beam="1">  1        2 0.34386052E+00 0.15368019E+04</pdfrwt>
<pdfrwt beam="2">  1       -2 0.40641223E-01 0.15368019E+04</pdfrwt>
<totfact> 0.27281521E+01</totfact>
</mgrwt>
</event>
<event>
12    1  0.1536832E-007  0.1494758E+04  0.7818608E-02  0.8887946E-01
         -1   -1    0    0    0  501 -0.00000000000E+00  0.00000000000E+00  0.22547478668E+04  0.22547478668E+04  0.00000000000E+00 0.  1.
          1   -1    0    0  501    0  0.00000000000E+00 -0.00000000000E+00 -0.24773288186E+03  0.24773288186E+03  0.00000000000E+00 0. -1.
         23    2    1    2    0    0  0.25991409239E+03 -0.19588441423E+02 -0.42614343987E+01  0.28206917552E+03  0.10773029980E+03 0.  0.
        254    2    1    2    0    0 -0.25991409239E+03  0.19588441423E+02  0.20112764194E+04  0.22204115732E+04  0.90391132127E+03 0.  0.
        -24    2    4    4    0    0 -0.48384378786E+03  0.27791789888E+03  0.96606426239E+03  0.11178881103E+04  0.71066860102E+02 0.  0.
         24    2    4    4    0    0  0.22392969547E+03 -0.25832945746E+03  0.10452121570E+04  0.11025234628E+04  0.78809364303E+02 0.  0.
         13    1    3    3    0    0  0.58200530447E+02 -0.84023626308E+01 -0.47354640844E+02  0.75500751331E+02  0.00000000000E+00 0. -1.
        -13    1    3    3    0    0  0.20171356194E+03 -0.11186078792E+02  0.43093206446E+02  0.20656842419E+03  0.00000000000E+00 0.  1.
          4    1    6    6  502    0  0.32445373118E+01 -0.23761467264E+02  0.36749470085E+02  0.43882318768E+02  0.00000000000E+00 0. -1.
          3    1    5    5  503    0 -0.25440169800E+03  0.17124083956E+03  0.47347044903E+03  0.56410807048E+03  0.00000000000E+00 0. -1.
         -4    1    5    5    0  503 -0.22944208986E+03  0.10667705932E+03  0.49259381336E+03  0.55378003985E+03  0.00000000000E+00 0.  1.
         -3    1    6    6    0  502  0.22068515816E+03 -0.23456799019E+03  0.10084626869E+04  0.10586411441E+04  0.00000000000E+00 0.  1.
<mgrwt>
<rscale>  0 0.14947578E+04</rscale>
<asrwt>0</asrwt>
<pdfrwt beam="1">  1        1 0.38112753E-01 0.14947578E+04</pdfrwt>
<pdfrwt beam="2">  1       -1 0.34688427E+00 0.14947578E+04</pdfrwt>
<totfact> 0.17835254E+00</totfact>
</mgrwt>
</event>
<event>
12    1  0.1536832E-007  0.6487767E+04  0.7818608E-02  0.7632700E-01
         -2   -1    0    0    0  501 -0.00000000000E+00  0.00000000000E+00  0.34460954902E+04  0.34460954902E+04  0.00000000000E+00 0.  1.
          2   -1    0    0  501    0  0.00000000000E+00 -0.00000000000E+00 -0.30535373354E+04  0.30535373354E+04  0.00000000000E+00 0. -1.
         23    2    1    2    0    0 -0.13531771293E+04 -0.14851987890E+04  0.26555935784E+04  0.33312534867E+04  0.90381153775E+02 0.  0.
        254    2    1    2    0    0  0.13531771293E+04  0.14851987890E+04 -0.22630354236E+04  0.31683793388E+04  0.93829340810E+03 0.  0.
        -24    2    4    4    0    0  0.12750523574E+03  0.78735451885E+02  0.66844473548E+02  0.18256701168E+03  0.80035452053E+02 0.  0.
         24    2    4    4    0    0  0.12256718936E+04  0.14064633371E+04 -0.23298798972E+04  0.29858123271E+04  0.79524889678E+02 0.  0.
         13    1    3    3    0    0 -0.11158533592E+03 -0.10271384934E+03  0.23483387928E+03  0.27955030477E+03  0.00000000000E+00 0. -1.
        -13    1    3    3    0    0 -0.12415917934E+04 -0.13824849396E+04  0.24207596991E+04  0.30517031820E+04  0.00000000000E+00 0.  1.
          4    1    6    6  502    0  0.12645544880E+03  0.13675688672E+03 -0.27136143836E+03  0.32913592454E+03  0.00000000000E+00 0. -1.
          1    1    5    5  503    0 -0.88671509139E+01  0.19059752434E+02  0.89469913153E+01  0.22846207164E+02  0.00000000000E+00 0. -1.
         -2    1    5    5    0  503  0.13637238665E+03  0.59675699451E+02  0.57897482233E+02  0.15972080451E+03  0.00000000000E+00 0.  1.
         -3    1    6    6    0  502  0.10992164448E+04  0.12697064504E+04 -0.20585184588E+04  0.26566764026E+04  0.00000000000E+00 0.  1.
<mgrwt>
<rscale>  0 0.64877673E+04</rscale>
<asrwt>0</asrwt>
<pdfrwt beam="1">  1        2 0.46977498E+00 0.64877673E+04</pdfrwt>
<pdfrwt beam="2">  1       -2 0.53016854E+00 0.64877673E+04</pdfrwt>
<totfact> 0.11612674E-03</totfact>
</mgrwt>
</event>
<event>
12    1  0.1536832E-007  0.1389419E+04  0.7818608E-02  0.8961513E-01
         -2   -1    0    0    0  501 -0.00000000000E+00  0.00000000000E+00  0.74159330487E+03  0.74159330487E+03  0.00000000000E+00 0.  1.
          2   -1    0    0  501    0  0.00000000000E+00 -0.00000000000E+00 -0.65078980015E+03  0.65078980015E+03  0.00000000000E+00 0. -1.
         23    2    1    2    0    0  0.27604757095E+03  0.13799205832E+03 -0.22905016131E+03  0.39553108531E+03  0.93470816109E+02 0.  0.
        254    2    1    2    0    0 -0.27604757095E+03 -0.13799205832E+03  0.31985366603E+03  0.99685201971E+03  0.89227995156E+03 0.  0.
        -24    2    4    4    0    0  0.25169842679E+03 -0.25425045873E+03  0.25508205846E+03  0.44670050125E+03  0.80492778905E+02 0.  0.
         24    2    4    4    0    0 -0.52774599774E+03  0.11625840041E+03  0.64771607563E+02  0.55015151846E+03  0.80246360216E+02 0.  0.
         11    1    3    3    0    0  0.83909105944E+02  0.60536145539E+01 -0.30945213189E+02  0.89638108686E+02  0.00000000000E+00 0.  1.
        -11    1    3    3    0    0  0.19213846500E+03  0.13193844376E+03 -0.19810494812E+03  0.30589297662E+03  0.00000000000E+00 0. -1.
          2    1    6    6  502    0 -0.39691755639E+02  0.28912531837E+02  0.17348113261E+02  0.52080005728E+02  0.00000000000E+00 0. -1.
          1    1    5    5  503    0  0.37973768516E+01  0.51019075035E+00  0.20385154895E+02  0.20742104658E+02  0.00000000000E+00 0. -1.
         -2    1    5    5    0  503  0.24790104994E+03 -0.25476064948E+03  0.23469690357E+03  0.42595839659E+03  0.00000000000E+00 0.  1.
         -1    1    6    6    0  502 -0.48805424210E+03  0.87345868577E+02  0.47423494302E+02  0.49807151274E+03  0.00000000000E+00 0.  1.
<mgrwt>
<rscale>  0 0.13894191E+04</rscale>
<asrwt>0</asrwt>
<pdfrwt beam="1">  1        2 0.10012151E+00 0.13894191E+04</pdfrwt>
<pdfrwt beam="2">  1       -2 0.11409128E+00 0.13894191E+04</pdfrwt>
<totfact> 0.26288451E+01</totfact>
</mgrwt>
</event>
<event>
12    1  0.1536832E-007  0.1251299E+04  0.7818608E-02  0.9069103E-01
          2   -1    0    0  501    0  0.00000000000E+00  0.00000000000E+00  0.14425991717E+04  0.14425991717E+04  0.00000000000E+00 0. -1.
         -2   -1    0    0    0  501 -0.00000000000E+00 -0.00000000000E+00 -0.27134177358E+03  0.27134177358E+03  0.00000000000E+00 0.  1.
         23    2    1    2    0    0  0.20584866976E+03 -0.90961397005E+02  0.52358824397E+03  0.57756723531E+03  0.93763593647E+02 0.  0.
        254    2    1    2    0    0 -0.20584866976E+03  0.90961397005E+02  0.64766915414E+03  0.11363737100E+04  0.90621312333E+03 0.  0.
        -24    2    4    4    0    0 -0.25703328499E+03 -0.43366227455E+01 -0.16296575107E+03  0.31460331598E+03  0.79576972264E+02 0.  0.
         24    2    4    4    0    0  0.51184615227E+02  0.95298019751E+02  0.81063490521E+03  0.82177039398E+03  0.80473930445E+02 0.  0.
         13    1    3    3    0    0  0.79514412524E+02 -0.72033681775E+02  0.16414921281E+03  0.19610292495E+03  0.00000000000E+00 0.  1.
        -13    1    3    3    0    0  0.12633425724E+03 -0.18927715230E+02  0.35943903116E+03  0.38146431036E+03  0.00000000000E+00 0. -1.
          2    1    6    6  502    0  0.50378427501E+02  0.12932827972E+02  0.34679501876E+03  0.35067367884E+03  0.00000000000E+00 0. -1.
          3    1    5    5  503    0 -0.37769373100E+01  0.29309809495E+01 -0.26304612265E+02  0.26735529379E+02  0.00000000000E+00 0. -1.
         -4    1    5    5    0  503 -0.25325634768E+03 -0.72676036950E+01 -0.13666113881E+03  0.28786778660E+03  0.00000000000E+00 0.  1.
         -1    1    6    6    0  502  0.80618772610E+00  0.82365191779E+02  0.46383988645E+03  0.47109671514E+03  0.00000000000E+00 0.  1.
<mgrwt>
<rscale>  0 0.12512992E+04</rscale>
<asrwt>0</asrwt>
<pdfrwt beam="1">  1        2 0.22193833E+00 0.12512992E+04</pdfrwt>
<pdfrwt beam="2">  1       -2 0.41744889E-01 0.12512992E+04</pdfrwt>
<totfact> 0.73128748E+01</totfact>
</mgrwt>
</event>
<event>
12    1  0.1536832E-007  0.1115057E+04  0.7818608E-02  0.9190639E-01
         -2   -1    0    0    0  501 -0.00000000000E+00  0.00000000000E+00  0.11804438838E+03  0.11804438838E+03  0.00000000000E+00 0. -1.
          2   -1    0    0  501    0  0.00000000000E+00 -0.00000000000E+00 -0.26332299268E+04  0.26332299268E+04  0.00000000000E+00 0.  1.
         23    2    1    2    0    0 -0.47704039710E+02  0.12313640756E+03 -0.16036472262E+03  0.22766917133E+03  0.93156626417E+02 0.  0.
        254    2    1    2    0    0  0.47704039710E+02 -0.12313640756E+03 -0.23548208158E+04  0.25236051439E+04  0.89775475337E+03 0.  0.
        -24    2    4    4    0    0  0.39883889136E+03 -0.18023837098E+03 -0.70108975532E+03  0.83028130647E+03  0.79258256458E+02 0.  0.
         24    2    4    4    0    0 -0.35113485165E+03  0.57101963425E+02 -0.16537310605E+04  0.16933238374E+04  0.77219683668E+02 0.  0.
         13    1    3    3    0    0 -0.21027405858E+02  0.79760556144E+02 -0.30101953436E+02  0.87806752099E+02  0.00000000000E+00 0. -1.
        -13    1    3    3    0    0 -0.26676633853E+02  0.43375851412E+02 -0.13026276918E+03  0.13986241924E+03  0.00000000000E+00 0.  1.
          2    1    6    6  502    0 -0.35160784645E+03  0.58312862026E+02 -0.16540265893E+04  0.16919906695E+04  0.00000000000E+00 0. -1.
          1    1    5    5  503    0  0.36619058658E+03 -0.17015436645E+03 -0.67768849463E+03  0.78886611657E+03  0.00000000000E+00 0. -1.
         -2    1    5    5    0  503  0.32648304772E+02 -0.10084004534E+02 -0.23401260696E+02  0.41415189895E+02  0.00000000000E+00 0.  1.
         -1    1    6    6    0  502  0.47299480121E+00 -0.12108986015E+01  0.29552875319E+00  0.13331679373E+01  0.00000000000E+00 0.  1.
<mgrwt>
<rscale>  0 0.11150570E+04</rscale>
<asrwt>0</asrwt>
<pdfrwt beam="1">  1        2 0.40511225E+00 0.11150570E+04</pdfrwt>
<pdfrwt beam="2">  1       -2 0.18160677E-01 0.11150570E+04</pdfrwt>
<totfact> 0.73791056E+01</totfact>
</mgrwt>
</event>
<event>
12    1  0.1536832E-007  0.1857319E+04  0.7818608E-02  0.8676398E-01
         -1   -1    0    0    0  501 -0.00000000000E+00  0.00000000000E+00  0.33322615094E+03  0.33322615094E+03  0.00000000000E+00 0.  1.
          1   -1    0    0  501    0  0.00000000000E+00 -0.00000000000E+00 -0.25880588333E+04  0.25880588333E+04  0.00000000000E+00 0. -1.
         23    2    1    2    0    0 -0.54285934336E+03  0.26964292410E+03 -0.14340928335E+04  0.15598371652E+04  0.95216351221E+02 0.  0.
        254    2    1    2    0    0  0.54285934336E+03 -0.26964292410E+03 -0.82073984880E+03  0.13614478190E+04  0.90140040566E+03 0.  0.
        -24    2    4    4    0    0  0.36409072996E+03 -0.28497718650E+03  0.47239451126E+02  0.47152030471E+03  0.79534744227E+02 0.  0.
         24    2    4    4    0    0  0.17876861339E+03  0.15334262399E+02 -0.86797929992E+03  0.88992751431E+03  0.79934716440E+02 0.  0.
         11    1    3    3    0    0 -0.23147203557E+03  0.16798597572E+03 -0.66510278295E+03  0.72398915957E+03  0.00000000000E+00 0.  1.
        -11    1    3    3    0    0 -0.31138730778E+03  0.10165694837E+03 -0.76899005058E+03  0.83584800562E+03  0.00000000000E+00 0. -1.
          2    1    6    6  502    0  0.13094344101E+03  0.39884754651E+02 -0.51512804955E+03  0.53300458331E+03  0.00000000000E+00 0. -1.
          3    1    5    5  503    0  0.12575598392E+03 -0.14671103882E+03  0.28796337599E+02  0.19536613182E+03  0.00000000000E+00 0. -1.
         -4    1    5    5    0  503  0.23833474605E+03 -0.13826614767E+03  0.18443113527E+02  0.27615417288E+03  0.00000000000E+00 0.  1.
         -1    1    6    6    0  502  0.47825172386E+02 -0.24550492251E+02 -0.35285125037E+03  0.35692293100E+03  0.00000000000E+00 0.  1.
<mgrwt>
<rscale>  0 0.18573194E+04</rscale>
<asrwt>0</asrwt>
<pdfrwt beam="1">  1        1 0.39816291E+00 0.18573194E+04</pdfrwt>
<pdfrwt beam="2">  1       -1 0.51265560E-01 0.18573194E+04</pdfrwt>
<totfact> 0.42313196E+00</totfact>
</mgrwt>
</event>
<event>
12    1  0.1536832E-007  0.1385236E+04  0.7818608E-02  0.8964575E-01
          1   -1    0    0  501    0  0.00000000000E+00  0.00000000000E+00  0.35374906311E+04  0.35374906311E+04  0.00000000000E+00 0. -1.
         -1   -1    0    0    0  501 -0.00000000000E+00 -0.00000000000E+00 -0.13561020119E+03  0.13561020119E+03  0.00000000000E+00 0.  1.
         23    2    1    2    0    0  0.15198692085E+03 -0.21684403481E+03  0.22060095603E+03  0.35671704097E+03  0.91983183115E+02 0.  0.
        254    2    1    2    0    0 -0.15198692085E+03  0.21684403481E+03  0.31812794739E+04  0.33163837914E+04  0.89874412426E+03 0.  0.
        -24    2    4    4    0    0 -0.60022456638E+01 -0.23704593138E+03  0.28231120362E+03  0.37724448088E+03  0.79918596877E+02 0.  0.
         24    2    4    4    0    0 -0.14598467519E+03  0.45388996619E+03  0.28989682703E+04  0.29391393105E+04  0.84824686315E+02 0.  0.
         13    1    3    3    0    0  0.82069946837E+02 -0.16853541799E+03  0.18858828956E+03  0.26590450589E+03  0.00000000000E+00 0.  1.
        -13    1    3    3    0    0  0.69916974015E+02 -0.48308616813E+02  0.32012666472E+02  0.90812535084E+02  0.00000000000E+00 0. -1.
          4    1    6    6  502    0 -0.16689735931E+02  0.59665779504E+02  0.23370421502E+03  0.24177719629E+03  0.00000000000E+00 0. -1.
          3    1    5    5  503    0 -0.17012231142E+02 -0.71284473096E+01  0.33831041496E+02  0.38532715168E+02  0.00000000000E+00 0. -1.
         -4    1    5    5    0  503  0.11009985478E+02 -0.22991748408E+03  0.24848016212E+03  0.33871176571E+03  0.00000000000E+00 0.  1.
         -3    1    6    6    0  502 -0.12929493926E+03  0.39422418669E+03  0.26652640553E+04  0.26973621142E+04  0.00000000000E+00 0.  1.
<mgrwt>
<rscale>  0 0.13852362E+04</rscale>
<asrwt>0</asrwt>
<pdfrwt beam="1">  1        1 0.54422926E+00 0.13852362E+04</pdfrwt>
<pdfrwt beam="2">  1       -1 0.20863111E-01 0.13852362E+04</pdfrwt>
<totfact> 0.44087101E+00</totfact>
</mgrwt>
</event>
<event>
12    1  0.1536832E-007  0.1542108E+04  0.7818608E-02  0.8856925E-01
         -2   -1    0    0    0  501 -0.00000000000E+00  0.00000000000E+00  0.95174987914E+03  0.95174987914E+03  0.00000000000E+00 0.  1.
          2   -1    0    0  501    0  0.00000000000E+00 -0.00000000000E+00 -0.62466437328E+03  0.62466437328E+03  0.00000000000E+00 0. -1.
         23    2    1    2    0    0  0.10700041314E+03  0.46474371486E+03 -0.55468058435E+02  0.48905578418E+03  0.93075483466E+02 0.  0.
        254    2    1    2    0    0 -0.10700041314E+03 -0.46474371486E+03  0.38255356429E+03  0.10873584682E+04  0.89920264679E+03 0.  0.
        -24    2    4    4    0    0 -0.38935546584E+03 -0.50338483204E+03  0.51154606202E+02  0.64324485674E+03  0.78442234053E+02 0.  0.
         24    2    4    4    0    0  0.28235505269E+03  0.38641117187E+02  0.33139895809E+03  0.44411361149E+03  0.78702724065E+02 0.  0.
         11    1    3    3    0    0  0.10395314614E+03  0.34022280007E+03 -0.82415512794E+01  0.35584509754E+03  0.00000000000E+00 0. -1.
        -11    1    3    3    0    0  0.30472670020E+01  0.12452091479E+03 -0.47226507156E+02  0.13321068664E+03  0.00000000000E+00 0.  1.
          2    1    6    6  502    0  0.43322754672E+02 -0.16847158002E+02  0.29451646827E+02  0.55028059261E+02  0.00000000000E+00 0. -1.
          3    1    5    5  503    0 -0.19538629078E+03 -0.21228052799E+03  0.53494580818E+02  0.29342885912E+03  0.00000000000E+00 0. -1.
         -4    1    5    5    0  503 -0.19396917505E+03 -0.29110430406E+03 -0.23399746163E+01  0.34981599762E+03  0.00000000000E+00 0.  1.
         -1    1    6    6    0  502  0.23903229802E+03  0.55488275189E+02  0.30194731126E+03  0.38908555223E+03  0.00000000000E+00 0.  1.
<mgrwt>
<rscale>  0 0.15421080E+04</rscale>
<asrwt>0</asrwt>
<pdfrwt beam="1">  1        2 0.96102211E-01 0.15421080E+04</pdfrwt>
<pdfrwt beam="2">  1       -2 0.14642306E+00 0.15421080E+04</pdfrwt>
<totfact> 0.14515370E+01</totfact>
</mgrwt>
</event>
<event>
12    1  0.1536832E-007  0.2249557E+04  0.7818608E-02  0.8498080E-01
         -1   -1    0    0    0  501 -0.00000000000E+00  0.00000000000E+00  0.58906923695E+03  0.58906923695E+03  0.00000000000E+00 0.  1.
          1   -1    0    0  501    0  0.00000000000E+00 -0.00000000000E+00 -0.21476708523E+04  0.21476708523E+04  0.00000000000E+00 0. -1.
         23    2    1    2    0    0  0.23768469620E+03  0.81120951732E+03 -0.15622469281E+03  0.86476073797E+03  0.94074882379E+02 0.  0.
        254    2    1    2    0    0 -0.23768469620E+03 -0.81120951732E+03 -0.14023769225E+04  0.18719793513E+04  0.90724349707E+03 0.  0.
        -24    2    4    4    0    0 -0.13352735759E+03  0.17810868989E+03 -0.34857154731E+03  0.42061892198E+03  0.76589119918E+02 0.  0.
         24    2    4    4    0    0 -0.10415733861E+03 -0.98931820721E+03 -0.10538053752E+04  0.14513604293E+04  0.79637055440E+02 0.  0.
         13    1    3    3    0    0  0.13070262294E+03  0.38991582261E+03 -0.30943873887E+02  0.41240156122E+03  0.00000000000E+00 0. -1.
        -13    1    3    3    0    0  0.10698207325E+03  0.42129369471E+03 -0.12528081892E+03  0.45235917675E+03  0.00000000000E+00 0.  1.
          4    1    6    6  502    0 -0.99420132100E+02 -0.91732005007E+03 -0.10045675152E+04  0.13640074522E+04  0.00000000000E+00 0. -1.
          1    1    5    5  503    0 -0.12064796897E+03  0.18400403222E+03 -0.31555830292E+03  0.38469528049E+03  0.00000000000E+00 0. -1.
         -2    1    5    5    0  503 -0.12879388611E+02 -0.58953423283E+01 -0.33013244394E+02  0.35923641485E+02  0.00000000000E+00 0.  1.
         -3    1    6    6    0  502 -0.47372065103E+01 -0.71998157135E+02 -0.49237859987E+02  0.87352977125E+02  0.00000000000E+00 0.  1.
<mgrwt>
<rscale>  0 0.22495571E+04</rscale>
<asrwt>0</asrwt>
<pdfrwt beam="1">  1        1 0.33041090E+00 0.22495571E+04</pdfrwt>
<pdfrwt beam="2">  1       -1 0.90626036E-01 0.22495571E+04</pdfrwt>
<totfact> 0.25535027E+00</totfact>
</mgrwt>
</event>
<event>
12    1  0.1536832E-007  0.3806052E+04  0.7818608E-02  0.8044857E-01
         -2   -1    0    0    0  501 -0.00000000000E+00  0.00000000000E+00  0.11229340802E+04  0.11229340802E+04  0.00000000000E+00 0. -1.
          2   -1    0    0  501    0  0.00000000000E+00 -0.00000000000E+00 -0.32250401317E+04  0.32250401317E+04  0.00000000000E+00 0.  1.
         23    2    1    2    0    0  0.93826881508E+03 -0.83078850783E+03  0.47379243688E+03  0.13428393048E+04  0.90444519160E+02 0.  0.
        254    2    1    2    0    0 -0.93826881508E+03  0.83078850783E+03 -0.25758984884E+04  0.30051349072E+04  0.90830879864E+03 0.  0.
        -24    2    4    4    0    0 -0.94550299564E+03  0.38758113748E+03 -0.13214666451E+04  0.16724189371E+04  0.80721460329E+02 0.  0.
         24    2    4    4    0    0  0.72341805552E+01  0.44320737035E+03 -0.12544318433E+04  0.13327159701E+04  0.77765679490E+02 0.  0.
         11    1    3    3    0    0  0.17252296590E+03 -0.11475921256E+03  0.97406447840E+02  0.22895822045E+03  0.00000000000E+00 0.  1.
        -11    1    3    3    0    0  0.76574584918E+03 -0.71602929527E+03  0.37638598904E+03  0.11138810843E+04  0.00000000000E+00 0. -1.
          2    1    6    6  502    0 -0.26294047769E+02  0.19710861719E+03 -0.63252312954E+03  0.66304501606E+03  0.00000000000E+00 0. -1.
          3    1    5    5  503    0 -0.40370873403E+03  0.14260556932E+03 -0.49864953790E+03  0.65724306918E+03  0.00000000000E+00 0. -1.
         -4    1    5    5    0  503 -0.54179426160E+03  0.24497556816E+03 -0.82281710717E+03  0.10151758679E+04  0.00000000000E+00 0.  1.
         -1    1    6    6    0  502  0.33528228324E+02  0.24609875316E+03 -0.62190871380E+03  0.66967095405E+03  0.00000000000E+00 0.  1.
<mgrwt>
<rscale>  0 0.38060517E+04</rscale>
<asrwt>0</asrwt>
<pdfrwt beam="1">  1        2 0.49616001E+00 0.38060517E+04</pdfrwt>
<pdfrwt beam="2">  1       -2 0.17275909E+00 0.38060517E+04</pdfrwt>
<totfact> 0.20367887E-01</totfact>
</mgrwt>
</event>
<event>
12    1  0.1536832E-007  0.1679470E+04  0.7818608E-02  0.8773161E-01
         -1   -1    0    0    0  501 -0.00000000000E+00  0.00000000000E+00  0.60639697750E+03  0.60639697750E+03  0.00000000000E+00 0.  1.
          1   -1    0    0  501    0  0.00000000000E+00 -0.00000000000E+00 -0.11628598808E+04  0.11628598808E+04  0.00000000000E+00 0. -1.
         23    2    1    2    0    0  0.22391560469E+03 -0.16714528166E+03 -0.74521743993E+03  0.80233034872E+03  0.10153429222E+03 0.  0.
        254    2    1    2    0    0 -0.22391560469E+03  0.16714528166E+03  0.18875453658E+03  0.96692650963E+03  0.90622450681E+03 0.  0.
        -24    2    4    4    0    0  0.12718694130E+03  0.43552579677E+03  0.23208375620E+03  0.51569008000E+03  0.78829886666E+02 0.  0.
         24    2    4    4    0    0 -0.35110254599E+03 -0.26838051511E+03 -0.43329219625E+02  0.45123642963E+03  0.80223409692E+02 0.  0.
         13    1    3    3    0    0  0.19913803309E+03 -0.17919746521E+03 -0.69824864187E+03  0.74787622882E+03  0.00000000000E+00 0. -1.
        -13    1    3    3    0    0  0.24777571601E+02  0.12052183552E+02 -0.46968798055E+02  0.54454119895E+02  0.00000000000E+00 0.  1.
          2    1    6    6  502    0 -0.42058988909E+02 -0.67618355855E+02 -0.19230041788E+02  0.81920663472E+02  0.00000000000E+00 0. -1.
          1    1    5    5  503    0  0.22748122432E+02  0.19359613002E+03  0.12302341565E+03  0.23050314408E+03  0.00000000000E+00 0. -1.
         -2    1    5    5    0  503  0.10443881887E+03  0.24192966675E+03  0.10906034056E+03  0.28518693593E+03  0.00000000000E+00 0.  1.
         -1    1    6    6    0  502 -0.30904355708E+03 -0.20076215925E+03 -0.24099177837E+02  0.36931576616E+03  0.00000000000E+00 0.  1.
<mgrwt>
<rscale>  0 0.16794698E+04</rscale>
<asrwt>0</asrwt>
<pdfrwt beam="1">  1        1 0.17890152E+00 0.16794698E+04</pdfrwt>
<pdfrwt beam="2">  1       -1 0.93291845E-01 0.16794698E+04</pdfrwt>
<totfact> 0.12099321E+01</totfact>
</mgrwt>
</event>
<event>
12    1  0.1536832E-007  0.1669926E+04  0.7818608E-02  0.8778705E-01
         -1   -1    0    0    0  501 -0.00000000000E+00  0.00000000000E+00  0.34756455616E+03  0.34756455616E+03  0.00000000000E+00 0.  1.
          1   -1    0    0  501    0  0.00000000000E+00 -0.00000000000E+00 -0.20058529564E+04  0.20058529564E+04  0.00000000000E+00 0. -1.
         23    2    1    2    0    0  0.48535352069E+03  0.31372314948E+03 -0.52496894551E+03  0.78607729774E+03  0.91295507549E+02 0.  0.
        254    2    1    2    0    0 -0.48535352069E+03 -0.31372314948E+03 -0.11333194547E+04  0.15673402148E+04  0.91550647621E+03 0.  0.
        -24    2    4    4    0    0 -0.34739296527E+03  0.16906833280E+03 -0.94682625351E+03  0.10256511567E+04  0.78831259104E+02 0.  0.
         24    2    4    4    0    0 -0.13796055542E+03 -0.48279148228E+03 -0.18649320123E+03  0.54168905815E+03  0.80787321995E+02 0.  0.
         13    1    3    3    0    0  0.42180259812E+03  0.29000298574E+03 -0.42525606115E+03  0.66547868566E+03  0.00000000000E+00 0. -1.
        -13    1    3    3    0    0  0.63550922563E+02  0.23720163739E+02 -0.99712884364E+02  0.12059861208E+03  0.00000000000E+00 0.  1.
          2    1    6    6  502    0 -0.90569447388E+02 -0.38448330236E+03 -0.17471395893E+03  0.43192036539E+03  0.00000000000E+00 0. -1.
          3    1    5    5  503    0 -0.33102623937E+03  0.17601166350E+03 -0.92011390639E+03  0.99356332338E+03  0.00000000000E+00 0. -1.
         -4    1    5    5    0  503 -0.16366725894E+02 -0.69433306984E+01 -0.26712347122E+02  0.32087833309E+02  0.00000000000E+00 0.  1.
         -1    1    6    6    0  502 -0.47391108032E+02 -0.98308179921E+02 -0.11779242296E+02  0.10976869275E+03  0.00000000000E+00 0.  1.
<mgrwt>
<rscale>  0 0.16699262E+04</rscale>
<asrwt>0</asrwt>
<pdfrwt beam="1">  1        1 0.30859277E+00 0.16699262E+04</pdfrwt>
<pdfrwt beam="2">  1       -1 0.53471469E-01 0.16699262E+04</pdfrwt>
<totfact> 0.99435557E+00</totfact>
</mgrwt>
</event>
<event>
12    1  0.1536832E-007  0.1201267E+04  0.7818608E-02  0.9111749E-01
          2   -1    0    0  501    0  0.00000000000E+00  0.00000000000E+00  0.14484959697E+04  0.14484959697E+04  0.00000000000E+00 0. -1.
         -2   -1    0    0    0  501 -0.00000000000E+00 -0.00000000000E+00 -0.24905863691E+03  0.24905863691E+03  0.00000000000E+00 0.  1.
         23    2    1    2    0    0 -0.88739691415E+02  0.85050840391E+02  0.56355065386E+03  0.58485758341E+03  0.96750582041E+02 0.  0.
        254    2    1    2    0    0  0.88739691415E+02 -0.85050840391E+02  0.63588667890E+03  0.11126970232E+04  0.90478418350E+03 0.  0.
        -24    2    4    4    0    0  0.26322866954E+03 -0.31469308561E+03  0.88837313395E+01  0.41804079273E+03  0.79737777138E+02 0.  0.
         24    2    4    4    0    0 -0.17448897813E+03  0.22964224522E+03  0.62700294757E+03  0.69465623046E+03  0.78946931423E+02 0.  0.
         13    1    3    3    0    0  0.14825851123E+02  0.13226151718E+02  0.18084271296E+03  0.18193082142E+03  0.00000000000E+00 0.  1.
        -13    1    3    3    0    0 -0.10356554254E+03  0.71824688672E+02  0.38270794090E+03  0.40292676199E+03  0.00000000000E+00 0. -1.
          4    1    6    6  502    0 -0.44838869624E+02  0.23871432466E+02  0.16365031990E+03  0.17135284276E+03  0.00000000000E+00 0. -1.
          1    1    5    5  503    0 -0.36348571965E+01 -0.14655860012E+02  0.66250630698E+01  0.16489326251E+02  0.00000000000E+00 0. -1.
         -2    1    5    5    0  503  0.26686352674E+03 -0.30003722559E+03  0.22586682697E+01  0.40155146647E+03  0.00000000000E+00 0.  1.
         -3    1    6    6    0  502 -0.12965010850E+03  0.20577081275E+03  0.46335262766E+03  0.52330338770E+03  0.00000000000E+00 0.  1.
<mgrwt>
<rscale>  0 0.12012667E+04</rscale>
<asrwt>0</asrwt>
<pdfrwt beam="1">  1        2 0.22284553E+00 0.12012667E+04</pdfrwt>
<pdfrwt beam="2">  1       -2 0.38316715E-01 0.12012667E+04</pdfrwt>
<totfact> 0.86113863E+01</totfact>
</mgrwt>
</event>
<event>
12    1  0.1536832E-007  0.2490838E+04  0.7818608E-02  0.8406257E-01
          2   -1    0    0  501    0  0.00000000000E+00  0.00000000000E+00  0.32823922902E+04  0.32823922902E+04  0.00000000000E+00 0. -1.
         -2   -1    0    0    0  501 -0.00000000000E+00 -0.00000000000E+00 -0.47254226542E+03  0.47254226542E+03  0.00000000000E+00 0.  1.
         23    2    1    2    0    0  0.70516003036E+03  0.15991133478E+03  0.24490884584E+04  0.25552239214E+04  0.91174055439E+02 0.  0.
        254    2    1    2    0    0 -0.70516003036E+03 -0.15991133478E+03  0.36076156645E+03  0.11997106342E+04  0.88675498003E+03 0.  0.
        -24    2    4    4    0    0 -0.47163193365E+03 -0.51959611073E+03  0.25551484527E+03  0.75115319118E+03  0.80786640858E+02 0.  0.
         24    2    4    4    0    0 -0.23352809671E+03  0.35968477595E+03  0.10524672118E+03  0.44855744303E+03  0.78856815657E+02 0.  0.
         11    1    3    3    0    0  0.63832040849E+03  0.13519279254E+03  0.22849155179E+04  0.23762510303E+04  0.00000000000E+00 0. -1.
        -11    1    3    3    0    0  0.66839621873E+02  0.24718542237E+02  0.16417294046E+03  0.17897289113E+03  0.00000000000E+00 0.  1.
          2    1    6    6  502    0 -0.16538545833E+03  0.31065094910E+03  0.89629786443E+02  0.36316643653E+03  0.00000000000E+00 0. -1.
          3    1    5    5  503    0 -0.34498687663E+03 -0.42154802070E+03  0.21752531379E+03  0.58654577054E+03  0.00000000000E+00 0. -1.
         -4    1    5    5    0  503 -0.12664505702E+03 -0.98048090031E+02  0.37989531479E+02  0.16460742064E+03  0.00000000000E+00 0.  1.
         -1    1    6    6    0  502 -0.68142638375E+02  0.49033826851E+02  0.15616934738E+02  0.85391006499E+02  0.00000000000E+00 0.  1.
<mgrwt>
<rscale>  0 0.24908385E+04</rscale>
<asrwt>0</asrwt>
<pdfrwt beam="1">  1        2 0.50498341E+00 0.24908385E+04</pdfrwt>
<pdfrwt beam="2">  1       -2 0.72698812E-01 0.24908385E+04</pdfrwt>
<totfact> 0.17486596E+00</totfact>
</mgrwt>
</event>
<event>
12    1  0.1536832E-007  0.1729586E+04  0.7818608E-02  0.8744668E-01
          2   -1    0    0  501    0  0.00000000000E+00  0.00000000000E+00  0.54415636067E+03  0.54415636067E+03  0.00000000000E+00 0. -1.
         -2   -1    0    0    0  501 -0.00000000000E+00 -0.00000000000E+00 -0.13743607804E+04  0.13743607804E+04  0.00000000000E+00 0.  1.
         23    2    1    2    0    0 -0.49331312529E+03  0.25587727086E+03 -0.65424313734E+03  0.86388442238E+03  0.97114340645E+02 0.  0.
        254    2    1    2    0    0  0.49331312529E+03 -0.25587727086E+03 -0.17596128238E+03  0.10546327187E+04  0.87889520482E+03 0.  0.
        -24    2    4    4    0    0  0.50549801198E+02 -0.49654720226E+03  0.23249137647E+02  0.50614490370E+03  0.80794397483E+02 0.  0.
         24    2    4    4    0    0  0.44276332409E+03  0.24066993140E+03 -0.19921042002E+03  0.54848781497E+03  0.84809873737E+02 0.  0.
         13    1    3    3    0    0 -0.77221711855E+02  0.27928080047E+02 -0.15344098454E+03  0.17403248597E+03  0.00000000000E+00 0. -1.
        -13    1    3    3    0    0 -0.41609141343E+03  0.22794919081E+03 -0.50080215280E+03  0.68985193641E+03  0.00000000000E+00 0.  1.
          4    1    6    6  502    0  0.13490922316E+03  0.81845896325E+02 -0.21806586178E+02  0.15929462150E+03  0.00000000000E+00 0. -1.
          1    1    5    5  503    0 -0.14577234219E+02 -0.23017245470E+03 -0.31612382308E+01  0.23065525810E+03  0.00000000000E+00 0. -1.
         -4    1    5    5    0  503  0.65127035417E+02 -0.26637474756E+03  0.26410375878E+02  0.27548964560E+03  0.00000000000E+00 0.  1.
         -3    1    6    6    0  502  0.30785410093E+03  0.15882403508E+03 -0.17740383385E+03  0.38919319346E+03  0.00000000000E+00 0.  1.
<mgrwt>
<rscale>  0 0.17295863E+04</rscale>
<asrwt>0</asrwt>
<pdfrwt beam="1">  1        2 0.83716363E-01 0.17295863E+04</pdfrwt>
<pdfrwt beam="2">  1       -2 0.21144012E+00 0.17295863E+04</pdfrwt>
<totfact> 0.59280614E+00</totfact>
</mgrwt>
</event>
<event>
12    1  0.1536832E-007  0.1206384E+04  0.7818608E-02  0.9107287E-01
         -3   -1    0    0    0  501 -0.00000000000E+00  0.00000000000E+00  0.19396138758E+04  0.19396138758E+04  0.00000000000E+00 0.  1.
          3   -1    0    0  501    0  0.00000000000E+00 -0.00000000000E+00 -0.18758394963E+03  0.18758394963E+03  0.00000000000E+00 0. -1.
         23    2    1    2    0    0 -0.67239996991E+02 -0.18534382049E+03  0.11106518272E+03  0.24318330924E+03  0.89045483263E+02 0.  0.
        254    2    1    2    0    0  0.67239996991E+02  0.18534382049E+03  0.16409647435E+04  0.18840145162E+04  0.90436268112E+03 0.  0.
        -24    2    4    4    0    0  0.15956697890E+03  0.41553064787E+03  0.36361628248E+03  0.58032460059E+03  0.80202874562E+02 0.  0.
         24    2    4    4    0    0 -0.92326981914E+02 -0.23018682738E+03  0.12773484610E+04  0.13036899156E+04  0.80486385342E+02 0.  0.
         11    1    3    3    0    0  0.49280609036E+01 -0.11124135277E+02  0.39754937402E+02  0.41575079287E+02  0.00000000000E+00 0.  1.
        -11    1    3    3    0    0 -0.72168057894E+02 -0.17421968521E+03  0.71310245320E+02  0.20160822995E+03  0.00000000000E+00 0. -1.
          4    1    6    6  502    0 -0.47787610862E+02 -0.11851681196E+03  0.45517463700E+03  0.47277250411E+03  0.00000000000E+00 0. -1.
          1    1    5    5  503    0  0.69078654392E+02  0.19370420143E+03  0.21930005354E+03  0.30064213216E+03  0.00000000000E+00 0. -1.
         -2    1    5    5    0  503  0.90488324513E+02  0.22182644644E+03  0.14431622894E+03  0.27968246843E+03  0.00000000000E+00 0.  1.
         -3    1    6    6    0  502 -0.44539371052E+02 -0.11167001542E+03  0.82217382397E+03  0.83091741150E+03  0.00000000000E+00 0.  1.
<mgrwt>
<rscale>  0 0.12063837E+04</rscale>
<asrwt>0</asrwt>
<pdfrwt beam="1">  1        3 0.28859071E-01 0.12063837E+04</pdfrwt>
<pdfrwt beam="2">  1       -3 0.29840212E+00 0.12063837E+04</pdfrwt>
<totfact> 0.11816813E+00</totfact>
</mgrwt>
</event>
<event>
12    1  0.1536832E-007  0.2311960E+04  0.7818608E-02  0.8473220E-01
          3   -1    0    0  501    0  0.00000000000E+00  0.00000000000E+00  0.35496226755E+04  0.35496226755E+04  0.00000000000E+00 0. -1.
         -3   -1    0    0    0  501 -0.00000000000E+00 -0.00000000000E+00 -0.37645972809E+03  0.37645972809E+03  0.00000000000E+00 0.  1.
         23    2    1    2    0    0 -0.95677729345E+03 -0.22078294413E+03  0.14898809720E+04  0.17867932980E+04  0.93365311526E+02 0.  0.
        254    2    1    2    0    0  0.95677729345E+03  0.22078294413E+03  0.16832819755E+04  0.21392891056E+04  0.88258244421E+03 0.  0.
        -24    2    4    4    0    0  0.25803129724E+03  0.78833059125E+02 -0.28504594996E+02  0.28350743659E+03  0.82274863108E+02 0.  0.
         24    2    4    4    0    0  0.69874599621E+03  0.14194988500E+03  0.17117865705E+04  0.18557816690E+04  0.72915041211E+02 0.  0.
         11    1    3    3    0    0 -0.38552015570E+03 -0.99142060785E+02  0.68614606095E+03  0.79325365150E+03  0.00000000000E+00 0. -1.
        -11    1    3    3    0    0 -0.57125713775E+03 -0.12164088334E+03  0.80373491100E+03  0.99353964646E+03  0.00000000000E+00 0.  1.
          2    1    6    6  502    0  0.29767764154E+03  0.61321411588E+02  0.63761242773E+03  0.70634403926E+03  0.00000000000E+00 0. -1.
          1    1    5    5  503    0  0.63939635998E+02  0.57737627283E+02 -0.17862925916E+02  0.87982923219E+02  0.00000000000E+00 0. -1.
         -2    1    5    5    0  503  0.19409166124E+03  0.21095431842E+02 -0.10641669080E+02  0.19552451337E+03  0.00000000000E+00 0.  1.
         -1    1    6    6    0  502  0.40106835467E+03  0.80628473416E+02  0.10741741427E+04  0.11494376298E+04  0.00000000000E+00 0.  1.
<mgrwt>
<rscale>  0 0.23119602E+04</rscale>
<asrwt>0</asrwt>
<pdfrwt beam="1">  1        3 0.54609577E+00 0.23119602E+04</pdfrwt>
<pdfrwt beam="2">  1       -3 0.57916884E-01 0.23119602E+04</pdfrwt>
<totfact> 0.14202560E-02</totfact>
</mgrwt>
</event>
<event>
12    1  0.1536832E-007  0.2524520E+04  0.7818608E-02  0.8394302E-01
         -2   -1    0    0    0  501 -0.00000000000E+00  0.00000000000E+00  0.54844807971E+03  0.54844807971E+03  0.00000000000E+00 0.  1.
          2   -1    0    0  501    0  0.00000000000E+00 -0.00000000000E+00 -0.29051059916E+04  0.29051059916E+04  0.00000000000E+00 0. -1.
         23    2    1    2    0    0  0.72516642058E+03  0.22832410198E+03  0.60778634996E+02  0.76805872125E+03  0.90674824095E+02 0.  0.
        254    2    1    2    0    0 -0.72516642058E+03 -0.22832410198E+03 -0.24174365469E+04  0.26854953501E+04  0.88875620048E+03 0.  0.
        -24    2    4    4    0    0  0.21518394596E+02 -0.25230506155E+03 -0.13760734756E+04  0.14014292954E+04  0.79403868821E+02 0.  0.
         24    2    4    4    0    0 -0.74668481518E+03  0.23980959562E+02 -0.10413630713E+04  0.12840660547E+04  0.79216708211E+02 0.  0.
         13    1    3    3    0    0  0.46416560750E+03  0.11795252459E+03  0.34024844120E+01  0.47893014746E+03  0.00000000000E+00 0. -1.
        -13    1    3    3    0    0  0.26100081308E+03  0.11037157739E+03  0.57376150584E+02  0.28912857379E+03  0.00000000000E+00 0.  1.
          2    1    6    6  502    0 -0.52558807863E+03  0.37381573911E+02 -0.68060263282E+03  0.86073233602E+03  0.00000000000E+00 0. -1.
          3    1    5    5  503    0 -0.22324483622E+02 -0.10737071577E+03 -0.70547353547E+03  0.71394661034E+03  0.00000000000E+00 0. -1.
         -4    1    5    5    0  503  0.43842878218E+02 -0.14493434578E+03 -0.67059994010E+03  0.68748268503E+03  0.00000000000E+00 0.  1.
         -1    1    6    6    0  502 -0.22109673655E+03 -0.13400614349E+02 -0.36076043853E+03  0.42333371869E+03  0.00000000000E+00 0.  1.
<mgrwt>
<rscale>  0 0.25245196E+04</rscale>
<asrwt>0</asrwt>
<pdfrwt beam="1">  1        2 0.44693939E+00 0.25245196E+04</pdfrwt>
<pdfrwt beam="2">  1       -2 0.84376627E-01 0.25245196E+04</pdfrwt>
<totfact> 0.21752608E+00</totfact>
</mgrwt>
</event>
<event>
12    1  0.1536832E-007  0.1837470E+04  0.7818608E-02  0.8686624E-01
         -1   -1    0    0    0  501 -0.00000000000E+00  0.00000000000E+00  0.16357298310E+04  0.16357298310E+04  0.00000000000E+00 0.  1.
          1   -1    0    0  501    0  0.00000000000E+00 -0.00000000000E+00 -0.51602261571E+03  0.51602261571E+03  0.00000000000E+00 0. -1.
         23    2    1    2    0    0  0.20599300416E+03 -0.20153888468E+03 -0.31112446728E+03  0.43424898453E+03  0.93395431490E+02 0.  0.
        254    2    1    2    0    0 -0.20599300416E+03  0.20153888468E+03  0.14308316826E+04  0.17175034622E+04  0.90525565392E+03 0.  0.
        -24    2    4    4    0    0  0.30294434255E+03  0.26570154180E+03  0.81227175536E+03  0.90986344605E+03  0.75455297387E+02 0.  0.
         24    2    4    4    0    0 -0.50893734671E+03 -0.64162657120E+02  0.61855992726E+03  0.80764001617E+03  0.80820434743E+02 0.  0.
         11    1    3    3    0    0  0.64796968410E+02 -0.10714274051E+03 -0.84561365581E+02  0.15109215237E+03  0.00000000000E+00 0.  1.
        -11    1    3    3    0    0  0.14119603575E+03 -0.94396144167E+02 -0.22656310170E+03  0.28315683216E+03  0.00000000000E+00 0. -1.
          4    1    6    6  502    0 -0.26605984471E+03  0.65634544314E+01  0.30628431745E+03  0.40575978487E+03  0.00000000000E+00 0. -1.
          3    1    5    5  503    0  0.18138898092E+03  0.20434602035E+03  0.51939170739E+03  0.58687903705E+03  0.00000000000E+00 0. -1.
         -4    1    5    5    0  503  0.12155536163E+03  0.61355521453E+02  0.29288004797E+03  0.32298440899E+03  0.00000000000E+00 0.  1.
         -3    1    6    6    0  502 -0.24287750199E+03 -0.70726111552E+02  0.31227560981E+03  0.40188023130E+03  0.00000000000E+00 0.  1.
<mgrwt>
<rscale>  0 0.18374695E+04</rscale>
<asrwt>0</asrwt>
<pdfrwt beam="1">  1        1 0.79388095E-01 0.18374695E+04</pdfrwt>
<pdfrwt beam="2">  1       -1 0.25165074E+00 0.18374695E+04</pdfrwt>
<totfact> 0.27140328E+00</totfact>
</mgrwt>
</event>
<event>
12    1  0.1536832E-007  0.1666239E+04  0.7818608E-02  0.8780857E-01
          2   -1    0    0  501    0  0.00000000000E+00  0.00000000000E+00  0.38915100751E+03  0.38915100751E+03  0.00000000000E+00 0.  1.
         -2   -1    0    0    0  501 -0.00000000000E+00 -0.00000000000E+00 -0.17835947745E+04  0.17835947745E+04  0.00000000000E+00 0. -1.
         23    2    1    2    0    0 -0.12207018286E+03 -0.13362469470E+03 -0.12377847683E+04  0.12541917121E+04  0.90161131295E+02 0.  0.
        254    2    1    2    0    0  0.12207018286E+03  0.13362469470E+03 -0.15665899875E+03  0.91855406992E+03  0.88681613027E+03 0.  0.
        -24    2    4    4    0    0  0.75999029081E+02  0.61629680037E+02  0.36344574135E+03  0.38533117960E+03  0.82542359940E+02 0.  0.
         24    2    4    4    0    0  0.46071153781E+02  0.71995014667E+02 -0.52010474010E+03  0.53322289032E+03  0.80696200303E+02 0.  0.
         13    1    3    3    0    0 -0.40452571316E+02 -0.55079059173E+02 -0.76417200380E+03  0.76722158773E+03  0.00000000000E+00 0. -1.
        -13    1    3    3    0    0 -0.81617611546E+02 -0.78545635531E+02 -0.47361276449E+03  0.48697012440E+03  0.00000000000E+00 0.  1.
          4    1    6    6  502    0 -0.18095313243E+02  0.42065201256E+02 -0.23827585406E+03  0.24263615589E+03  0.00000000000E+00 0. -1.
          3    1    5    5  503    0  0.79043902462E+02  0.17593311305E+02  0.19382550978E+03  0.21006139902E+03  0.00000000000E+00 0. -1.
         -4    1    5    5    0  503 -0.30448733812E+01  0.44036368732E+02  0.16962023157E+03  0.17526978058E+03  0.00000000000E+00 0.  1.
         -3    1    6    6    0  502  0.64166467025E+02  0.29929813411E+02 -0.28182888604E+03  0.29058673443E+03  0.00000000000E+00 0.  1.
<mgrwt>
<rscale>  0 0.16662385E+04</rscale>
<asrwt>0</asrwt>
<pdfrwt beam="1">  1        2 0.59869387E-01 0.16662385E+04</pdfrwt>
<pdfrwt beam="2">  1       -2 0.27439919E+00 0.16662385E+04</pdfrwt>
<totfact> 0.35695617E+00</totfact>
</mgrwt>
</event>
<event>
12    1  0.1536832E-007  0.1350449E+04  0.7818608E-02  0.8990488E-01
          2   -1    0    0  501    0  0.00000000000E+00  0.00000000000E+00  0.16030526275E+04  0.16030526275E+04  0.00000000000E+00 0. -1.
         -2   -1    0    0    0  501 -0.00000000000E+00 -0.00000000000E+00 -0.28441238481E+03  0.28441238481E+03  0.00000000000E+00 0.  1.
         23    2    1    2    0    0 -0.18695300112E+03  0.71221970085E+01  0.81537678928E+03  0.84143895789E+03  0.90432632592E+02 0.  0.
        254    2    1    2    0    0  0.18695300112E+03 -0.71221970085E+01  0.50326345340E+03  0.10460260544E+04  0.89771613146E+03 0.  0.
        -24    2    4    4    0    0  0.27274461186E+03  0.22113183200E+03 -0.11342616897E+03  0.37815824443E+03  0.82760205427E+02 0.  0.
         24    2    4    4    0    0 -0.85791610743E+02 -0.22825402901E+03  0.61668962237E+03  0.66786780999E+03  0.79254142175E+02 0.  0.
         11    1    3    3    0    0 -0.22933280047E+02 -0.41299839588E+01  0.25127818062E+02  0.34269510381E+02  0.00000000000E+00 0.  1.
        -11    1    3    3    0    0 -0.16401972107E+03  0.11252180967E+02  0.79024897122E+03  0.80716944751E+03  0.00000000000E+00 0. -1.
          2    1    6    6  502    0  0.24758396643E+01  0.45448303204E+01  0.40530883159E+01  0.65736435544E+01  0.00000000000E+00 0. -1.
          1    1    5    5  503    0  0.12108404203E+03  0.47776942171E+02 -0.47678573080E+02  0.13862621602E+03  0.00000000000E+00 0. -1.
         -2    1    5    5    0  503  0.15166056983E+03  0.17335488983E+03 -0.65747595887E+02  0.23953202841E+03  0.00000000000E+00 0.  1.
         -1    1    6    6    0  502 -0.88267450407E+02 -0.23279885933E+03  0.61263653405E+03  0.66129416644E+03  0.00000000000E+00 0.  1.
<mgrwt>
<rscale>  0 0.13504488E+04</rscale>
<asrwt>0</asrwt>
<pdfrwt beam="1">  1        2 0.24662348E+00 0.13504488E+04</pdfrwt>
<pdfrwt beam="2">  1       -2 0.43755752E-01 0.13504488E+04</pdfrwt>
<totfact> 0.53725438E+01</totfact>
</mgrwt>
</event>
<event>
12    1  0.1536832E-007  0.2134891E+04  0.7818608E-02  0.8546028E-01
          2   -1    0    0  501    0  0.00000000000E+00  0.00000000000E+00  0.34940463051E+04  0.34940463051E+04  0.00000000000E+00 0. -1.
         -2   -1    0    0    0  501 -0.00000000000E+00 -0.00000000000E+00 -0.32610888698E+03  0.32610888698E+03  0.00000000000E+00 0.  1.
         23    2    1    2    0    0  0.20019249254E+03 -0.37104564357E+03 -0.64929393404E+02  0.43586677432E+03  0.89510419213E+02 0.  0.
        254    2    1    2    0    0 -0.20019249254E+03  0.37104564357E+03  0.32328668115E+04  0.33842884177E+04  0.90787023843E+03 0.  0.
        -24    2    4    4    0    0 -0.18252969961E+03 -0.12414929463E+03  0.24030007126E+04  0.24144458133E+04  0.80037629691E+02 0.  0.
         24    2    4    4    0    0 -0.17662792933E+02  0.49519493820E+03  0.82986609894E+03  0.96984260444E+03  0.79918296678E+02 0.  0.
         11    1    3    3    0    0  0.20915194256E+03 -0.34583717159E+03 -0.58771991184E+02  0.40841404393E+03  0.00000000000E+00 0.  1.
        -11    1    3    3    0    0 -0.89594500134E+01 -0.25208471980E+02 -0.61574022204E+01  0.27452730396E+02  0.00000000000E+00 0. -1.
          4    1    6    6  502    0  0.21905498891E+02  0.36490009801E+03  0.59276263431E+03  0.69641903553E+03  0.00000000000E+00 0. -1.
          3    1    5    5  503    0 -0.12660549155E+03 -0.55387544003E+02  0.11412964039E+04  0.11496322073E+04  0.00000000000E+00 0. -1.
         -4    1    5    5    0  503 -0.55924208058E+02 -0.68761750630E+02  0.12617043087E+04  0.12648136060E+04  0.00000000000E+00 0.  1.
         -3    1    6    6    0  502 -0.39568291824E+02  0.13029484020E+03  0.23710346463E+03  0.27342356892E+03  0.00000000000E+00 0.  1.
<mgrwt>
<rscale>  0 0.21348907E+04</rscale>
<asrwt>0</asrwt>
<pdfrwt beam="1">  1        2 0.53754556E+00 0.21348907E+04</pdfrwt>
<pdfrwt beam="2">  1       -2 0.50170600E-01 0.21348907E+04</pdfrwt>
<totfact> 0.28463023E+00</totfact>
</mgrwt>
</event>
<event>
12    1  0.1536832E-007  0.1522049E+04  0.7818608E-02  0.8869922E-01
         -1   -1    0    0    0  501 -0.00000000000E+00  0.00000000000E+00  0.19960858078E+03  0.19960858078E+03  0.00000000000E+00 0.  1.
          1   -1    0    0  501    0  0.00000000000E+00 -0.00000000000E+00 -0.29014692076E+04  0.29014692076E+04  0.00000000000E+00 0. -1.
         23    2    1    2    0    0  0.13121622599E+03 -0.11239422024E+03  0.49602944789E+02  0.20011381280E+03  0.87948435106E+02 0.  0.
        254    2    1    2    0    0 -0.13121622599E+03  0.11239422024E+03 -0.27514635716E+04  0.29009639756E+04  0.90287875319E+03 0.  0.
        -24    2    4    4    0    0 -0.65048025951E+02  0.50390318714E+03 -0.15589636880E+04  0.16416475294E+04  0.80555338142E+02 0.  0.
         24    2    4    4    0    0 -0.66168200040E+02 -0.39150896690E+03 -0.11924998836E+04  0.12593164462E+04  0.78513931197E+02 0.  0.
         11    1    3    3    0    0 -0.55275790641E+01  0.52492879995E+01  0.14446725335E+02  0.16334534818E+02  0.00000000000E+00 0. -1.
        -11    1    3    3    0    0  0.13674380506E+03 -0.11764350824E+03  0.35156219453E+02  0.18377927799E+03  0.00000000000E+00 0.  1.
          2    1    6    6  502    0  0.27176241203E+01 -0.21174122622E+03 -0.65507342304E+03  0.68844965098E+03  0.00000000000E+00 0. -1.
          1    1    5    5  503    0  0.93888713061E+01  0.85092281078E+01 -0.55216718349E+02  0.56651953652E+02  0.00000000000E+00 0. -1.
         -2    1    5    5    0  503 -0.74436897257E+02  0.49539395903E+03 -0.15037469697E+04  0.15849955758E+04  0.00000000000E+00 0.  1.
         -1    1    6    6    0  502 -0.68885824160E+02 -0.17976774068E+03 -0.53742646055E+03  0.57086679520E+03  0.00000000000E+00 0.  1.
<mgrwt>
<rscale>  0 0.15220488E+04</rscale>
<asrwt>0</asrwt>
<pdfrwt beam="1">  1        1 0.44637987E+00 0.15220488E+04</pdfrwt>
<pdfrwt beam="2">  1       -1 0.30709013E-01 0.15220488E+04</pdfrwt>
<totfact> 0.66983620E+00</totfact>
</mgrwt>
</event>
<event>
12    1  0.1536832E-007  0.1785448E+04  0.7818608E-02  0.8714077E-01
         -1   -1    0    0    0  501 -0.00000000000E+00  0.00000000000E+00  0.89761949421E+03  0.89761949421E+03  0.00000000000E+00 0.  1.
          1   -1    0    0  501    0  0.00000000000E+00 -0.00000000000E+00 -0.88785499870E+03  0.88785499870E+03  0.00000000000E+00 0. -1.
         23    2    1    2    0    0  0.16655886381E+03 -0.11825289469E+03 -0.62838879130E+03  0.66655919424E+03  0.87767215894E+02 0.  0.
        254    2    1    2    0    0 -0.16655886381E+03  0.11825289469E+03  0.63815328680E+03  0.11189152987E+04  0.89610614657E+03 0.  0.
        -24    2    4    4    0    0 -0.22658197068E+03 -0.17481798815E+03  0.73642306748E+03  0.79409650286E+03  0.79809793416E+02 0.  0.
         24    2    4    4    0    0  0.60023106878E+02  0.29307088284E+03 -0.98269780678E+02  0.32481879580E+03  0.79730700370E+02 0.  0.
         13    1    3    3    0    0  0.38589410026E+01  0.66053970890E+01 -0.91717295766E+02  0.92035781297E+02  0.00000000000E+00 0.  1.
        -13    1    3    3    0    0  0.16269992280E+03 -0.12485829178E+03 -0.53667149553E+03  0.57452341295E+03  0.00000000000E+00 0. -1.
          2    1    6    6  502    0  0.63264403884E+02  0.29725316551E+03 -0.98631286403E+02  0.31951519504E+03  0.00000000000E+00 0. -1.
          1    1    5    5  503    0 -0.14249292663E+03 -0.10678374206E+03  0.55511791300E+03  0.58297761453E+03  0.00000000000E+00 0. -1.
         -2    1    5    5    0  503 -0.84089044051E+02 -0.68034246095E+02  0.18130515447E+03  0.21111888833E+03  0.00000000000E+00 0.  1.
         -1    1    6    6    0  502 -0.32412970060E+01 -0.41822826696E+01  0.36150572451E+00  0.53036007578E+01  0.00000000000E+00 0.  1.
<mgrwt>
<rscale>  0 0.17854478E+04</rscale>
<asrwt>0</asrwt>
<pdfrwt beam="1">  1        1 0.13659308E+00 0.17854478E+04</pdfrwt>
<pdfrwt beam="2">  1       -1 0.13809531E+00 0.17854478E+04</pdfrwt>
<totfact> 0.76437371E+00</totfact>
</mgrwt>
</event>
<event>
12    1  0.1536832E-007  0.1313491E+04  0.7818608E-02  0.9018934E-01
         -1   -1    0    0    0  501 -0.00000000000E+00  0.00000000000E+00  0.22131701022E+03  0.22131701022E+03  0.00000000000E+00 0.  1.
          1   -1    0    0  501    0  0.00000000000E+00 -0.00000000000E+00 -0.19488555752E+04  0.19488555752E+04  0.00000000000E+00 0. -1.
         23    2    1    2    0    0  0.86005817884E+01  0.30763713994E+03 -0.25168214197E+03  0.40797538252E+03  0.91572005966E+02 0.  0.
        254    2    1    2    0    0 -0.86005817884E+01 -0.30763713994E+03 -0.14758564230E+04  0.17621972029E+04  0.91239915642E+03 0.  0.
        -24    2    4    4    0    0 -0.17350497654E+03  0.27538444791E+03 -0.68566045944E+03  0.76321834783E+03  0.80196070895E+02 0.  0.
         24    2    4    4    0    0  0.16490439475E+03 -0.58302158786E+03 -0.79019596355E+03  0.99897885504E+03  0.80258710973E+02 0.  0.
         11    1    3    3    0    0 -0.51006630382E+01  0.13994181370E+03 -0.58415098052E+02  0.15173019365E+03  0.00000000000E+00 0. -1.
        -11    1    3    3    0    0  0.13701244827E+02  0.16769532624E+03 -0.19326704391E+03  0.25624518886E+03  0.00000000000E+00 0.  1.
          2    1    6    6  502    0  0.12452101399E+03 -0.51598340755E+03 -0.71461304207E+03  0.89017760008E+03  0.00000000000E+00 0. -1.
          3    1    5    5  503    0 -0.14659544157E+03  0.18157106755E+03 -0.42446785989E+03  0.48438748966E+03  0.00000000000E+00 0. -1.
         -4    1    5    5    0  503 -0.26909534974E+02  0.93813380363E+02 -0.26119259955E+03  0.27883085817E+03  0.00000000000E+00 0.  1.
         -1    1    6    6    0  502  0.40383380760E+02 -0.67038180313E+02 -0.75582921482E+02  0.10880125496E+03  0.00000000000E+00 0.  1.
<mgrwt>
<rscale>  0 0.13134914E+04</rscale>
<asrwt>0</asrwt>
<pdfrwt beam="1">  1        1 0.29982395E+00 0.13134914E+04</pdfrwt>
<pdfrwt beam="2">  1       -1 0.34048769E-01 0.13134914E+04</pdfrwt>
<totfact> 0.25856302E+01</totfact>
</mgrwt>
</event>
<event>
12    1  0.1536832E-007  0.1692253E+04  0.7818608E-02  0.8765795E-01
         -1   -1    0    0    0  501 -0.00000000000E+00  0.00000000000E+00  0.62249159783E+03  0.62249159783E+03  0.00000000000E+00 0.  1.
          1   -1    0    0  501    0  0.00000000000E+00 -0.00000000000E+00 -0.11501043356E+04  0.11501043356E+04  0.00000000000E+00 0. -1.
         23    2    1    2    0    0 -0.51122034072E+03 -0.22944869059E+03 -0.45370153318E+03  0.72795100115E+03  0.10037250862E+03 0.  0.
        254    2    1    2    0    0  0.51122034072E+03  0.22944869059E+03 -0.73911204607E+02  0.10446449323E+04  0.87853698273E+03 0.  0.
        -24    2    4    4    0    0  0.56234515917E+03  0.38165902980E+03 -0.30653661307E+03  0.74984603048E+03  0.80054239101E+02 0.  0.
         24    2    4    4    0    0 -0.51124818455E+02 -0.15221033921E+03  0.23262540846E+03  0.29479890182E+03  0.83726205117E+02 0.  0.
         13    1    3    3    0    0 -0.24856893892E+03 -0.16349383962E+03 -0.21652778254E+03  0.36796879433E+03  0.00000000000E+00 0.  1.
        -13    1    3    3    0    0 -0.26265140180E+03 -0.65954850969E+02 -0.23717375064E+03  0.35998220682E+03  0.00000000000E+00 0. -1.
          4    1    6    6  502    0 -0.16721168130E+02  0.30399333795E+01  0.61521553746E+01  0.18074503432E+02  0.00000000000E+00 0. -1.
          1    1    5    5  503    0  0.74338162400E+02  0.55700186334E+02 -0.13402879633E+02  0.93852598947E+02  0.00000000000E+00 0. -1.
         -2    1    5    5    0  503  0.48800699677E+03  0.32595884347E+03 -0.29313373344E+03  0.65599343153E+03  0.00000000000E+00 0.  1.
         -3    1    6    6    0  502 -0.34403650325E+02 -0.15525027259E+03  0.22647325309E+03  0.27672439838E+03  0.00000000000E+00 0.  1.
<mgrwt>
<rscale>  0 0.16922533E+04</rscale>
<asrwt>0</asrwt>
<pdfrwt beam="1">  1        1 0.17693913E+00 0.16922533E+04</pdfrwt>
<pdfrwt beam="2">  1       -1 0.95767940E-01 0.16922533E+04</pdfrwt>
<totfact> 0.11646818E+01</totfact>
</mgrwt>
</event>
<event>
12    1  0.1536832E-007  0.1961310E+04  0.7818608E-02  0.8624926E-01
         -2   -1    0    0    0  501 -0.00000000000E+00  0.00000000000E+00  0.99417116499E+03  0.99417116499E+03  0.00000000000E+00 0.  1.
          2   -1    0    0  501    0  0.00000000000E+00 -0.00000000000E+00 -0.96732243086E+03  0.96732243086E+03  0.00000000000E+00 0. -1.
         23    2    1    2    0    0  0.27762261405E+03 -0.10074822112E+03 -0.70318887135E+03  0.76806921924E+03  0.90726053916E+02 0.  0.
        254    2    1    2    0    0 -0.27762261405E+03  0.10074822112E+03  0.73003760548E+03  0.11934243766E+04  0.89670637189E+03 0.  0.
        -24    2    4    4    0    0 -0.38607236157E+03 -0.19207422380E+03  0.75241140401E+03  0.87049516610E+03  0.75462159413E+02 0.  0.
         24    2    4    4    0    0  0.10844974751E+03  0.29282244491E+03 -0.22373798532E+02  0.32292921052E+03  0.79223457152E+02 0.  0.
         11    1    3    3    0    0  0.14296926061E+03 -0.50653035752E+02 -0.24760758560E+03  0.29037123817E+03  0.00000000000E+00 0.  1.
        -11    1    3    3    0    0  0.13465335344E+03 -0.50095185363E+02 -0.45558128575E+03  0.47769798107E+03  0.00000000000E+00 0. -1.
          2    1    6    6  502    0  0.18128260545E+02  0.15744338423E+03 -0.23272303535E+02  0.16018318632E+03  0.00000000000E+00 0. -1.
          3    1    5    5  503    0 -0.68404304786E+02 -0.68576963061E+02  0.17332037652E+03  0.19854949432E+03  0.00000000000E+00 0. -1.
         -4    1    5    5    0  503 -0.31766805678E+03 -0.12349726074E+03  0.57909102749E+03  0.67194567178E+03  0.00000000000E+00 0.  1.
         -1    1    6    6    0  502  0.90321486970E+02  0.13537906068E+03  0.89850500326E+00  0.16274602419E+03  0.00000000000E+00 0.  1.
<mgrwt>
<rscale>  0 0.19613098E+04</rscale>
<asrwt>0</asrwt>
<pdfrwt beam="1">  1        2 0.14881884E+00 0.19613098E+04</pdfrwt>
<pdfrwt beam="2">  1       -2 0.15294941E+00 0.19613098E+04</pdfrwt>
<totfact> 0.70110430E+00</totfact>
</mgrwt>
</event>
<event>
12    1  0.1536832E-007  0.1469711E+04  0.7818608E-02  0.8904848E-01
         -2   -1    0    0    0  501 -0.00000000000E+00  0.00000000000E+00  0.52395713910E+03  0.52395713910E+03  0.00000000000E+00 0.  1.
          2   -1    0    0  501    0  0.00000000000E+00 -0.00000000000E+00 -0.10306433859E+04  0.10306433859E+04  0.00000000000E+00 0. -1.
         23    2    1    2    0    0  0.47945715040E+03  0.16016207595E+02 -0.13655683078E+03  0.50747615904E+03  0.93533983005E+02 0.  0.
        254    2    1    2    0    0 -0.47945715040E+03 -0.16016207595E+02 -0.37012941596E+03  0.10471243659E+04  0.85401286592E+03 0.  0.
        -24    2    4    4    0    0  0.16063490818E+03 -0.23541730136E+03 -0.79526286228E+02  0.30652488400E+03  0.80051201141E+02 0.  0.
         24    2    4    4    0    0 -0.64009205858E+03  0.21940109376E+03 -0.29060312973E+03  0.74059948192E+03  0.78630339008E+02 0.  0.
         11    1    3    3    0    0  0.48382670898E+03  0.16578613286E+02 -0.13678736919E+03  0.50306452778E+03  0.00000000000E+00 0.  1.
        -11    1    3    3    0    0 -0.43695585798E+01 -0.56240569049E+00  0.23053840766E+00  0.44116312516E+01  0.00000000000E+00 0. -1.
          4    1    6    6  502    0 -0.53176465793E+03  0.20211435436E+03 -0.21887670296E+03  0.60953332539E+03  0.00000000000E+00 0. -1.
          1    1    5    5  503    0  0.12117534809E+03 -0.17658721406E+03 -0.94556363345E+02  0.23410983534E+03  0.00000000000E+00 0. -1.
         -2    1    5    5    0  503  0.39459560083E+02 -0.58830087298E+02  0.15030077116E+02  0.72415048654E+02  0.00000000000E+00 0.  1.
         -3    1    6    6    0  502 -0.10832740065E+03  0.17286739402E+02 -0.71726426773E+02  0.13106615653E+03  0.00000000000E+00 0.  1.
<mgrwt>
<rscale>  0 0.14697115E+04</rscale>
<asrwt>0</asrwt>
<pdfrwt beam="1">  1        2 0.15856052E+00 0.14697115E+04</pdfrwt>
<pdfrwt beam="2">  1       -2 0.80608791E-01 0.14697115E+04</pdfrwt>
<totfact> 0.31691302E+01</totfact>
</mgrwt>
</event>
<event>
12    1  0.1536832E-007  0.4117150E+04  0.7818608E-02  0.7981322E-01
         -1   -1    0    0    0  501 -0.00000000000E+00  0.00000000000E+00  0.19972746428E+04  0.19972746428E+04  0.00000000000E+00 0.  1.
          1   -1    0    0  501    0  0.00000000000E+00 -0.00000000000E+00 -0.21217572740E+04  0.21217572740E+04  0.00000000000E+00 0. -1.
         23    2    1    2    0    0 -0.13182099050E+04 -0.10112882382E+04 -0.11060260247E+04  0.19980597881E+04  0.92564005945E+02 0.  0.
        254    2    1    2    0    0  0.13182099050E+04  0.10112882382E+04  0.98154339349E+03  0.21209721287E+04  0.88017843839E+03 0.  0.
        -24    2    4    4    0    0  0.26656910891E+02 -0.92724222314E+02 -0.46453825319E+02  0.13337841702E+03  0.79520261181E+02 0.  0.
         24    2    4    4    0    0  0.12915529941E+04  0.11040124605E+04  0.10279972188E+04  0.19875937117E+04  0.82448963655E+02 0.  0.
         11    1    3    3    0    0 -0.10122950757E+04 -0.74899201607E+03 -0.87700673712E+03  0.15345589521E+04  0.00000000000E+00 0. -1.
        -11    1    3    3    0    0 -0.30591482928E+03 -0.26229622210E+03 -0.22901928756E+03  0.46350083600E+03  0.00000000000E+00 0.  1.
          2    1    6    6  502    0  0.68964447396E+03  0.61113890885E+03  0.51333649553E+03  0.10548054911E+04  0.00000000000E+00 0. -1.
          3    1    5    5  503    0 -0.17859689935E+02 -0.68709577293E+02 -0.11556630821E+02  0.71927256671E+02  0.00000000000E+00 0. -1.
         -4    1    5    5    0  503  0.44516600826E+02 -0.24014645021E+02 -0.34897194497E+02  0.61451160350E+02  0.00000000000E+00 0.  1.
         -1    1    6    6    0  502  0.60190852010E+03  0.49287355163E+03  0.51466072327E+03  0.93278822063E+03  0.00000000000E+00 0.  1.
<mgrwt>
<rscale>  0 0.41171505E+04</rscale>
<asrwt>0</asrwt>
<pdfrwt beam="1">  1        1 0.32642420E+00 0.41171505E+04</pdfrwt>
<pdfrwt beam="2">  1       -1 0.30727302E+00 0.41171505E+04</pdfrwt>
<totfact> 0.56558280E-02</totfact>
</mgrwt>
</event>
<event>
12    1  0.1536832E-007  0.1431389E+04  0.7818608E-02  0.8931406E-01
          1   -1    0    0  501    0  0.00000000000E+00  0.00000000000E+00  0.35075550021E+04  0.35075550021E+04  0.00000000000E+00 0. -1.
         -1   -1    0    0    0  501 -0.00000000000E+00 -0.00000000000E+00 -0.14603288695E+03  0.14603288695E+03  0.00000000000E+00 0.  1.
         23    2    1    2    0    0 -0.10709414835E+03  0.14818011212E+03  0.42321483839E+02  0.20882567080E+03  0.91599948423E+02 0.  0.
        254    2    1    2    0    0  0.10709414835E+03 -0.14818011212E+03  0.33192006313E+04  0.34447622182E+04  0.90325378891E+03 0.  0.
        -24    2    4    4    0    0 -0.14073809690E+03 -0.20664357119E+03  0.30652584135E+04  0.30765179228E+04  0.81514480701E+02 0.  0.
         24    2    4    4    0    0  0.24783224525E+03  0.58463459066E+02  0.25394221781E+03  0.36824429542E+03  0.79236439169E+02 0.  0.
         13    1    3    3    0    0 -0.58405096220E+02  0.12741364066E+02  0.41360356255E+01  0.59921652292E+02  0.00000000000E+00 0. -1.
        -13    1    3    3    0    0 -0.48689052129E+02  0.13543874805E+03  0.38185448213E+02  0.14890401851E+03  0.00000000000E+00 0.  1.
          4    1    6    6  502    0  0.11639933984E+03  0.82243142596E-01  0.15431032915E+03  0.19328862036E+03  0.00000000000E+00 0. -1.
          1    1    5    5  503    0 -0.57512845969E+02 -0.92155146572E+02  0.87981006116E+03  0.88649085850E+03  0.00000000000E+00 0. -1.
         -2    1    5    5    0  503 -0.83225250931E+02 -0.11448842461E+03  0.21854483523E+04  0.21900270643E+04  0.00000000000E+00 0.  1.
         -3    1    6    6    0  502  0.13143290541E+03  0.58381215923E+02  0.99631888657E+02  0.17495567506E+03  0.00000000000E+00 0.  1.
<mgrwt>
<rscale>  0 0.14313887E+04</rscale>
<asrwt>0</asrwt>
<pdfrwt beam="1">  1        1 0.53962378E+00 0.14313887E+04</pdfrwt>
<pdfrwt beam="2">  1       -1 0.22466601E-01 0.14313887E+04</pdfrwt>
<totfact> 0.40858508E+00</totfact>
</mgrwt>
</event>
<event>
12    1  0.1536832E-007  0.2090808E+04  0.7818608E-02  0.8565304E-01
         -3   -1    0    0    0  501 -0.00000000000E+00  0.00000000000E+00  0.51333431637E+03  0.51333431637E+03  0.00000000000E+00 0.  1.
          3   -1    0    0  501    0  0.00000000000E+00 -0.00000000000E+00 -0.21289618811E+04  0.21289618811E+04  0.00000000000E+00 0. -1.
         23    2    1    2    0    0  0.76274985748E+03  0.80207310565E+02 -0.10895991936E+04  0.13354451195E+04  0.89256410252E+02 0.  0.
        254    2    1    2    0    0 -0.76274985748E+03 -0.80207310565E+02 -0.52602837115E+03  0.13068510780E+04  0.91811400983E+03 0.  0.
        -24    2    4    4    0    0 -0.44247373877E+03  0.39309243697E+03 -0.14369300368E+03  0.61433705596E+03  0.80359601256E+02 0.  0.
         24    2    4    4    0    0 -0.32027611871E+03 -0.47329974754E+03 -0.38233536747E+03  0.69251402203E+03  0.82497843953E+02 0.  0.
         13    1    3    3    0    0  0.72767764962E+03  0.84111561120E+02 -0.10643052071E+04  0.12920275115E+04  0.00000000000E+00 0. -1.
        -13    1    3    3    0    0  0.35072207853E+02 -0.39042505554E+01 -0.25293986479E+02  0.43417608042E+02  0.00000000000E+00 0.  1.
          4    1    6    6  502    0 -0.18987545999E+03 -0.26204612267E+03 -0.26331191705E+03  0.41719782642E+03  0.00000000000E+00 0. -1.
          3    1    5    5  503    0 -0.15006048391E+03  0.87782648292E+02 -0.28493703505E+02  0.17616989900E+03  0.00000000000E+00 0. -1.
         -4    1    5    5    0  503 -0.29241325486E+03  0.30530978868E+03 -0.11519930018E+03  0.43816715696E+03  0.00000000000E+00 0.  1.
         -1    1    6    6    0  502 -0.13040065872E+03 -0.21125362487E+03 -0.11902345043E+03  0.27531619561E+03  0.00000000000E+00 0.  1.
<mgrwt>
<rscale>  0 0.20908077E+04</rscale>
<asrwt>0</asrwt>
<pdfrwt beam="1">  1        3 0.32753259E+00 0.20908077E+04</pdfrwt>
<pdfrwt beam="2">  1       -3 0.78974511E-01 0.20908077E+04</pdfrwt>
<totfact> 0.98625980E-02</totfact>
</mgrwt>
</event>
<event>
12    1  0.1536832E-007  0.1627671E+04  0.7818608E-02  0.8803727E-01
          2   -1    0    0  501    0  0.00000000000E+00  0.00000000000E+00  0.13830245974E+04  0.13830245974E+04  0.00000000000E+00 0. -1.
         -2   -1    0    0    0  501 -0.00000000000E+00 -0.00000000000E+00 -0.47889840067E+03  0.47889840067E+03  0.00000000000E+00 0.  1.
         23    2    1    2    0    0  0.33728361911E+03 -0.16216668996E+03  0.79733429043E+03  0.88513990672E+03  0.87592286974E+02 0.  0.
        254    2    1    2    0    0 -0.33728361911E+03  0.16216668996E+03  0.10679190633E+03  0.97678309138E+03  0.89590313165E+03 0.  0.
        -24    2    4    4    0    0 -0.13558334160E+03 -0.36207822315E+03 -0.19083982969E+02  0.39562532188E+03  0.81680565045E+02 0.  0.
         24    2    4    4    0    0 -0.20170027751E+03  0.52424491310E+03  0.12587588930E+03  0.58115776950E+03  0.79899203289E+02 0.  0.
         11    1    3    3    0    0  0.23531619713E+03 -0.67120897129E+02  0.49215339875E+03  0.54963068998E+03  0.00000000000E+00 0. -1.
        -11    1    3    3    0    0  0.10196742198E+03 -0.95045792827E+02  0.30518089168E+03  0.33550921675E+03  0.00000000000E+00 0.  1.
          4    1    6    6  502    0 -0.10359009441E+03  0.36917352273E+03  0.74529429451E+02  0.39060803038E+03  0.00000000000E+00 0. -1.
          1    1    5    5  503    0 -0.88832512888E+02 -0.29241373762E+03  0.12791020569E+02  0.30587680445E+03  0.00000000000E+00 0. -1.
         -2    1    5    5    0  503 -0.46750828712E+02 -0.69664485527E+02 -0.31875003538E+02  0.89748517422E+02  0.00000000000E+00 0.  1.
         -3    1    6    6    0  502 -0.98110183104E+02  0.15507139037E+03  0.51346459848E+02  0.19054973912E+03  0.00000000000E+00 0.  1.
<mgrwt>
<rscale>  0 0.16276711E+04</rscale>
<asrwt>0</asrwt>
<pdfrwt beam="1">  1        2 0.21277301E+00 0.16276711E+04</pdfrwt>
<pdfrwt beam="2">  1       -2 0.73676678E-01 0.16276711E+04</pdfrwt>
<totfact> 0.23522111E+01</totfact>
</mgrwt>
</event>
<event>
12    1  0.1536832E-007  0.1564251E+04  0.7818608E-02  0.8842816E-01
          1   -1    0    0  501    0  0.00000000000E+00  0.00000000000E+00  0.52710291721E+03  0.52710291721E+03  0.00000000000E+00 0. -1.
         -1   -1    0    0    0  501 -0.00000000000E+00 -0.00000000000E+00 -0.11605329021E+04  0.11605329021E+04  0.00000000000E+00 0.  1.
         23    2    1    2    0    0  0.36175779945E+03 -0.13815751315E+03  0.14590656967E+03  0.42452076260E+03  0.94725640156E+02 0.  0.
        254    2    1    2    0    0 -0.36175779945E+03  0.13815751315E+03 -0.77933655456E+03  0.12631150567E+04  0.91549875876E+03 0.  0.
        -24    2    4    4    0    0 -0.31123793936E+02  0.49428425503E+03 -0.39779016178E+03  0.64020317948E+03  0.79608309123E+02 0.  0.
         24    2    4    4    0    0 -0.33063400551E+03 -0.35612674188E+03 -0.38154639278E+03  0.62291187723E+03  0.79350205197E+02 0.  0.
         11    1    3    3    0    0  0.22171820765E+03 -0.62825685091E+02  0.13031788307E+03  0.26474285819E+03  0.00000000000E+00 0.  1.
        -11    1    3    3    0    0  0.14003959179E+03 -0.75331828059E+02  0.15588686601E+02  0.15977790441E+03  0.00000000000E+00 0. -1.
          4    1    6    6  502    0 -0.21098704422E+03 -0.17620722055E+03 -0.19000358584E+03  0.33416445058E+03  0.00000000000E+00 0. -1.
          1    1    5    5  503    0 -0.17149568354E+02  0.29948255037E+03 -0.28950751471E+03  0.41689148078E+03  0.00000000000E+00 0. -1.
         -2    1    5    5    0  503 -0.13974225582E+02  0.19480170466E+03 -0.10828264707E+03  0.22331169870E+03  0.00000000000E+00 0.  1.
         -3    1    6    6    0  502 -0.11964696129E+03 -0.17991952133E+03 -0.19154280694E+03  0.28874742665E+03  0.00000000000E+00 0.  1.
<mgrwt>
<rscale>  0 0.15642510E+04</rscale>
<asrwt>0</asrwt>
<pdfrwt beam="1">  1        1 0.81092757E-01 0.15642510E+04</pdfrwt>
<pdfrwt beam="2">  1       -1 0.17854352E+00 0.15642510E+04</pdfrwt>
<totfact> 0.84483427E+00</totfact>
</mgrwt>
</event>
<event>
12    1  0.1536832E-007  0.1138701E+04  0.7818608E-02  0.9168271E-01
          1   -1    0    0  501    0  0.00000000000E+00  0.00000000000E+00  0.94217782904E+03  0.94217782904E+03  0.00000000000E+00 0. -1.
         -1   -1    0    0    0  501 -0.00000000000E+00 -0.00000000000E+00 -0.34405370423E+03  0.34405370423E+03  0.00000000000E+00 0.  1.
         23    2    1    2    0    0 -0.17797344288E+03 -0.61997636358E+02  0.15567383906E+03  0.26164589197E+03  0.93305816161E+02 0.  0.
        254    2    1    2    0    0  0.17797344288E+03  0.61997636358E+02  0.44245028575E+03  0.10245856413E+04  0.90470726079E+03 0.  0.
        -24    2    4    4    0    0 -0.19794478540E+03  0.36625048144E+03  0.28074760992E+03  0.50831519560E+03  0.79016228583E+02 0.  0.
         24    2    4    4    0    0  0.37591822828E+03 -0.30425284508E+03  0.16170267583E+03  0.51627044571E+03  0.80641860397E+02 0.  0.
         11    1    3    3    0    0  0.94487069580E+01  0.14477726042E+01 -0.49578365300E+00  0.95718289852E+01  0.00000000000E+00 0.  1.
        -11    1    3    3    0    0 -0.18742214984E+03 -0.63445408962E+02  0.15616962272E+03  0.25207406298E+03  0.00000000000E+00 0. -1.
          2    1    6    6  502    0  0.24664519841E+03 -0.15044849043E+03  0.10643751985E+03  0.30789210416E+03  0.00000000000E+00 0. -1.
          1    1    5    5  503    0 -0.13028940729E+03  0.30702416358E+03  0.21307072304E+03  0.39577556732E+03  0.00000000000E+00 0. -1.
         -2    1    5    5    0  503 -0.67655378113E+02  0.59226317860E+02  0.67676886877E+02  0.11253962827E+03  0.00000000000E+00 0.  1.
         -1    1    6    6    0  502  0.12927302987E+03 -0.15380435465E+03  0.55265155982E+02  0.20837834155E+03  0.00000000000E+00 0.  1.
<mgrwt>
<rscale>  0 0.11387006E+04</rscale>
<asrwt>0</asrwt>
<pdfrwt beam="1">  1        1 0.14495043E+00 0.11387006E+04</pdfrwt>
<pdfrwt beam="2">  1       -1 0.52931339E-01 0.11387006E+04</pdfrwt>
<totfact> 0.60132218E+01</totfact>
</mgrwt>
</event>
<event>
12    1  0.1536832E-007  0.1617950E+04  0.7818608E-02  0.8809596E-01
          2   -1    0    0  501    0  0.00000000000E+00  0.00000000000E+00  0.30045276327E+04  0.30045276327E+04  0.00000000000E+00 0. -1.
         -2   -1    0    0    0  501 -0.00000000000E+00 -0.00000000000E+00 -0.21781808954E+03  0.21781808954E+03  0.00000000000E+00 0.  1.
         23    2    1    2    0    0 -0.30371649762E+03  0.42162014060E+03  0.58813858763E+03  0.79005496536E+03  0.90953813243E+02 0.  0.
        254    2    1    2    0    0  0.30371649762E+03 -0.42162014060E+03  0.21985709555E+04  0.24322907569E+04  0.90128620629E+03 0.  0.
        -24    2    4    4    0    0  0.30981633037E+03 -0.67355178899E+03  0.13342443049E+04  0.15281897659E+04  0.74147988504E+02 0.  0.
         24    2    4    4    0    0 -0.60998327503E+01  0.25193164839E+03  0.86432665058E+03  0.90410099102E+03  0.82651555518E+02 0.  0.
         11    1    3    3    0    0 -0.24238452037E+03  0.30507668981E+03  0.48877748806E+03  0.62508037500E+03  0.00000000000E+00 0.  1.
        -11    1    3    3    0    0 -0.61331977251E+02  0.11654345079E+03  0.99361099574E+02  0.16497459036E+03  0.00000000000E+00 0. -1.
          4    1    6    6  502    0  0.22635593569E+02  0.57907478458E+02  0.30794754448E+03  0.31416132211E+03  0.00000000000E+00 0. -1.
          1    1    5    5  503    0  0.33825343082E+02 -0.60759312355E+02  0.86807636535E+02  0.11122685662E+03  0.00000000000E+00 0. -1.
         -2    1    5    5    0  503  0.27599098729E+03 -0.61279247664E+03  0.12474366684E+04  0.14169629092E+04  0.00000000000E+00 0.  1.
         -3    1    6    6    0  502 -0.28735426319E+02  0.19402416994E+03  0.55637910610E+03  0.58993966891E+03  0.00000000000E+00 0.  1.
<mgrwt>
<rscale>  0 0.16179499E+04</rscale>
<asrwt>0</asrwt>
<pdfrwt beam="1">  1        2 0.46223499E+00 0.16179499E+04</pdfrwt>
<pdfrwt beam="2">  1       -2 0.33510478E-01 0.16179499E+04</pdfrwt>
<totfact> 0.13868609E+01</totfact>
</mgrwt>
</event>
<event>
12    1  0.1536832E-007  0.1698668E+04  0.7818608E-02  0.8762125E-01
         -2   -1    0    0    0  501 -0.00000000000E+00  0.00000000000E+00  0.24618292218E+03  0.24618292218E+03  0.00000000000E+00 0.  1.
          2   -1    0    0  501    0  0.00000000000E+00 -0.00000000000E+00 -0.29302108628E+04  0.29302108628E+04  0.00000000000E+00 0. -1.
         23    2    1    2    0    0  0.34848032563E+03  0.41344986642E+03 -0.14591144628E+04  0.15589630556E+04  0.94717810792E+02 0.  0.
        254    2    1    2    0    0 -0.34848032563E+03 -0.41344986642E+03 -0.12249134778E+04  0.16174307294E+04  0.90735318751E+03 0.  0.
        -24    2    4    4    0    0  0.30145183406E+03 -0.83485083025E+02 -0.36434415461E+03  0.48674953683E+03  0.79595736459E+02 0.  0.
         24    2    4    4    0    0 -0.64993215969E+03 -0.32996478340E+03 -0.86056932320E+03  0.11306811926E+04  0.81066816367E+02 0.  0.
         11    1    3    3    0    0  0.31585336769E+03  0.38416362103E+03 -0.13973731618E+04  0.14832386157E+04  0.00000000000E+00 0. -1.
        -11    1    3    3    0    0  0.32626957944E+02  0.29286245389E+02 -0.61741301008E+02  0.75724439938E+02  0.00000000000E+00 0.  1.
          2    1    6    6  502    0 -0.40070895797E+03 -0.19599363771E+03 -0.46536048859E+03  0.64462513088E+03  0.00000000000E+00 0. -1.
          3    1    5    5  503    0  0.10493630454E+03 -0.39985203420E+02 -0.18883656554E+03  0.21970364810E+03  0.00000000000E+00 0. -1.
         -4    1    5    5    0  503  0.19651552952E+03 -0.43499879605E+02 -0.17550758907E+03  0.26704588873E+03  0.00000000000E+00 0.  1.
         -1    1    6    6    0  502 -0.24922320172E+03 -0.13397114569E+03 -0.39520883461E+03  0.48605606169E+03  0.00000000000E+00 0.  1.
<mgrwt>
<rscale>  0 0.16986676E+04</rscale>
<asrwt>0</asrwt>
<pdfrwt beam="1">  1        2 0.45080171E+00 0.16986676E+04</pdfrwt>
<pdfrwt beam="2">  1       -2 0.37874293E-01 0.16986676E+04</pdfrwt>
<totfact> 0.12101811E+01</totfact>
</mgrwt>
</event>
<event>
12    1  0.1536832E-007  0.1397373E+04  0.7818608E-02  0.8955722E-01
         -2   -1    0    0    0  501 -0.00000000000E+00  0.00000000000E+00  0.27660537366E+03  0.27660537366E+03  0.00000000000E+00 0.  1.
          2   -1    0    0  501    0  0.00000000000E+00 -0.00000000000E+00 -0.17648344540E+04  0.17648344540E+04  0.00000000000E+00 0. -1.
         23    2    1    2    0    0  0.25031569711E+03  0.31643491250E+03 -0.53732599781E+03  0.67780651989E+03  0.88957565269E+02 0.  0.
        254    2    1    2    0    0 -0.25031569711E+03 -0.31643491250E+03 -0.95090308249E+03  0.13636333077E+04  0.89021914358E+03 0.  0.
        -24    2    4    4    0    0 -0.51086848370E+03 -0.11162335417E+02 -0.30938697461E+03  0.60274518136E+03  0.80437853194E+02 0.  0.
         24    2    4    4    0    0  0.26055278658E+03 -0.30527257708E+03 -0.64151610788E+03  0.76088812637E+03  0.79553273160E+02 0.  0.
         11    1    3    3    0    0  0.25557263215E+03  0.30141133259E+03 -0.50062076109E+03  0.63779879912E+03  0.00000000000E+00 0. -1.
        -11    1    3    3    0    0 -0.52569350356E+01  0.15023579901E+02 -0.36705236720E+02  0.40007720776E+02  0.00000000000E+00 0.  1.
          2    1    6    6  502    0  0.68742093059E+02 -0.45163159653E+02 -0.17496273309E+03  0.19333169507E+03  0.00000000000E+00 0. -1.
          3    1    5    5  503    0 -0.25486290364E+03  0.32750694631E+02 -0.16812457133E+03  0.30707259587E+03  0.00000000000E+00 0. -1.
         -4    1    5    5    0  503 -0.25600558006E+03 -0.43913030047E+02 -0.14126240328E+03  0.29567258549E+03  0.00000000000E+00 0.  1.
         -1    1    6    6    0  502  0.19181069352E+03 -0.26010941743E+03 -0.46655337478E+03  0.56755643129E+03  0.00000000000E+00 0.  1.
<mgrwt>
<rscale>  0 0.13973728E+04</rscale>
<asrwt>0</asrwt>
<pdfrwt beam="1">  1        2 0.27151299E+00 0.13973728E+04</pdfrwt>
<pdfrwt beam="2">  1       -2 0.42554673E-01 0.13973728E+04</pdfrwt>
<totfact> 0.45993026E+01</totfact>
</mgrwt>
</event>
<event>
12    1  0.1536832E-007  0.1271447E+04  0.7818608E-02  0.9052519E-01
          1   -1    0    0  501    0  0.00000000000E+00  0.00000000000E+00  0.52398556228E+03  0.52398556228E+03  0.00000000000E+00 0. -1.
         -1   -1    0    0    0  501 -0.00000000000E+00 -0.00000000000E+00 -0.77128959369E+03  0.77128959369E+03  0.00000000000E+00 0.  1.
         23    2    1    2    0    0 -0.30420143167E+03 -0.19884129308E+02 -0.83034965384E+02  0.32826023195E+03  0.89028561541E+02 0.  0.
        254    2    1    2    0    0  0.30420143167E+03  0.19884129308E+02 -0.16426906602E+03  0.96701492402E+03  0.90288407207E+03 0.  0.
        -24    2    4    4    0    0  0.43705209225E+03  0.34993935724E+03  0.84786092915E+00  0.56543989143E+03  0.79053569614E+02 0.  0.
         24    2    4    4    0    0 -0.13285066057E+03 -0.33005522794E+03 -0.16511692695E+03  0.40157503259E+03  0.86099684854E+02 0.  0.
         13    1    3    3    0    0 -0.13167452897E+03  0.17291950890E+02  0.95184456578E+00  0.13280850558E+03  0.00000000000E+00 0. -1.
        -13    1    3    3    0    0 -0.17252690270E+03 -0.37176080198E+02 -0.83986809950E+02  0.19545172637E+03  0.00000000000E+00 0.  1.
          4    1    6    6  502    0 -0.17847595853E+02 -0.17523113363E+01 -0.49087811987E+01  0.18593101022E+02  0.00000000000E+00 0. -1.
          1    1    5    5  503    0  0.64455922083E+01 -0.78893936253E+00 -0.76160188619E+01  0.10008587690E+02  0.00000000000E+00 0. -1.
         -2    1    5    5    0  503  0.43060650004E+03  0.35072829661E+03  0.84638797910E+01  0.55543130374E+03  0.00000000000E+00 0.  1.
         -3    1    6    6    0  502 -0.11500306472E+03 -0.32830291660E+03 -0.16020814575E+03  0.38298193157E+03  0.00000000000E+00 0.  1.
<mgrwt>
<rscale>  0 0.12714474E+04</rscale>
<asrwt>0</asrwt>
<pdfrwt beam="1">  1        1 0.80613163E-01 0.12714474E+04</pdfrwt>
<pdfrwt beam="2">  1       -1 0.11865994E+00 0.12714474E+04</pdfrwt>
<totfact> 0.26028601E+01</totfact>
</mgrwt>
</event>
<event>
12    1  0.1536832E-007  0.2171834E+04  0.7818608E-02  0.8530244E-01
         -2   -1    0    0    0  501 -0.00000000000E+00  0.00000000000E+00  0.17303363943E+04  0.17303363943E+04  0.00000000000E+00 0.  1.
          2   -1    0    0  501    0  0.00000000000E+00 -0.00000000000E+00 -0.68149510062E+03  0.68149510062E+03  0.00000000000E+00 0. -1.
         23    2    1    2    0    0  0.60762085077E+03 -0.61524475295E+03  0.16772417043E+03  0.88541604932E+03  0.90005437189E+02 0.  0.
        254    2    1    2    0    0 -0.60762085077E+03  0.61524475295E+03  0.88111712321E+03  0.15264154456E+04  0.89769010426E+03 0.  0.
        -24    2    4    4    0    0 -0.81136680376E+03  0.62473842122E+03  0.72862418474E+03  0.12593647919E+04  0.80574755901E+02 0.  0.
         24    2    4    4    0    0  0.20374595300E+03 -0.94936682709E+01  0.15249293846E+03  0.26705065365E+03  0.80370468668E+02 0.  0.
         13    1    3    3    0    0  0.21415965591E+03 -0.17522256313E+03  0.23061516631E+02  0.27766731605E+03  0.00000000000E+00 0. -1.
        -13    1    3    3    0    0  0.39346119485E+03 -0.44002218982E+03  0.14466265380E+03  0.60774873327E+03  0.00000000000E+00 0.  1.
          4    1    6    6  502    0  0.13941091477E+03 -0.43225357563E+02  0.11120726058E+03  0.18349629287E+03  0.00000000000E+00 0. -1.
          1    1    5    5  503    0 -0.62276631183E+03  0.49181626415E+03  0.60291287341E+03  0.99660676786E+03  0.00000000000E+00 0. -1.
         -4    1    5    5    0  503 -0.18860049194E+03  0.13292215707E+03  0.12571131134E+03  0.26275802404E+03  0.00000000000E+00 0.  1.
         -1    1    6    6    0  502  0.64335038230E+02  0.33731689292E+02  0.41285677882E+02  0.83554360776E+02  0.00000000000E+00 0.  1.
<mgrwt>
<rscale>  0 0.21718340E+04</rscale>
<asrwt>0</asrwt>
<pdfrwt beam="1">  1        2 0.10484540E+00 0.21718340E+04</pdfrwt>
<pdfrwt beam="2">  1       -2 0.26620560E+00 0.21718340E+04</pdfrwt>
<totfact> 0.19851835E+00</totfact>
</mgrwt>
</event>
<event>
12    1  0.1536832E-007  0.1709137E+04  0.7818608E-02  0.8756170E-01
          1   -1    0    0  501    0  0.00000000000E+00  0.00000000000E+00  0.10560064950E+04  0.10560064950E+04  0.00000000000E+00 0. -1.
         -1   -1    0    0    0  501 -0.00000000000E+00 -0.00000000000E+00 -0.69155610944E+03  0.69155610944E+03  0.00000000000E+00 0.  1.
         23    2    1    2    0    0 -0.17289887288E+03 -0.42376603572E+03 -0.28722244546E+03  0.54772262335E+03  0.89619560778E+02 0.  0.
        254    2    1    2    0    0  0.17289887288E+03  0.42376603572E+03  0.65167283097E+03  0.11998399810E+04  0.89747803772E+03 0.  0.
        -24    2    4    4    0    0  0.43831184062E+03  0.49478482797E+03  0.62325497315E+03  0.91237575668E+03  0.83984904605E+02 0.  0.
         24    2    4    4    0    0 -0.26541296774E+03 -0.71018792251E+02  0.28417857826E+02  0.28746422436E+03  0.79626586928E+02 0.  0.
         11    1    3    3    0    0 -0.17978409465E+03 -0.40023598466E+03 -0.25585370909E+03  0.50790972088E+03  0.00000000000E+00 0.  1.
        -11    1    3    3    0    0  0.68852217666E+01 -0.23530051064E+02 -0.31368736367E+02  0.39812902471E+02  0.00000000000E+00 0. -1.
          2    1    6    6  502    0 -0.57438145062E+02 -0.30318460141E+02  0.38143715971E+02  0.75321262613E+02  0.00000000000E+00 0. -1.
          1    1    5    5  503    0  0.89971978806E+02  0.66636321088E+02  0.13568170207E+03  0.17591157021E+03  0.00000000000E+00 0. -1.
         -2    1    5    5    0  503  0.34833986182E+03  0.42814850689E+03  0.48757327108E+03  0.73646418647E+03  0.00000000000E+00 0.  1.
         -1    1    6    6    0  502 -0.20797482268E+03 -0.40700332110E+02 -0.97258581456E+01  0.21214296175E+03  0.00000000000E+00 0.  1.
<mgrwt>
<rscale>  0 0.17091375E+04</rscale>
<asrwt>0</asrwt>
<pdfrwt beam="1">  1        1 0.16246254E+00 0.17091375E+04</pdfrwt>
<pdfrwt beam="2">  1       -1 0.10639325E+00 0.17091375E+04</pdfrwt>
<totfact> 0.10750895E+01</totfact>
</mgrwt>
</event>
<event>
12    1  0.1536832E-007  0.2066280E+04  0.7818608E-02  0.8576244E-01
         -2   -1    0    0    0  501 -0.00000000000E+00  0.00000000000E+00  0.44527623964E+03  0.44527623964E+03  0.00000000000E+00 0.  1.
          2   -1    0    0  501    0  0.00000000000E+00 -0.00000000000E+00 -0.23971152430E+04  0.23971152430E+04  0.00000000000E+00 0. -1.
         23    2    1    2    0    0 -0.70225825717E+03 -0.21547577874E+03 -0.26723197871E+03  0.78715838002E+03  0.92784232454E+02 0.  0.
        254    2    1    2    0    0  0.70225825717E+03  0.21547577874E+03 -0.16846070247E+04  0.20552331026E+04  0.92004663342E+03 0.  0.
        -24    2    4    4    0    0  0.47449962333E+03 -0.28865420192E+03 -0.52702118787E+03  0.76978116153E+03  0.79627654450E+02 0.  0.
         24    2    4    4    0    0  0.22775863384E+03  0.50412998066E+03 -0.11575858368E+04  0.12854519411E+04  0.79753938288E+02 0.  0.
         13    1    3    3    0    0 -0.56443347980E+03 -0.14415454610E+03 -0.18317628839E+03  0.61067113810E+03  0.00000000000E+00 0.  1.
        -13    1    3    3    0    0 -0.13782477737E+03 -0.71321232645E+02 -0.84055690321E+02  0.17648724191E+03  0.00000000000E+00 0. -1.
          4    1    6    6  502    0  0.24215821447E+02  0.74571373047E+02 -0.11016564758E+03  0.13521747518E+03  0.00000000000E+00 0. -1.
          1    1    5    5  503    0  0.16622785615E+03 -0.61154713721E+02 -0.18639161713E+03  0.25712532763E+03  0.00000000000E+00 0. -1.
         -2    1    5    5    0  503  0.30827176718E+03 -0.22749948820E+03 -0.34062957074E+03  0.51265583391E+03  0.00000000000E+00 0.  1.
         -3    1    6    6    0  502  0.20354281239E+03  0.42955860762E+03 -0.10474201892E+04  0.11502344659E+04  0.00000000000E+00 0.  1.
<mgrwt>
<rscale>  0 0.20662802E+04</rscale>
<asrwt>0</asrwt>
<pdfrwt beam="1">  1        2 0.36878696E+00 0.20662802E+04</pdfrwt>
<pdfrwt beam="2">  1       -2 0.68504037E-01 0.20662802E+04</pdfrwt>
<totfact> 0.71873521E+00</totfact>
</mgrwt>
</event>
<event>
12    1  0.1536832E-007  0.1214407E+04  0.7818608E-02  0.9100339E-01
         -1   -1    0    0    0  501 -0.00000000000E+00  0.00000000000E+00  0.31886927734E+03  0.31886927734E+03  0.00000000000E+00 0.  1.
          1   -1    0    0  501    0  0.00000000000E+00 -0.00000000000E+00 -0.11562600591E+04  0.11562600591E+04  0.00000000000E+00 0. -1.
         23    2    1    2    0    0 -0.10236458054E+03  0.13002153073E+03  0.65691072449E+02  0.18987400203E+03  0.65975100190E+02 0.  0.
        254    2    1    2    0    0  0.10236458054E+03 -0.13002153073E+03 -0.90308185416E+03  0.12852553344E+04  0.89941110366E+03 0.  0.
        -24    2    4    4    0    0  0.42170592028E+03 -0.29584600412E+03 -0.37762094736E+03  0.64360744211E+03  0.79197337758E+02 0.  0.
         24    2    4    4    0    0 -0.31934133974E+03  0.16582447338E+03 -0.52546090681E+03  0.64164789226E+03  0.78270082505E+02 0.  0.
         11    1    3    3    0    0 -0.10294293866E+03  0.11425743324E+03  0.75472419495E+02  0.17131285934E+03  0.00000000000E+00 0.  1.
        -11    1    3    3    0    0  0.57835812576E+00  0.15764097498E+02 -0.97813470462E+01  0.18561142694E+02  0.00000000000E+00 0. -1.
          4    1    6    6  502    0 -0.12045691768E+03  0.81870822288E+02 -0.15364818421E+03  0.21170844355E+03  0.00000000000E+00 0. -1.
          3    1    5    5  503    0  0.46435774094E+02 -0.61350727666E+01 -0.28328368694E+02  0.54739535131E+02  0.00000000000E+00 0. -1.
         -4    1    5    5    0  503  0.37527014618E+03 -0.28971093135E+03 -0.34929257866E+03  0.58886790698E+03  0.00000000000E+00 0.  1.
         -3    1    6    6    0  502 -0.19888442206E+03  0.83953651095E+02 -0.37181272259E+03  0.42993944871E+03  0.00000000000E+00 0.  1.
<mgrwt>
<rscale>  0 0.12144065E+04</rscale>
<asrwt>0</asrwt>
<pdfrwt beam="1">  1        1 0.17788616E+00 0.12144065E+04</pdfrwt>
<pdfrwt beam="2">  1       -1 0.49056811E-01 0.12144065E+04</pdfrwt>
<totfact> 0.47343859E+01</totfact>
</mgrwt>
</event>
<event>
12    1  0.1536832E-007  0.2521101E+04  0.7818608E-02  0.8395506E-01
          2   -1    0    0  501    0  0.00000000000E+00  0.00000000000E+00  0.28877462389E+04  0.28877462389E+04  0.00000000000E+00 0. -1.
         -2   -1    0    0    0  501 -0.00000000000E+00 -0.00000000000E+00 -0.55025187433E+03  0.55025187433E+03  0.00000000000E+00 0.  1.
         23    2    1    2    0    0  0.10641588963E+04 -0.24796479335E+03  0.89030181427E+03  0.14124404288E+04  0.91814753415E+02 0.  0.
        254    2    1    2    0    0 -0.10641588963E+04  0.24796479335E+03  0.14471925503E+04  0.20255576844E+04  0.90255025349E+03 0.  0.
        -24    2    4    4    0    0  0.87390900747E+02  0.16695787153E+03  0.46433377063E+03  0.50729604680E+03  0.78938762057E+02 0.  0.
         24    2    4    4    0    0 -0.11515497971E+04  0.81006921823E+02  0.98285877962E+03  0.15182616376E+04  0.80485794371E+02 0.  0.
         13    1    3    3    0    0  0.10657217635E+04 -0.24683088786E+03  0.89041530919E+03  0.14105062166E+04  0.00000000000E+00 0. -1.
        -13    1    3    3    0    0 -0.15628671584E+01 -0.11339054901E+01 -0.11349491787E+00  0.19342121165E+01  0.00000000000E+00 0.  1.
          4    1    6    6  502    0 -0.11216755511E+03 -0.62831266293E+01  0.71562672181E+02  0.13320005311E+03  0.00000000000E+00 0. -1.
          1    1    5    5  503    0 -0.38683606230E+01  0.59194155204E+02  0.96347291145E+02  0.11314465403E+03  0.00000000000E+00 0. -1.
         -2    1    5    5    0  503  0.91259261370E+02  0.10776371632E+03  0.36798647948E+03  0.39415139277E+03  0.00000000000E+00 0.  1.
         -3    1    6    6    0  502 -0.10393822420E+04  0.87290048453E+02  0.91129610744E+03  0.13850615845E+04  0.00000000000E+00 0.  1.
<mgrwt>
<rscale>  0 0.25211012E+04</rscale>
<asrwt>0</asrwt>
<pdfrwt beam="1">  1        2 0.44426864E+00 0.25211012E+04</pdfrwt>
<pdfrwt beam="2">  1       -2 0.84654136E-01 0.25211012E+04</pdfrwt>
<totfact> 0.22134504E+00</totfact>
</mgrwt>
</event>
<event>
12    1  0.1536832E-007  0.1604365E+04  0.7818608E-02  0.8817871E-01
         -2   -1    0    0    0  501 -0.00000000000E+00  0.00000000000E+00  0.25040814219E+03  0.25040814219E+03  0.00000000000E+00 0.  1.
          2   -1    0    0  501    0  0.00000000000E+00 -0.00000000000E+00 -0.25697912940E+04  0.25697912940E+04  0.00000000000E+00 0. -1.
         23    2    1    2    0    0  0.41885503508E+03  0.33385109543E+03 -0.63777205598E+03  0.83806605686E+03  0.93302872080E+02 0.  0.
        254    2    1    2    0    0 -0.41885503508E+03 -0.33385109543E+03 -0.16816110958E+04  0.19821333793E+04  0.90229749058E+03 0.  0.
        -24    2    4    4    0    0  0.14398054583E+02  0.19549053912E+03 -0.96620596304E+03  0.98925405663E+03  0.81521596479E+02 0.  0.
         24    2    4    4    0    0 -0.43325308966E+03 -0.52934163455E+03 -0.71540513280E+03  0.99287932270E+03  0.78064330194E+02 0.  0.
         11    1    3    3    0    0  0.24497983124E+03  0.21544065337E+03 -0.45186713651E+03  0.55732728436E+03  0.00000000000E+00 0.  1.
        -11    1    3    3    0    0  0.17387520384E+03  0.11841044206E+03 -0.18590491947E+03  0.28073877250E+03  0.00000000000E+00 0. -1.
          4    1    6    6  502    0 -0.12239539096E+03 -0.19890668739E+03 -0.27197606931E+03  0.35849056375E+03  0.00000000000E+00 0. -1.
          1    1    5    5  503    0 -0.17089053926E+02  0.50099340052E+01 -0.54699950114E+02  0.57525818076E+02  0.00000000000E+00 0. -1.
         -4    1    5    5    0  503  0.31487108509E+02  0.19048060512E+03 -0.91150601292E+03  0.93172823856E+03  0.00000000000E+00 0.  1.
         -3    1    6    6    0  502 -0.31085769870E+03 -0.33043494716E+03 -0.44342906349E+03  0.63438875896E+03  0.00000000000E+00 0.  1.
<mgrwt>
<rscale>  0 0.16043649E+04</rscale>
<asrwt>0</asrwt>
<pdfrwt beam="1">  1        2 0.39535251E+00 0.16043649E+04</pdfrwt>
<pdfrwt beam="2">  1       -2 0.38524329E-01 0.16043649E+04</pdfrwt>
<totfact> 0.19390900E+01</totfact>
</mgrwt>
</event>
<event>
12    1  0.1790113E-007  0.1455115E+04  0.7818608E-02  0.8914862E-01
          2   -1    0    0  501    0  0.00000000000E+00  0.00000000000E+00  0.20468674109E+04  0.20468674109E+04  0.00000000000E+00 0. -1.
         -2   -1    0    0    0  501 -0.00000000000E+00 -0.00000000000E+00 -0.25860968653E+03  0.25860968653E+03  0.00000000000E+00 0.  1.
         23    2    1    2    0    0 -0.59415826695E+02  0.40625765828E+03  0.28038811843E+03  0.50348809153E+03  0.79418108647E+02 0.  0.
        254    2    1    2    0    0  0.59415826695E+02 -0.40625765828E+03  0.15078696059E+04  0.18019890059E+04  0.89717228196E+03 0.  0.
        -24    2    4    4    0    0 -0.48597694931E+02  0.27126405944E+03  0.56120900815E+03  0.63022697858E+03  0.79275266013E+02 0.  0.
         24    2    4    4    0    0  0.10801352163E+03 -0.67752171772E+03  0.94666059777E+03  0.11717620273E+04  0.78468862845E+02 0.  0.
         11    1    3    3    0    0 -0.31528427989E+02  0.16775247616E+03  0.16372694715E+03  0.23651944583E+03  0.00000000000E+00 0. -1.
        -11    1    3    3    0    0 -0.27887398705E+02  0.23850518212E+03  0.11666117127E+03  0.26696864570E+03  0.00000000000E+00 0.  1.
          2    1    6    6  502    0  0.10311542026E+03 -0.67359449901E+03  0.92309093625E+03  0.11473705659E+04  0.00000000000E+00 0. -1.
          3    1    5    5  503    0 -0.31265057858E+02  0.24885797507E+03  0.53804950855E+03  0.59363715286E+03  0.00000000000E+00 0. -1.
         -4    1    5    5    0  503 -0.17332637073E+02  0.22406084371E+02  0.23159499602E+02  0.36589825725E+02  0.00000000000E+00 0.  1.
         -1    1    6    6    0  502  0.48981013617E+01 -0.39272187125E+01  0.23569661515E+02  0.24391461369E+02  0.00000000000E+00 0.  1.
<mgrwt>
<rscale>  0 0.14551148E+04</rscale>
<asrwt>0</asrwt>
<pdfrwt beam="1">  1        2 0.31490267E+00 0.14551148E+04</pdfrwt>
<pdfrwt beam="2">  1       -2 0.39786107E-01 0.14551148E+04</pdfrwt>
<totfact> 0.36474773E+01</totfact>
</mgrwt>
</event>
<event>
12    1  0.1536832E-007  0.1352877E+04  0.7818608E-02  0.8988653E-01
         -2   -1    0    0    0  501 -0.00000000000E+00  0.00000000000E+00  0.19652188698E+03  0.19652188698E+03  0.00000000000E+00 0.  1.
          2   -1    0    0  501    0  0.00000000000E+00 -0.00000000000E+00 -0.23283367441E+04  0.23283367441E+04  0.00000000000E+00 0. -1.
         23    2    1    2    0    0 -0.35535900803E+02  0.15121751631E+02 -0.12861320930E+04  0.12898936953E+04  0.90545662154E+02 0.  0.
        254    2    1    2    0    0  0.35535900803E+02 -0.15121751631E+02 -0.84568276416E+03  0.12349649358E+04  0.89914825668E+03 0.  0.
        -24    2    4    4    0    0  0.43356027502E+03  0.18000498398E+01 -0.64625277393E+03  0.78224063284E+03  0.79246499049E+02 0.  0.
         24    2    4    4    0    0 -0.39802437421E+03 -0.16921801471E+02 -0.19942999023E+03  0.45272430297E+03  0.80481200706E+02 0.  0.
         13    1    3    3    0    0  0.18199695273E+02 -0.14051463806E+02 -0.73865982123E+03  0.73901759387E+03  0.00000000000E+00 0. -1.
        -13    1    3    3    0    0 -0.53735596076E+02  0.29173215437E+02 -0.54747227176E+03  0.55087610143E+03  0.00000000000E+00 0.  1.
          4    1    6    6  502    0 -0.31781581638E+03 -0.41288441282E+02 -0.17623521854E+03  0.36574647063E+03  0.00000000000E+00 0. -1.
          1    1    5    5  503    0  0.35859059799E+03 -0.28516239806E+02 -0.51941334362E+03  0.63181533254E+03  0.00000000000E+00 0. -1.
         -2    1    5    5    0  503  0.74969677020E+02  0.30316289646E+02 -0.12683943031E+03  0.15042530031E+03  0.00000000000E+00 0.  1.
         -3    1    6    6    0  502 -0.80208557835E+02  0.24366639811E+02 -0.23194771691E+02  0.86977832345E+02  0.00000000000E+00 0.  1.
<mgrwt>
<rscale>  0 0.13528771E+04</rscale>
<asrwt>0</asrwt>
<pdfrwt beam="1">  1        2 0.35820566E+00 0.13528771E+04</pdfrwt>
<pdfrwt beam="2">  1       -2 0.30234136E-01 0.13528771E+04</pdfrwt>
<totfact> 0.43232669E+01</totfact>
</mgrwt>
</event>
<event>
12    1  0.1536832E-007  0.1585025E+04  0.7818608E-02  0.8829801E-01
          1   -1    0    0  501    0  0.00000000000E+00  0.00000000000E+00  0.15428605042E+04  0.15428605042E+04  0.00000000000E+00 0. -1.
         -1   -1    0    0    0  501 -0.00000000000E+00 -0.00000000000E+00 -0.40708551865E+03  0.40708551865E+03  0.00000000000E+00 0.  1.
         23    2    1    2    0    0  0.25379120623E+03 -0.62276408552E+02 -0.17987258806E+03  0.33003695415E+03  0.91005031447E+02 0.  0.
        254    2    1    2    0    0 -0.25379120623E+03  0.62276408552E+02  0.13156475736E+04  0.16199090687E+04  0.90823373945E+03 0.  0.
        -24    2    4    4    0    0 -0.18044740324E+03 -0.38914697788E+03  0.88106058649E+03  0.98391140816E+03  0.88415305945E+02 0.  0.
         24    2    4    4    0    0 -0.73343802993E+02  0.45142338643E+03  0.43458698709E+03  0.63599766051E+03  0.80403902714E+02 0.  0.
         11    1    3    3    0    0  0.74686782542E+02 -0.21610411120E+02 -0.10740707381E+03  0.13259489002E+03  0.00000000000E+00 0. -1.
        -11    1    3    3    0    0  0.17910442369E+03 -0.40665997432E+02 -0.72465514242E+02  0.19744206413E+03  0.00000000000E+00 0.  1.
          4    1    6    6  502    0 -0.47829919133E+01  0.20271639200E+03  0.15241832287E+03  0.25366938669E+03  0.00000000000E+00 0. -1.
          1    1    5    5  503    0 -0.10279312515E+03 -0.15957290545E+03  0.46759557745E+03  0.50465390396E+03  0.00000000000E+00 0. -1.
         -2    1    5    5    0  503 -0.77654278086E+02 -0.22957407243E+03  0.41346500904E+03  0.47925750420E+03  0.00000000000E+00 0.  1.
         -3    1    6    6    0  502 -0.68560811080E+02  0.24870699443E+03  0.28216866422E+03  0.38232827382E+03  0.00000000000E+00 0.  1.
<mgrwt>
<rscale>  0 0.15850251E+04</rscale>
<asrwt>0</asrwt>
<pdfrwt beam="1">  1        1 0.23736315E+00 0.15850251E+04</pdfrwt>
<pdfrwt beam="2">  1       -1 0.62628542E-01 0.15850251E+04</pdfrwt>
<totfact> 0.15177479E+01</totfact>
</mgrwt>
</event>
<event>
12    1  0.1536832E-007  0.1409988E+04  0.7818608E-02  0.8946621E-01
         -1   -1    0    0    0  501 -0.00000000000E+00  0.00000000000E+00  0.82446347709E+03  0.82446347709E+03  0.00000000000E+00 0.  1.
          1   -1    0    0  501    0  0.00000000000E+00 -0.00000000000E+00 -0.60283598521E+03  0.60283598521E+03  0.00000000000E+00 0. -1.
         23    2    1    2    0    0  0.22182322755E+03 -0.27669765458E+03 -0.15488547014E+03  0.39770535850E+03  0.91721900232E+02 0.  0.
        254    2    1    2    0    0 -0.22182322755E+03  0.27669765458E+03  0.37651296201E+03  0.10295941038E+04  0.89024427641E+03 0.  0.
        -24    2    4    4    0    0 -0.30749930395E+03 -0.23594125554E+03  0.20668891995E+02  0.39474535168E+03  0.71920731217E+02 0.  0.
         24    2    4    4    0    0  0.85676076400E+02  0.51263891012E+03  0.35584407002E+03  0.63484875213E+03  0.79176345411E+02 0.  0.
         11    1    3    3    0    0  0.22762373255E+02 -0.68724106128E+02 -0.35899807243E+01  0.72484593955E+02  0.00000000000E+00 0.  1.
        -11    1    3    3    0    0  0.19906085430E+03 -0.20797354846E+03 -0.15129548941E+03  0.32522076454E+03  0.00000000000E+00 0. -1.
          2    1    6    6  502    0  0.48251355436E+02  0.10413035036E+03  0.63972065137E+02  0.13139158377E+03  0.00000000000E+00 0. -1.
          3    1    5    5  503    0 -0.10603872263E+02 -0.31033565521E+02  0.81233351647E+01  0.33786282278E+02  0.00000000000E+00 0. -1.
         -4    1    5    5    0  503 -0.29689543169E+03 -0.20490769001E+03  0.12545556830E+02  0.36095906940E+03  0.00000000000E+00 0.  1.
         -1    1    6    6    0  502  0.37424720963E+02  0.40850855976E+03  0.29187200488E+03  0.50345716835E+03  0.00000000000E+00 0.  1.
<mgrwt>
<rscale>  0 0.14099876E+04</rscale>
<asrwt>0</asrwt>
<pdfrwt beam="1">  1        1 0.92743997E-01 0.14099876E+04</pdfrwt>
<pdfrwt beam="2">  1       -1 0.12684054E+00 0.14099876E+04</pdfrwt>
<totfact> 0.17886722E+01</totfact>
</mgrwt>
</event>
<event>
12    1  0.1536832E-007  0.1808709E+04  0.7818608E-02  0.8701682E-01
         -2   -1    0    0    0  501 -0.00000000000E+00  0.00000000000E+00  0.55620700114E+03  0.55620700114E+03  0.00000000000E+00 0. -1.
          2   -1    0    0  501    0  0.00000000000E+00 -0.00000000000E+00 -0.14704184864E+04  0.14704184864E+04  0.00000000000E+00 0.  1.
         23    2    1    2    0    0 -0.10934310402E+03  0.29675898353E+03  0.32613427201E+03  0.46318224076E+03  0.90290730846E+02 0.  0.
        254    2    1    2    0    0  0.10934310402E+03 -0.29675898353E+03 -0.12403457573E+04  0.15634432468E+04  0.89770561967E+03 0.  0.
        -24    2    4    4    0    0 -0.13184469624E+03  0.27228414568E+03 -0.28830702851E+03  0.42559158005E+03  0.80533039232E+02 0.  0.
         24    2    4    4    0    0  0.24118780025E+03 -0.56904312921E+03 -0.95203872876E+03  0.11378516667E+04  0.79668290527E+02 0.  0.
         11    1    3    3    0    0 -0.70177653645E+02  0.17122859591E+03  0.12659751574E+03  0.22421210074E+03  0.00000000000E+00 0. -1.
        -11    1    3    3    0    0 -0.39165450371E+02  0.12553038763E+03  0.19953675627E+03  0.23897014002E+03  0.00000000000E+00 0.  1.
          4    1    6    6  502    0  0.12754495824E+03 -0.30077209994E+03 -0.43018294512E+03  0.54017491495E+03  0.00000000000E+00 0. -1.
          1    1    5    5  503    0 -0.89492162956E+02  0.23991726458E+03 -0.26124328457E+03  0.36581032627E+03  0.00000000000E+00 0. -1.
         -4    1    5    5    0  503 -0.42352533281E+02  0.32366881093E+02 -0.27063743945E+02  0.59781253779E+02  0.00000000000E+00 0.  1.
         -3    1    6    6    0  502  0.11364284201E+03 -0.26827102927E+03 -0.52185578364E+03  0.59767675177E+03  0.00000000000E+00 0.  1.
<mgrwt>
<rscale>  0 0.18087090E+04</rscale>
<asrwt>0</asrwt>
<pdfrwt beam="1">  1        2 0.22621823E+00 0.18087090E+04</pdfrwt>
<pdfrwt beam="2">  1       -2 0.85570309E-01 0.18087090E+04</pdfrwt>
<totfact> 0.14770292E+01</totfact>
</mgrwt>
</event>
<event>
12    1  0.1536832E-007  0.1864826E+04  0.7818608E-02  0.8672566E-01
          2   -1    0    0  501    0  0.00000000000E+00  0.00000000000E+00  0.16549197297E+04  0.16549197297E+04  0.00000000000E+00 0. -1.
         -2   -1    0    0    0  501 -0.00000000000E+00 -0.00000000000E+00 -0.52533905271E+03  0.52533905271E+03  0.00000000000E+00 0.  1.
         23    2    1    2    0    0 -0.15543914124E+03  0.26043225582E+03  0.11626373082E+04  0.12052435837E+04  0.94341396878E+02 0.  0.
        254    2    1    2    0    0  0.15543914124E+03 -0.26043225582E+03 -0.33056631207E+02  0.97501519870E+03  0.92605378372E+03 0.  0.
        -24    2    4    4    0    0  0.25899130614E+03 -0.10444617358E+03  0.40126200400E+03  0.49533956470E+03  0.79778372231E+02 0.  0.
         24    2    4    4    0    0 -0.10355216490E+03 -0.15598608224E+03 -0.43431863520E+03  0.47967563400E+03  0.80008301227E+02 0.  0.
         13    1    3    3    0    0 -0.14103154070E+02  0.44372915455E+02  0.83023881227E+02  0.95188336652E+02  0.00000000000E+00 0.  1.
        -13    1    3    3    0    0 -0.14133598717E+03  0.21605934037E+03  0.10796134270E+04  0.11100552471E+04  0.00000000000E+00 0. -1.
          2    1    6    6  502    0 -0.74502791509E+02 -0.14552687156E+03 -0.29796742713E+03  0.33987251128E+03  0.00000000000E+00 0. -1.
          3    1    5    5  503    0  0.18141258810E+03 -0.10592784869E+03  0.32161183029E+03  0.38414242883E+03  0.00000000000E+00 0. -1.
         -4    1    5    5    0  503  0.77578718039E+02  0.14816751024E+01  0.79650173709E+02  0.11119713587E+03  0.00000000000E+00 0.  1.
         -1    1    6    6    0  502 -0.29049373391E+02 -0.10459210677E+02 -0.13635120807E+03  0.13980312273E+03  0.00000000000E+00 0.  1.
<mgrwt>
<rscale>  0 0.18648260E+04</rscale>
<asrwt>0</asrwt>
<pdfrwt beam="1">  1        2 0.25460303E+00 0.18648260E+04</pdfrwt>
<pdfrwt beam="2">  1       -2 0.80821393E-01 0.18648260E+04</pdfrwt>
<totfact> 0.13182337E+01</totfact>
</mgrwt>
</event>
<event>
12    1  0.1536832E-007  0.1373479E+04  0.7818608E-02  0.8973243E-01
          1   -1    0    0  501    0  0.00000000000E+00  0.00000000000E+00  0.29907636679E+03  0.29907636679E+03  0.00000000000E+00 0. -1.
         -1   -1    0    0    0  501 -0.00000000000E+00 -0.00000000000E+00 -0.15768924385E+04  0.15768924385E+04  0.00000000000E+00 0.  1.
         23    2    1    2    0    0 -0.35001164806E+03  0.75678233684E+01 -0.58693182457E+03  0.68920564888E+03  0.89162963361E+02 0.  0.
        254    2    1    2    0    0  0.35001164806E+03 -0.75678233684E+01 -0.69088424713E+03  0.11867631564E+04  0.89917758019E+03 0.  0.
        -24    2    4    4    0    0 -0.41517619990E+02 -0.81726887068E+02  0.18618390156E+03  0.22006697928E+03  0.73225906157E+02 0.  0.
         24    2    4    4    0    0  0.39152926805E+03  0.74159063700E+02 -0.87706814869E+03  0.96669617711E+03  0.80363094281E+02 0.  0.
         13    1    3    3    0    0 -0.12262060837E+03  0.16582120828E+01 -0.29230630744E+03  0.31698823422E+03  0.00000000000E+00 0.  1.
        -13    1    3    3    0    0 -0.22739103969E+03  0.59096112857E+01 -0.29462551712E+03  0.37221741466E+03  0.00000000000E+00 0. -1.
          2    1    6    6  502    0  0.88165616387E+02  0.34804069230E+02 -0.14439705841E+03  0.17272813791E+03  0.00000000000E+00 0. -1.
          3    1    5    5  503    0 -0.15206254316E+02 -0.56258200059E+01  0.10309789668E+03  0.10436501483E+03  0.00000000000E+00 0. -1.
         -4    1    5    5    0  503 -0.26311365674E+02 -0.76101067063E+02  0.83086004879E+02  0.11570196445E+03  0.00000000000E+00 0.  1.
         -1    1    6    6    0  502  0.30336365166E+03  0.39354994470E+02 -0.73267109028E+03  0.79396803920E+03  0.00000000000E+00 0.  1.
<mgrwt>
<rscale>  0 0.13734792E+04</rscale>
<asrwt>0</asrwt>
<pdfrwt beam="1">  1        1 0.46011748E-01 0.13734792E+04</pdfrwt>
<pdfrwt beam="2">  1       -1 0.24259884E+00 0.13734792E+04</pdfrwt>
<totfact> 0.67102604E+00</totfact>
</mgrwt>
</event>
<event>
12    1  0.1536832E-007  0.1503464E+04  0.7818608E-02  0.8882153E-01
          2   -1    0    0  501    0  0.00000000000E+00  0.00000000000E+00  0.15086737953E+04  0.15086737953E+04  0.00000000000E+00 0. -1.
         -2   -1    0    0    0  501 -0.00000000000E+00 -0.00000000000E+00 -0.37456814450E+03  0.37456814450E+03  0.00000000000E+00 0.  1.
         23    2    1    2    0    0  0.50873875798E+02  0.37720790990E+03  0.16694514282E+02  0.39016139875E+03  0.84102626235E+02 0.  0.
        254    2    1    2    0    0 -0.50873875798E+02 -0.37720790990E+03  0.11174111365E+04  0.14930805410E+04  0.91422529801E+03 0.  0.
        -24    2    4    4    0    0  0.40283350931E+02 -0.65489564401E+03  0.91510432565E+03  0.11289485561E+04  0.81227228673E+02 0.  0.
         24    2    4    4    0    0 -0.91157226728E+02  0.27768773410E+03  0.20230681086E+03  0.36413198490E+03  0.79018599417E+02 0.  0.
         13    1    3    3    0    0 -0.70802957006E+01  0.43146155010E+02  0.26208272307E+02  0.50976414318E+02  0.00000000000E+00 0. -1.
        -13    1    3    3    0    0  0.57954171498E+02  0.33406175489E+03 -0.95137580257E+01  0.33918498444E+03  0.00000000000E+00 0.  1.
          2    1    6    6  502    0  0.13243721858E+02  0.17995923355E+02  0.20889610491E+02  0.30587991966E+02  0.00000000000E+00 0. -1.
          3    1    5    5  503    0  0.16602730078E+02 -0.58990111412E+02  0.55193025650E+02  0.82472746837E+02  0.00000000000E+00 0. -1.
         -2    1    5    5    0  503  0.23680620852E+02 -0.59590553259E+03  0.85991130000E+03  0.10464758093E+04  0.00000000000E+00 0.  1.
         -1    1    6    6    0  502 -0.10440094859E+03  0.25969181075E+03  0.18141720036E+03  0.33354399294E+03  0.00000000000E+00 0.  1.
<mgrwt>
<rscale>  0 0.15034642E+04</rscale>
<asrwt>0</asrwt>
<pdfrwt beam="1">  1        2 0.23210366E+00 0.15034642E+04</pdfrwt>
<pdfrwt beam="2">  1       -2 0.57625869E-01 0.15034642E+04</pdfrwt>
<totfact> 0.34185238E+01</totfact>
</mgrwt>
</event>
<event>
12    1  0.1536832E-007  0.1722291E+04  0.7818608E-02  0.8748752E-01
         -2   -1    0    0    0  501 -0.00000000000E+00  0.00000000000E+00  0.55272638263E+03  0.55272638263E+03  0.00000000000E+00 0.  1.
          2   -1    0    0  501    0  0.00000000000E+00 -0.00000000000E+00 -0.13416605311E+04  0.13416605311E+04  0.00000000000E+00 0. -1.
         23    2    1    2    0    0  0.29327280594E+03  0.55517667884E+02  0.31648289210E+03  0.44356247815E+03  0.86574250649E+02 0.  0.
        254    2    1    2    0    0 -0.29327280594E+03 -0.55517667884E+02 -0.11054170406E+04  0.14508244356E+04  0.89098460093E+03 0.  0.
        -24    2    4    4    0    0  0.18852132240E+03  0.11971756197E+03 -0.83031849924E+03  0.86342595840E+03  0.78759074454E+02 0.  0.
         24    2    4    4    0    0 -0.48179412834E+03 -0.17523522985E+03 -0.27509854131E+03  0.58739847716E+03  0.80776207222E+02 0.  0.
         11    1    3    3    0    0  0.47040164589E+02  0.41283038560E+02  0.82836493780E+02  0.10382172730E+03  0.00000000000E+00 0. -1.
        -11    1    3    3    0    0  0.24623264135E+03  0.14234629324E+02  0.23364639832E+03  0.33974075085E+03  0.00000000000E+00 0.  1.
          4    1    6    6  502    0 -0.45195011821E+03 -0.14425402608E+03 -0.26421161373E+03  0.54302477864E+03  0.00000000000E+00 0. -1.
          3    1    5    5  503    0  0.15285508730E+03  0.12835280991E+03 -0.67961345650E+03  0.70831742304E+03  0.00000000000E+00 0. -1.
         -4    1    5    5    0  503  0.35666235094E+02 -0.86352479422E+01 -0.15070504274E+03  0.15510853536E+03  0.00000000000E+00 0.  1.
         -3    1    6    6    0  502 -0.29844010130E+02 -0.30981203771E+02 -0.10886927578E+02  0.44373698515E+02  0.00000000000E+00 0.  1.
<mgrwt>
<rscale>  0 0.17222905E+04</rscale>
<asrwt>0</asrwt>
<pdfrwt beam="1">  1        2 0.20640931E+00 0.17222905E+04</pdfrwt>
<pdfrwt beam="2">  1       -2 0.85034829E-01 0.17222905E+04</pdfrwt>
<totfact> 0.17879115E+01</totfact>
</mgrwt>
</event>
<event>
12    1  0.1536832E-007  0.2824362E+04  0.7818608E-02  0.8295744E-01
          1   -1    0    0  501    0  0.00000000000E+00  0.00000000000E+00  0.25813796212E+04  0.25813796212E+04  0.00000000000E+00 0. -1.
         -1   -1    0    0    0  501 -0.00000000000E+00 -0.00000000000E+00 -0.77255423030E+03  0.77255423030E+03  0.00000000000E+00 0.  1.
         23    2    1    2    0    0 -0.11395350761E+03  0.10314270067E+04 -0.47377082264E+02  0.10420462794E+04  0.82394103356E+02 0.  0.
        254    2    1    2    0    0  0.11395350761E+03 -0.10314270067E+04  0.18562024731E+04  0.23118875721E+04  0.90692306879E+03 0.  0.
        -24    2    4    4    0    0  0.34927334801E+03 -0.28887088581E+03  0.24645666448E+03  0.52187642832E+03  0.78586631638E+02 0.  0.
         24    2    4    4    0    0 -0.23531984039E+03 -0.74255612093E+03  0.16097458086E+04  0.17900111438E+04  0.78059633901E+02 0.  0.
         13    1    3    3    0    0 -0.11153377618E+03  0.98981996536E+03 -0.61656979525E+02  0.99799044594E+03  0.00000000000E+00 0.  1.
        -13    1    3    3    0    0 -0.24197314286E+01  0.41607041372E+02  0.14279897262E+02  0.44055833413E+02  0.00000000000E+00 0. -1.
          4    1    6    6  502    0 -0.19379445287E+03 -0.56696246255E+03  0.13024042828E+04  0.14336176756E+04  0.00000000000E+00 0. -1.
          1    1    5    5  503    0  0.15918258602E+03 -0.13139742864E+03  0.68151256578E+02  0.21736829051E+03  0.00000000000E+00 0. -1.
         -2    1    5    5    0  503  0.19009076199E+03 -0.15747345717E+03  0.17830540791E+03  0.30450813781E+03  0.00000000000E+00 0.  1.
         -3    1    6    6    0  502 -0.41525387528E+02 -0.17559365838E+03  0.30734152587E+03  0.35639346823E+03  0.00000000000E+00 0.  1.
<mgrwt>
<rscale>  0 0.28243624E+04</rscale>
<asrwt>0</asrwt>
<pdfrwt beam="1">  1        1 0.39713532E+00 0.28243624E+04</pdfrwt>
<pdfrwt beam="2">  1       -1 0.11885450E+00 0.28243624E+04</pdfrwt>
<totfact> 0.65072024E-01</totfact>
</mgrwt>
</event>
<event>
12    1  0.1536832E-007  0.1401824E+04  0.7818608E-02  0.8952499E-01
         -2   -1    0    0    0  501 -0.00000000000E+00  0.00000000000E+00  0.18028333731E+03  0.18028333731E+03  0.00000000000E+00 0.  1.
          2   -1    0    0  501    0  0.00000000000E+00 -0.00000000000E+00 -0.27250309866E+04  0.27250309866E+04  0.00000000000E+00 0. -1.
         23    2    1    2    0    0 -0.39123581299E+03  0.11356102434E+03 -0.79941830958E+03  0.90161439182E+03  0.88754212466E+02 0.  0.
        254    2    1    2    0    0  0.39123581299E+03 -0.11356102434E+03 -0.17453293397E+04  0.20036999320E+04  0.89592262286E+03 0.  0.
        -24    2    4    4    0    0  0.46161641441E+02  0.34857974281E+03 -0.40716182520E+03  0.54376291498E+03  0.79111450258E+02 0.  0.
         24    2    4    4    0    0  0.34507417155E+03 -0.46214076716E+03 -0.13381675145E+04  0.14599370171E+04  0.89852793468E+02 0.  0.
         11    1    3    3    0    0 -0.68196930603E+00 -0.67114748205E+01 -0.55328587063E+01  0.87247637140E+01  0.00000000000E+00 0.  1.
        -11    1    3    3    0    0 -0.39055384369E+03  0.12027249917E+03 -0.79388545088E+03  0.89288962811E+03  0.00000000000E+00 0. -1.
          2    1    6    6  502    0  0.78849886739E+02 -0.12499523869E+03 -0.25559128499E+03  0.29524230607E+03  0.00000000000E+00 0. -1.
          1    1    5    5  503    0 -0.21833511295E+01  0.11748183746E+02  0.14246755299E+01  0.12033974565E+02  0.00000000000E+00 0. -1.
         -2    1    5    5    0  503  0.48344992571E+02  0.33683155907E+03 -0.40858650073E+03  0.53172894041E+03  0.00000000000E+00 0.  1.
         -1    1    6    6    0  502  0.26622428481E+03 -0.33714552847E+03 -0.10825762295E+04  0.11646947110E+04  0.00000000000E+00 0.  1.
<mgrwt>
<rscale>  0 0.14018241E+04</rscale>
<asrwt>0</asrwt>
<pdfrwt beam="1">  1        2 0.41923550E+00 0.14018241E+04</pdfrwt>
<pdfrwt beam="2">  1       -2 0.27735900E-01 0.14018241E+04</pdfrwt>
<totfact> 0.29792293E+01</totfact>
</mgrwt>
</event>
<event>
12    1  0.1536832E-007  0.1270008E+04  0.7818608E-02  0.9053693E-01
         -2   -1    0    0    0  501 -0.00000000000E+00  0.00000000000E+00  0.37348051449E+03  0.37348051449E+03  0.00000000000E+00 0.  1.
          2   -1    0    0  501    0  0.00000000000E+00 -0.00000000000E+00 -0.10796543620E+04  0.10796543620E+04  0.00000000000E+00 0. -1.
         23    2    1    2    0    0 -0.20864189652E+03  0.37187685115E+02 -0.37419577141E+03  0.43954186065E+03  0.90885681018E+02 0.  0.
        254    2    1    2    0    0  0.20864189652E+03 -0.37187685115E+02 -0.33197807612E+03  0.10135930159E+04  0.93394164372E+03 0.  0.
        -24    2    4    4    0    0  0.44548844899E+03 -0.11276036200E+03 -0.51496174631E+03  0.69478603928E+03  0.79794628840E+02 0.  0.
         24    2    4    4    0    0 -0.23684655246E+03  0.75572676882E+02  0.18298367019E+03  0.31880697658E+03  0.79670231929E+02 0.  0.
         11    1    3    3    0    0 -0.48354332470E+02  0.42195536790E+02 -0.65634552205E+02  0.91795965253E+02  0.00000000000E+00 0.  1.
        -11    1    3    3    0    0 -0.16028756405E+03 -0.50078516749E+01 -0.30856121920E+03  0.34774589539E+03  0.00000000000E+00 0. -1.
          4    1    6    6  502    0 -0.21062549573E+02 -0.11213839184E+02  0.17042642304E+01  0.23922493606E+02  0.00000000000E+00 0. -1.
          3    1    5    5  503    0  0.25769795093E+02  0.10917167388E+02 -0.41919730243E+02  0.50403677113E+02  0.00000000000E+00 0. -1.
         -4    1    5    5    0  503  0.41971865390E+03 -0.12367752939E+03 -0.47304201607E+03  0.64438236216E+03  0.00000000000E+00 0.  1.
         -3    1    6    6    0  502 -0.21578400289E+03  0.86786516066E+02  0.18127940596E+03  0.29488448298E+03  0.00000000000E+00 0.  1.
<mgrwt>
<rscale>  0 0.12700077E+04</rscale>
<asrwt>0</asrwt>
<pdfrwt beam="1">  1        2 0.16610067E+00 0.12700077E+04</pdfrwt>
<pdfrwt beam="2">  1       -2 0.57458541E-01 0.12700077E+04</pdfrwt>
<totfact> 0.62503688E+01</totfact>
</mgrwt>
</event>
<event>
12    1  0.1536832E-007  0.2053834E+04  0.7818608E-02  0.8581857E-01
         -2   -1    0    0    0  501 -0.00000000000E+00  0.00000000000E+00  0.22815976413E+03  0.22815976413E+03  0.00000000000E+00 0.  1.
          2   -1    0    0  501    0  0.00000000000E+00 -0.00000000000E+00 -0.46220200532E+04  0.46220200532E+04  0.00000000000E+00 0. -1.
         23    2    1    2    0    0  0.49338048305E+02  0.42325881119E+03 -0.11470531125E+03  0.45068674702E+03  0.91536720780E+02 0.  0.
        254    2    1    2    0    0 -0.49338048305E+02 -0.42325881119E+03 -0.42791549778E+04  0.43994930703E+04  0.92886473032E+03 0.  0.
        -24    2    4    4    0    0 -0.23680048235E+02 -0.23133777268E+03 -0.20601737798E+03  0.32095409564E+03  0.80563401902E+02 0.  0.
         24    2    4    4    0    0 -0.25658000070E+02 -0.19192103852E+03 -0.40731375998E+04  0.40785389747E+04  0.80859400593E+02 0.  0.
         13    1    3    3    0    0  0.67751861234E+02  0.38859909855E+03 -0.11678016052E+03  0.41138446736E+03  0.00000000000E+00 0.  1.
        -13    1    3    3    0    0 -0.18413812929E+02  0.34659712641E+02  0.20748492760E+01  0.39302279660E+02  0.00000000000E+00 0. -1.
          2    1    6    6  502    0 -0.57623812554E+01  0.22562390663E+00 -0.20380037112E+02  0.21180223241E+02  0.00000000000E+00 0. -1.
          3    1    5    5  503    0  0.13451356144E+02 -0.29017588671E+02 -0.33022134798E+01  0.32153756363E+02  0.00000000000E+00 0. -1.
         -4    1    5    5    0  503 -0.37131404379E+02 -0.20232018401E+03 -0.20271516450E+03  0.28880033928E+03  0.00000000000E+00 0.  1.
         -1    1    6    6    0  502 -0.19895618815E+02 -0.19214666242E+03 -0.40527575627E+04  0.40573587514E+04  0.00000000000E+00 0.  1.
<mgrwt>
<rscale>  0 0.20538345E+04</rscale>
<asrwt>0</asrwt>
<pdfrwt beam="1">  1        2 0.71107994E+00 0.20538345E+04</pdfrwt>
<pdfrwt beam="2">  1       -2 0.35101505E-01 0.20538345E+04</pdfrwt>
<totfact> 0.66477100E-01</totfact>
</mgrwt>
</event>
<event>
12    1  0.1536832E-007  0.1950060E+04  0.7818608E-02  0.8630332E-01
          1   -1    0    0  501    0  0.00000000000E+00  0.00000000000E+00  0.15989808299E+04  0.15989808299E+04  0.00000000000E+00 0. -1.
         -1   -1    0    0    0  501 -0.00000000000E+00 -0.00000000000E+00 -0.59455594838E+03  0.59455594838E+03  0.00000000000E+00 0.  1.
         23    2    1    2    0    0 -0.78947776866E+03 -0.79560380783E+02  0.20903225108E+03  0.82554315870E+03  0.90675374190E+02 0.  0.
        254    2    1    2    0    0  0.78947776866E+03  0.79560380783E+02  0.79539263043E+03  0.13679936196E+04  0.78048196984E+03 0.  0.
        -24    2    4    4    0    0  0.50403215544E+03  0.17101869234E+03  0.26741408140E+02  0.53909712525E+03  0.81331425023E+02 0.  0.
         24    2    4    4    0    0  0.28544561322E+03 -0.91458311554E+02  0.76865122229E+03  0.82889649432E+03  0.80005474239E+02 0.  0.
         11    1    3    3    0    0 -0.65553856542E+03 -0.95098817082E+02  0.19179375148E+03  0.68960817778E+03  0.00000000000E+00 0.  1.
        -11    1    3    3    0    0 -0.13393920325E+03  0.15538436299E+02  0.17238499600E+02  0.13593498092E+03  0.00000000000E+00 0. -1.
          2    1    6    6  502    0  0.79754321385E+01 -0.99405276961E+01  0.78110483863E+01  0.14947711717E+02  0.00000000000E+00 0. -1.
          3    1    5    5  503    0  0.30832429317E+02  0.32838784369E+02 -0.36970403543E+01  0.45196156516E+02  0.00000000000E+00 0. -1.
         -4    1    5    5    0  503  0.47319972612E+03  0.13817990797E+03  0.30438448495E+02  0.49390096873E+03  0.00000000000E+00 0.  1.
         -1    1    6    6    0  502  0.27747018108E+03 -0.81517783858E+02  0.76084017391E+03  0.81394878261E+03  0.00000000000E+00 0.  1.
<mgrwt>
<rscale>  0 0.19500601E+04</rscale>
<asrwt>0</asrwt>
<pdfrwt beam="1">  1        1 0.24599705E+00 0.19500601E+04</pdfrwt>
<pdfrwt beam="2">  1       -1 0.91470146E-01 0.19500601E+04</pdfrwt>
<totfact> 0.60674601E+00</totfact>
</mgrwt>
</event>
<event>
12    1  0.1536832E-007  0.1257892E+04  0.7818608E-02  0.9063640E-01
          2   -1    0    0  501    0  0.00000000000E+00  0.00000000000E+00  0.48593623492E+04  0.48593623492E+04  0.00000000000E+00 0. -1.
         -2   -1    0    0    0  501 -0.00000000000E+00 -0.00000000000E+00 -0.81404290972E+02  0.81404290972E+02  0.00000000000E+00 0.  1.
         23    2    1    2    0    0  0.23941293532E+03 -0.16497663004E+03  0.14212449134E+04  0.14535758781E+04  0.91705438623E+02 0.  0.
        254    2    1    2    0    0 -0.23941293532E+03  0.16497663004E+03  0.33567131447E+04  0.34871907620E+04  0.89913315607E+03 0.  0.
        -24    2    4    4    0    0 -0.35379206414E+03  0.43709893056E+03  0.14694195000E+04  0.15752942591E+04  0.78320086674E+02 0.  0.
         24    2    4    4    0    0  0.11437912883E+03 -0.27212230052E+03  0.18872936447E+04  0.19118965029E+04  0.79610330900E+02 0.  0.
         13    1    3    3    0    0  0.31928979497E+02 -0.54656705387E+00  0.29065049910E+03  0.29239950598E+03  0.00000000000E+00 0. -1.
        -13    1    3    3    0    0  0.20748395582E+03 -0.16443006298E+03  0.11305944143E+04  0.11611763722E+04  0.00000000000E+00 0.  1.
          4    1    6    6  502    0  0.47770289066E+02 -0.36051224729E+02  0.32500649135E+03  0.33047074112E+03  0.00000000000E+00 0. -1.
          3    1    5    5  503    0 -0.34283744214E+02  0.84268995262E+02  0.20661428857E+03  0.22575673394E+03  0.00000000000E+00 0. -1.
         -4    1    5    5    0  503 -0.31950831993E+03  0.35282993530E+03  0.12628052115E+04  0.13495375252E+04  0.00000000000E+00 0.  1.
         -3    1    6    6    0  502  0.66608839760E+02 -0.23607107579E+03  0.15622871534E+04  0.15814257617E+04  0.00000000000E+00 0.  1.
<mgrwt>
<rscale>  0 0.12578918E+04</rscale>
<asrwt>0</asrwt>
<pdfrwt beam="1">  1        2 0.74759398E+00 0.12578918E+04</pdfrwt>
<pdfrwt beam="2">  1       -2 0.12523741E-01 0.12578918E+04</pdfrwt>
<totfact> 0.25412921E+00</totfact>
</mgrwt>
</event>
<event>
12    1  0.1536832E-007  0.1928083E+04  0.7818608E-02  0.8641002E-01
          2   -1    0    0  501    0  0.00000000000E+00  0.00000000000E+00  0.27083362581E+04  0.27083362581E+04  0.00000000000E+00 0.  1.
         -2   -1    0    0    0  501 -0.00000000000E+00 -0.00000000000E+00 -0.34315397027E+03  0.34315397027E+03  0.00000000000E+00 0. -1.
         23    2    1    2    0    0 -0.73597207413E+02  0.14674769902E+03 -0.23072674567E+03  0.29860312724E+03  0.94749988501E+02 0.  0.
        254    2    1    2    0    0  0.73597207413E+02 -0.14674769902E+03  0.25959090335E+04  0.27528871012E+04  0.90149445108E+03 0.  0.
        -24    2    4    4    0    0 -0.14954989748E+03  0.10364645170E+02  0.30171561520E+02  0.17141600556E+03  0.77463063013E+02 0.  0.
         24    2    4    4    0    0  0.22314710490E+03 -0.15711234419E+03  0.25657374720E+04  0.25814710956E+04  0.80655582997E+02 0.  0.
         11    1    3    3    0    0 -0.55349276211E+02  0.15320364417E+03 -0.22615702089E+03  0.27871472344E+03  0.00000000000E+00 0. -1.
        -11    1    3    3    0    0 -0.18247931202E+02 -0.64559451499E+01 -0.45697247765E+01  0.19888403794E+02  0.00000000000E+00 0.  1.
          2    1    6    6  502    0  0.15349352874E+03 -0.63867442244E+02  0.16541799579E+04  0.16625133523E+04  0.00000000000E+00 0. -1.
          1    1    5    5  503    0 -0.65383576014E+02 -0.32454676483E+02  0.26028038513E+01  0.73041718393E+02  0.00000000000E+00 0. -1.
         -2    1    5    5    0  503 -0.84166321471E+02  0.42819321653E+02  0.27568757669E+02  0.98374287170E+02  0.00000000000E+00 0.  1.
         -3    1    6    6    0  502  0.69653576159E+02 -0.93244901944E+02  0.91155751415E+03  0.91895774332E+03  0.00000000000E+00 0.  1.
<mgrwt>
<rscale>  0 0.19280833E+04</rscale>
<asrwt>0</asrwt>
<pdfrwt beam="1">  1        2 0.41666710E+00 0.19280833E+04</pdfrwt>
<pdfrwt beam="2">  1       -2 0.52792920E-01 0.19280833E+04</pdfrwt>
<totfact> 0.83150832E+00</totfact>
</mgrwt>
</event>
<event>
12    1  0.1536832E-007  0.2134023E+04  0.7818608E-02  0.8546402E-01
          1   -1    0    0  501    0  0.00000000000E+00  0.00000000000E+00  0.39494383541E+04  0.39494383541E+04  0.00000000000E+00 0. -1.
         -1   -1    0    0    0  501 -0.00000000000E+00 -0.00000000000E+00 -0.28827231940E+03  0.28827231940E+03  0.00000000000E+00 0.  1.
         23    2    1    2    0    0 -0.58465231317E+03 -0.17274327943E+02  0.20760014262E+03  0.62362638782E+03  0.60789165771E+02 0.  0.
        254    2    1    2    0    0  0.58465231317E+03  0.17274327943E+02  0.34535658921E+04  0.36140842857E+04  0.89015230346E+03 0.  0.
        -24    2    4    4    0    0  0.54541839733E+03 -0.36982941919E+03  0.23074261293E+04  0.24009339458E+04  0.77546390000E+02 0.  0.
         24    2    4    4    0    0  0.39233915836E+02  0.38710374713E+03  0.11461397628E+04  0.12131503399E+04  0.81907142906E+02 0.  0.
         11    1    3    3    0    0 -0.62720876530E+01  0.58540519048E+01 -0.28922005071E+00  0.85844426417E+01  0.00000000000E+00 0. -1.
        -11    1    3    3    0    0 -0.57838022552E+03 -0.23128379847E+02  0.20788936267E+03  0.61504194518E+03  0.00000000000E+00 0.  1.
          2    1    6    6  502    0  0.12579150210E+02  0.11775792922E+03  0.47377917886E+03  0.48835629948E+03  0.00000000000E+00 0. -1.
          1    1    5    5  503    0  0.42107391260E+03 -0.31419600673E+03  0.17543606731E+04  0.18313393301E+04  0.00000000000E+00 0. -1.
         -2    1    5    5    0  503  0.12434448473E+03 -0.55633412459E+02  0.55306545620E+03  0.56959461577E+03  0.00000000000E+00 0.  1.
         -1    1    6    6    0  502  0.26654765626E+02  0.26934581791E+03  0.67236058392E+03  0.72479404038E+03  0.00000000000E+00 0.  1.
<mgrwt>
<rscale>  0 0.21340232E+04</rscale>
<asrwt>0</asrwt>
<pdfrwt beam="1">  1        1 0.60760586E+00 0.21340232E+04</pdfrwt>
<pdfrwt beam="2">  1       -1 0.44349590E-01 0.21340232E+04</pdfrwt>
<totfact> 0.49322893E-01</totfact>
</mgrwt>
</event>
<event>
12    1  0.1536832E-007  0.1454145E+04  0.7818608E-02  0.8915532E-01
          2   -1    0    0  501    0  0.00000000000E+00  0.00000000000E+00  0.51090231190E+03  0.51090231190E+03  0.00000000000E+00 0. -1.
         -2   -1    0    0    0  501 -0.00000000000E+00 -0.00000000000E+00 -0.10347075432E+04  0.10347075432E+04  0.00000000000E+00 0.  1.
         23    2    1    2    0    0  0.38790286324E+03 -0.31652597128E+02  0.53990469641E+02  0.40320326619E+03  0.90484168979E+02 0.  0.
        254    2    1    2    0    0 -0.38790286324E+03  0.31652597128E+02 -0.57779570094E+03  0.11424065889E+04  0.90541395181E+03 0.  0.
        -24    2    4    4    0    0  0.20456647939E+03 -0.41843117863E+02 -0.48274647940E+03  0.53271669840E+03  0.84525891769E+02 0.  0.
         24    2    4    4    0    0 -0.59246934263E+03  0.73495714991E+02 -0.95049221546E+02  0.60968989051E+03  0.79157223273E+02 0.  0.
         13    1    3    3    0    0  0.29627458239E+03 -0.61609993105E+02  0.50032781163E+02  0.30672088063E+03  0.00000000000E+00 0. -1.
        -13    1    3    3    0    0  0.91628280849E+02  0.29957395977E+02  0.39576884786E+01  0.96482385559E+02  0.00000000000E+00 0.  1.
          2    1    6    6  502    0 -0.35999203315E+03  0.81096951539E+02 -0.44805592235E+02  0.37172371538E+03  0.00000000000E+00 0. -1.
          1    1    5    5  503    0 -0.53005840540E+01  0.66101967138E+01 -0.93129709032E+01  0.12590564680E+02  0.00000000000E+00 0. -1.
         -2    1    5    5    0  503  0.20986706344E+03 -0.48453314577E+02 -0.47343350849E+03  0.52012613372E+03  0.00000000000E+00 0.  1.
         -1    1    6    6    0  502 -0.23247730948E+03 -0.76012365479E+01 -0.50243629312E+02  0.23796617513E+03  0.00000000000E+00 0.  1.
<mgrwt>
<rscale>  0 0.14541451E+04</rscale>
<asrwt>0</asrwt>
<pdfrwt beam="1">  1        2 0.78600357E-01 0.14541451E+04</pdfrwt>
<pdfrwt beam="2">  1       -2 0.15918577E+00 0.14541451E+04</pdfrwt>
<totfact> 0.14854750E+01</totfact>
</mgrwt>
</event>
<event>
12    1  0.1536832E-007  0.1869243E+04  0.7818608E-02  0.8670319E-01
          2   -1    0    0  501    0  0.00000000000E+00  0.00000000000E+00  0.31532701912E+04  0.31532701912E+04  0.00000000000E+00 0. -1.
         -2   -1    0    0    0  501 -0.00000000000E+00 -0.00000000000E+00 -0.27701947913E+03  0.27701947913E+03  0.00000000000E+00 0.  1.
         23    2    1    2    0    0  0.39573563865E+03 -0.39221220467E+03  0.18409184410E+04  0.19254263579E+04  0.88593701773E+02 0.  0.
        254    2    1    2    0    0 -0.39573563865E+03  0.39221220467E+03  0.10353322711E+04  0.15048633124E+04  0.93928886316E+03 0.  0.
        -24    2    4    4    0    0  0.30219603778E+03  0.14445466056E+03  0.27918039280E+03  0.44338613720E+03  0.80374005281E+02 0.  0.
         24    2    4    4    0    0 -0.69793167643E+03  0.24775754411E+03  0.75615187826E+03  0.10614771753E+04  0.80471764982E+02 0.  0.
         11    1    3    3    0    0  0.37724990461E+03 -0.37383228543E+03  0.16668331315E+04  0.17494001133E+04  0.00000000000E+00 0. -1.
        -11    1    3    3    0    0  0.18485734032E+02 -0.18379919240E+02  0.17408530947E+03  0.17602624454E+03  0.00000000000E+00 0.  1.
          4    1    6    6  502    0 -0.70000372508E+03  0.24670627157E+03  0.75124717773E+03  0.10560499617E+04  0.00000000000E+00 0. -1.
          1    1    5    5  503    0  0.26149616272E+03  0.14983429053E+03  0.22876750533E+03  0.37837168133E+03  0.00000000000E+00 0. -1.
         -2    1    5    5    0  503  0.40699875058E+02 -0.53796299702E+01  0.50412887473E+02  0.65014455868E+02  0.00000000000E+00 0.  1.
         -3    1    6    6    0  502  0.20720486593E+01  0.10512725398E+01  0.49047005315E+01  0.54272135487E+01  0.00000000000E+00 0.  1.
<mgrwt>
<rscale>  0 0.18692429E+04</rscale>
<asrwt>0</asrwt>
<pdfrwt beam="1">  1        2 0.48511846E+00 0.18692429E+04</pdfrwt>
<pdfrwt beam="2">  1       -2 0.42618384E-01 0.18692429E+04</pdfrwt>
<totfact> 0.68440492E+00</totfact>
</mgrwt>
</event>
<event>
12    1  0.1536832E-007  0.2875671E+04  0.7818608E-02  0.8280153E-01
          1   -1    0    0  501    0  0.00000000000E+00  0.00000000000E+00  0.46422741932E+03  0.46422741932E+03  0.00000000000E+00 0. -1.
         -1   -1    0    0    0  501 -0.00000000000E+00 -0.00000000000E+00 -0.44533573981E+04  0.44533573981E+04  0.00000000000E+00 0.  1.
         23    2    1    2    0    0 -0.11200539662E+04  0.65064604728E+03 -0.15730006606E+04  0.20400621741E+04  0.98292572408E+02 0.  0.
        254    2    1    2    0    0  0.11200539662E+04 -0.65064604728E+03 -0.24161293182E+04  0.28775226433E+04  0.87441095289E+03 0.  0.
        -24    2    4    4    0    0  0.66914654072E+03 -0.54358683311E+03 -0.21916795433E+04  0.23563523405E+04  0.75454582382E+02 0.  0.
         24    2    4    4    0    0  0.45090742553E+03 -0.10705921417E+03 -0.22444977487E+03  0.52117030281E+03  0.80384086445E+02 0.  0.
         11    1    3    3    0    0 -0.11088350106E+03  0.44439389268E+02 -0.11168243952E+03  0.16353280228E+03  0.00000000000E+00 0.  1.
        -11    1    3    3    0    0 -0.10091704652E+04  0.60620665801E+03 -0.14613182211E+04  0.18765293718E+04  0.00000000000E+00 0. -1.
          2    1    6    6  502    0  0.36116993397E+02 -0.90719509626E+01 -0.45818310862E+02  0.59042824429E+02  0.00000000000E+00 0. -1.
          1    1    5    5  503    0  0.18821040310E+02 -0.34915625153E+02 -0.92744825811E+02  0.10087088357E+03  0.00000000000E+00 0. -1.
         -2    1    5    5    0  503  0.65032550041E+03 -0.50867120795E+03 -0.20989347175E+04  0.22554814569E+04  0.00000000000E+00 0.  1.
         -1    1    6    6    0  502  0.41479043213E+03 -0.97987263209E+02 -0.17863146401E+03  0.46212747838E+03  0.00000000000E+00 0.  1.
<mgrwt>
<rscale>  0 0.28756708E+04</rscale>
<asrwt>0</asrwt>
<pdfrwt beam="1">  1        1 0.71419602E-01 0.28756708E+04</pdfrwt>
<pdfrwt beam="2">  1       -1 0.68513192E+00 0.28756708E+04</pdfrwt>
<totfact> 0.93971413E-03</totfact>
</mgrwt>
</event>
<event>
12    1  0.1536832E-007  0.1875024E+04  0.7818608E-02  0.8667389E-01
          2   -1    0    0  501    0  0.00000000000E+00  0.00000000000E+00  0.50814551139E+03  0.50814551139E+03  0.00000000000E+00 0. -1.
         -2   -1    0    0    0  501 -0.00000000000E+00 -0.00000000000E+00 -0.17296798367E+04  0.17296798367E+04  0.00000000000E+00 0.  1.
         23    2    1    2    0    0  0.60280220414E+03 -0.29338989306E+03 -0.16744025512E+03  0.69737914015E+03  0.94091973141E+02 0.  0.
        254    2    1    2    0    0 -0.60280220414E+03  0.29338989306E+03 -0.10540940702E+04  0.15404462079E+04  0.90133905057E+03 0.  0.
        -24    2    4    4    0    0 -0.21032870523E+03  0.51252157217E+03 -0.89826658801E+03  0.10583860775E+04  0.79885540980E+02 0.  0.
         24    2    4    4    0    0 -0.39247349891E+03 -0.21913167911E+03 -0.15582748218E+03  0.48206013048E+03  0.77753617645E+02 0.  0.
         13    1    3    3    0    0  0.54944876298E+03 -0.26818085693E+03 -0.12336321457E+03  0.62372541866E+03  0.00000000000E+00 0. -1.
        -13    1    3    3    0    0  0.53353441155E+02 -0.25209036132E+02 -0.44077040547E+02  0.73653721488E+02  0.00000000000E+00 0.  1.
          4    1    6    6  502    0 -0.21153009426E+03 -0.10945037180E+03 -0.42161607626E+02  0.24187179625E+03  0.00000000000E+00 0. -1.
          1    1    5    5  503    0 -0.49539303623E+02  0.12017631781E+03 -0.27988382142E+03  0.30859592262E+03  0.00000000000E+00 0. -1.
         -2    1    5    5    0  503 -0.16078940161E+03  0.39234525436E+03 -0.61838276659E+03  0.74979015485E+03  0.00000000000E+00 0.  1.
         -3    1    6    6    0  502 -0.18094340465E+03 -0.10968130731E+03 -0.11366587455E+03  0.24018833422E+03  0.00000000000E+00 0.  1.
<mgrwt>
<rscale>  0 0.18750243E+04</rscale>
<asrwt>0</asrwt>
<pdfrwt beam="1">  1        2 0.78176231E-01 0.18750243E+04</pdfrwt>
<pdfrwt beam="2">  1       -2 0.26610459E+00 0.18750243E+04</pdfrwt>
<totfact> 0.29042301E+00</totfact>
</mgrwt>
</event>
<event>
12    1  0.1536832E-007  0.1323577E+04  0.7818608E-02  0.9011074E-01
          2   -1    0    0  501    0  0.00000000000E+00  0.00000000000E+00  0.16212503329E+04  0.16212503329E+04  0.00000000000E+00 0. -1.
         -2   -1    0    0    0  501 -0.00000000000E+00 -0.00000000000E+00 -0.27013972213E+03  0.27013972213E+03  0.00000000000E+00 0.  1.
         23    2    1    2    0    0 -0.32329497365E+03  0.75359174067E+02  0.40185400156E+03  0.52892713540E+03  0.89881204308E+02 0.  0.
        254    2    1    2    0    0  0.32329497365E+03 -0.75359174067E+02  0.94925660923E+03  0.13624629196E+04  0.91924885213E+03 0.  0.
        -24    2    4    4    0    0 -0.27660250298E+03 -0.91358370206E+02  0.57622444132E+03  0.65059739690E+03  0.79919144234E+02 0.  0.
         24    2    4    4    0    0  0.59989747663E+03  0.15999196139E+02  0.37303216791E+03  0.71186552274E+03  0.86409301754E+02 0.  0.
         11    1    3    3    0    0 -0.17119170547E+03  0.63720695964E+02  0.15919449518E+03  0.24230108215E+03  0.00000000000E+00 0. -1.
        -11    1    3    3    0    0 -0.15210326817E+03  0.11638478103E+02  0.24265950638E+03  0.28662605324E+03  0.00000000000E+00 0.  1.
          4    1    6    6  502    0  0.15913853488E+03  0.33143914082E+01  0.14562302989E+03  0.21573624014E+03  0.00000000000E+00 0. -1.
          1    1    5    5  503    0 -0.11467303934E+02  0.93487870017E+01  0.57802848524E+02  0.59666306869E+02  0.00000000000E+00 0. -1.
         -2    1    5    5    0  503 -0.26513519905E+03 -0.10070715721E+03  0.51842159280E+03  0.59093109004E+03  0.00000000000E+00 0.  1.
         -3    1    6    6    0  502  0.44075894175E+03  0.12684804731E+02  0.22740913802E+03  0.49612928260E+03  0.00000000000E+00 0.  1.
<mgrwt>
<rscale>  0 0.13235771E+04</rscale>
<asrwt>0</asrwt>
<pdfrwt beam="1">  1        2 0.24942312E+00 0.13235771E+04</pdfrwt>
<pdfrwt beam="2">  1       -2 0.41559958E-01 0.13235771E+04</pdfrwt>
<totfact> 0.58231337E+01</totfact>
</mgrwt>
</event>
<event>
12    1  0.1536832E-007  0.2176415E+04  0.7818608E-02  0.8528309E-01
          2   -1    0    0  501    0  0.00000000000E+00  0.00000000000E+00  0.14148983111E+04  0.14148983111E+04  0.00000000000E+00 0. -1.
         -2   -1    0    0    0  501 -0.00000000000E+00 -0.00000000000E+00 -0.83694761818E+03  0.83694761818E+03  0.00000000000E+00 0.  1.
         23    2    1    2    0    0 -0.23827212729E+02  0.34695107568E+03  0.10980229644E+04  0.11552900533E+04  0.89988286892E+02 0.  0.
        254    2    1    2    0    0  0.23827212729E+02 -0.34695107568E+03 -0.52007227148E+03  0.10965558760E+04  0.90056473212E+03 0.  0.
        -24    2    4    4    0    0  0.21941582275E+03 -0.46518150700E+02  0.18472418896E+03  0.30175273318E+03  0.81390689756E+02 0.  0.
         24    2    4    4    0    0 -0.19558861002E+03 -0.30043292498E+03 -0.70479646044E+03  0.79480314286E+03  0.80368765553E+02 0.  0.
         13    1    3    3    0    0  0.21929941516E+02  0.11395660998E+03  0.26972087896E+03  0.29362626558E+03  0.00000000000E+00 0.  1.
        -13    1    3    3    0    0 -0.45757154246E+02  0.23299446570E+03  0.82830208547E+03  0.86166378769E+03  0.00000000000E+00 0. -1.
          2    1    6    6  502    0 -0.36511803919E+02 -0.64914561978E+02 -0.85397693520E+02  0.11331274527E+03  0.00000000000E+00 0. -1.
          1    1    5    5  503    0  0.10658347346E+03 -0.63416536305E+02  0.10585419924E+03  0.16305460861E+03  0.00000000000E+00 0. -1.
         -2    1    5    5    0  503  0.11283234928E+03  0.16898385605E+02  0.78869989718E+02  0.13869812457E+03  0.00000000000E+00 0.  1.
         -1    1    6    6    0  502 -0.15907680610E+03 -0.23551836300E+03 -0.61939876692E+03  0.68149039759E+03  0.00000000000E+00 0.  1.
<mgrwt>
<rscale>  0 0.21764152E+04</rscale>
<asrwt>0</asrwt>
<pdfrwt beam="1">  1        2 0.21767666E+00 0.21764152E+04</pdfrwt>
<pdfrwt beam="2">  1       -2 0.12876117E+00 0.21764152E+04</pdfrwt>
<totfact> 0.57831496E+00</totfact>
</mgrwt>
</event>
<event>
12    1  0.1536832E-007  0.2327201E+04  0.7818608E-02  0.8467273E-01
          2   -1    0    0  501    0  0.00000000000E+00  0.00000000000E+00  0.19989997300E+04  0.19989997300E+04  0.00000000000E+00 0. -1.
         -2   -1    0    0    0  501 -0.00000000000E+00 -0.00000000000E+00 -0.67732201986E+03  0.67732201986E+03  0.00000000000E+00 0.  1.
         23    2    1    2    0    0 -0.23870448759E+03  0.32532837198E+03 -0.47269717795E+03  0.62860346972E+03  0.94240745394E+02 0.  0.
        254    2    1    2    0    0  0.23870448759E+03 -0.32532837198E+03  0.17943748881E+04  0.20477182802E+04  0.90030580018E+03 0.  0.
        -24    2    4    4    0    0 -0.32759119378E+03 -0.22938413674E+02  0.67462775352E+03  0.75456184286E+03  0.79992548495E+02 0.  0.
         24    2    4    4    0    0  0.56629568137E+03 -0.30238995830E+03  0.11197471346E+04  0.12931564373E+04  0.79305991653E+02 0.  0.
         13    1    3    3    0    0 -0.19746580873E+03  0.20046995978E+03 -0.34631180102E+03  0.44622058885E+03  0.00000000000E+00 0.  1.
        -13    1    3    3    0    0 -0.41238678857E+02  0.12485841220E+03 -0.12638537693E+03  0.18238288087E+03  0.00000000000E+00 0. -1.
          2    1    6    6  502    0  0.13509213318E+03 -0.10959261490E+03  0.32561772735E+03  0.36917113924E+03  0.00000000000E+00 0. -1.
          3    1    5    5  503    0 -0.51460968536E+02 -0.75449982126E+01  0.18559685639E+03  0.19274685830E+03  0.00000000000E+00 0. -1.
         -4    1    5    5    0  503 -0.27613022524E+03 -0.15393415462E+02  0.48903089713E+03  0.56181498456E+03  0.00000000000E+00 0.  1.
         -1    1    6    6    0  502  0.43120354819E+03 -0.19279734341E+03  0.79412940723E+03  0.92398529805E+03  0.00000000000E+00 0.  1.
<mgrwt>
<rscale>  0 0.23272014E+04</rscale>
<asrwt>0</asrwt>
<pdfrwt beam="1">  1        2 0.30753842E+00 0.23272014E+04</pdfrwt>
<pdfrwt beam="2">  1       -2 0.10420339E+00 0.23272014E+04</pdfrwt>
<totfact> 0.45302748E+00</totfact>
</mgrwt>
</event>
<event>
12    1  0.1536832E-007  0.2199533E+04  0.7818608E-02  0.8518622E-01
          1   -1    0    0  501    0  0.00000000000E+00  0.00000000000E+00  0.37567684472E+04  0.37567684472E+04  0.00000000000E+00 0. -1.
         -1   -1    0    0    0  501 -0.00000000000E+00 -0.00000000000E+00 -0.32194861100E+03  0.32194861100E+03  0.00000000000E+00 0.  1.
         23    2    1    2    0    0 -0.51737475199E+03  0.54679879240E+03  0.23606053227E+04  0.24794075354E+04  0.91316392246E+02 0.  0.
        254    2    1    2    0    0  0.51737475199E+03 -0.54679879240E+03  0.10742145134E+04  0.15993095228E+04  0.91498009564E+03 0.  0.
        -24    2    4    4    0    0  0.53409105153E+03 -0.15411879911E+03  0.10578477864E+04  0.11977807317E+04  0.81430255344E+02 0.  0.
         24    2    4    4    0    0 -0.16716299540E+02 -0.39267999329E+03  0.16366727004E+02  0.40152879105E+03  0.80501481272E+02 0.  0.
         11    1    3    3    0    0 -0.24760285453E+03  0.21345872181E+03  0.11228832111E+04  0.11695035294E+04  0.00000000000E+00 0. -1.
        -11    1    3    3    0    0 -0.26977189746E+03  0.33334007058E+03  0.12377221116E+04  0.13099040060E+04  0.00000000000E+00 0.  1.
          2    1    6    6  502    0 -0.12091930930E+02 -0.84904753053E+02  0.36182328772E+02  0.93081645881E+02  0.00000000000E+00 0. -1.
          1    1    5    5  503    0  0.55274812765E+01 -0.13607048235E+02  0.33243173820E+02  0.36342996802E+02  0.00000000000E+00 0. -1.
         -2    1    5    5    0  503  0.52856357025E+03 -0.14051175087E+03  0.10246046126E+04  0.11614377349E+04  0.00000000000E+00 0.  1.
         -1    1    6    6    0  502 -0.46243686096E+01 -0.30777524024E+03 -0.19815601768E+02  0.30844714517E+03  0.00000000000E+00 0.  1.
<mgrwt>
<rscale>  0 0.21995330E+04</rscale>
<asrwt>0</asrwt>
<pdfrwt beam="1">  1        1 0.57796435E+00 0.21995330E+04</pdfrwt>
<pdfrwt beam="2">  1       -1 0.49530558E-01 0.21995330E+04</pdfrwt>
<totfact> 0.57941938E-01</totfact>
</mgrwt>
</event>
<event>
12    1  0.1536832E-007  0.1271259E+04  0.7818608E-02  0.9052673E-01
          2   -1    0    0  501    0  0.00000000000E+00  0.00000000000E+00  0.54018899193E+03  0.54018899193E+03  0.00000000000E+00 0. -1.
         -2   -1    0    0    0  501 -0.00000000000E+00 -0.00000000000E+00 -0.74793205740E+03  0.74793205740E+03  0.00000000000E+00 0.  1.
         23    2    1    2    0    0 -0.27426782248E+02  0.24769340875E+03 -0.20256747809E+03  0.33384831875E+03  0.91196840029E+02 0.  0.
        254    2    1    2    0    0  0.27426782248E+02 -0.24769340875E+03 -0.51755873845E+01  0.95427273058E+03  0.92114353089E+03 0.  0.
        -24    2    4    4    0    0 -0.42157058304E+03 -0.98403950779E+02 -0.12900192036E+03  0.45851265214E+03  0.78659155198E+02 0.  0.
         24    2    4    4    0    0  0.44899736529E+03 -0.14928945797E+03  0.12382633298E+03  0.49576007844E+03  0.80988383974E+02 0.  0.
         13    1    3    3    0    0 -0.50641974280E+02  0.23171964951E+03 -0.18132670204E+03  0.29855984057E+03  0.00000000000E+00 0.  1.
        -13    1    3    3    0    0  0.23215192032E+02  0.15973759245E+02 -0.21240776045E+02  0.35288478183E+02  0.00000000000E+00 0. -1.
          4    1    6    6  502    0  0.37637396681E+03 -0.11534073876E+03  0.13196513363E+03  0.41518146081E+03  0.00000000000E+00 0. -1.
          1    1    5    5  503    0 -0.38481740004E+03 -0.68072364993E+02 -0.10260598666E+03  0.40403745711E+03  0.00000000000E+00 0. -1.
         -2    1    5    5    0  503 -0.36753183003E+02 -0.30331585786E+02 -0.26395933707E+02  0.54475195029E+02  0.00000000000E+00 0.  1.
         -3    1    6    6    0  502  0.72623398483E+02 -0.33948719211E+02 -0.81388006482E+01  0.80578617631E+02  0.00000000000E+00 0.  1.
<mgrwt>
<rscale>  0 0.12712587E+04</rscale>
<asrwt>0</asrwt>
<pdfrwt beam="1">  1        2 0.83105999E-01 0.12712587E+04</pdfrwt>
<pdfrwt beam="2">  1       -2 0.11506647E+00 0.12712587E+04</pdfrwt>
<totfact> 0.32516870E+01</totfact>
</mgrwt>
</event>
<event>
12    1  0.1536832E-007  0.1521739E+04  0.7818608E-02  0.8870124E-01
          2   -1    0    0  501    0  0.00000000000E+00  0.00000000000E+00  0.98605928737E+03  0.98605928737E+03  0.00000000000E+00 0. -1.
         -2   -1    0    0    0  501 -0.00000000000E+00 -0.00000000000E+00 -0.58710698724E+03  0.58710698724E+03  0.00000000000E+00 0.  1.
         23    2    1    2    0    0  0.15694636845E+03  0.36771405547E+03 -0.15971805417E+03  0.43958061595E+03  0.88743855753E+02 0.  0.
        254    2    1    2    0    0 -0.15694636845E+03 -0.36771405547E+03  0.55867035429E+03  0.11335856587E+04  0.90169733924E+03 0.  0.
        -24    2    4    4    0    0  0.92959894070E+02  0.72607082258E+02 -0.18323687544E+03  0.23185084707E+03  0.79156379833E+02 0.  0.
         24    2    4    4    0    0 -0.24990626252E+03 -0.44032113773E+03  0.74190722973E+03  0.90173481159E+03  0.79771476845E+02 0.  0.
         11    1    3    3    0    0  0.15299453443E+03  0.29974645108E+03 -0.15723218897E+03  0.37145285535E+03  0.00000000000E+00 0.  1.
        -11    1    3    3    0    0  0.39518340199E+01  0.67967604393E+02 -0.24858651989E+01  0.68127760603E+02  0.00000000000E+00 0. -1.
          4    1    6    6  502    0 -0.95640947185E+02 -0.23113394827E+03  0.31958042917E+03  0.40583462584E+03  0.00000000000E+00 0. -1.
          3    1    5    5  503    0  0.68223113389E+02  0.18742254154E+02 -0.51860506711E+02  0.87722160528E+02  0.00000000000E+00 0. -1.
         -4    1    5    5    0  503  0.24736780681E+02  0.53864828104E+02 -0.13137636873E+03  0.14412868655E+03  0.00000000000E+00 0.  1.
         -3    1    6    6    0  502 -0.15426531534E+03 -0.20918718945E+03  0.42232680057E+03  0.49590018575E+03  0.00000000000E+00 0.  1.
<mgrwt>
<rscale>  0 0.15217389E+04</rscale>
<asrwt>0</asrwt>
<pdfrwt beam="1">  1        2 0.15170143E+00 0.15217389E+04</pdfrwt>
<pdfrwt beam="2">  1       -2 0.90324151E-01 0.15217389E+04</pdfrwt>
<totfact> 0.26004784E+01</totfact>
</mgrwt>
</event>
<event>
12    1  0.1536832E-007  0.1726238E+04  0.7818608E-02  0.8746540E-01
          1   -1    0    0  501    0  0.00000000000E+00  0.00000000000E+00  0.22642803233E+04  0.22642803233E+04  0.00000000000E+00 0. -1.
         -1   -1    0    0    0  501 -0.00000000000E+00 -0.00000000000E+00 -0.32901142608E+03  0.32901142608E+03  0.00000000000E+00 0.  1.
         23    2    1    2    0    0 -0.37013747758E+02 -0.38089330442E+03  0.14445856016E+04  0.14970456701E+04  0.88704289791E+02 0.  0.
        254    2    1    2    0    0  0.37013747758E+02  0.38089330442E+03  0.49068329563E+03  0.10962460793E+04  0.90251628405E+03 0.  0.
        -24    2    4    4    0    0 -0.49734075172E+02  0.57456154260E+03  0.60744631601E+03  0.84139892510E+03  0.79791477387E+02 0.  0.
         24    2    4    4    0    0  0.86747822930E+02 -0.19366823817E+03 -0.11676302038E+03  0.25484715423E+03  0.79252115627E+02 0.  0.
         11    1    3    3    0    0  0.19658697871E+02 -0.22987453290E+02  0.98559208343E+02  0.10309609575E+03  0.00000000000E+00 0.  1.
        -11    1    3    3    0    0 -0.56672445629E+02 -0.35790585113E+03  0.13460263933E+04  0.13939495743E+04  0.00000000000E+00 0. -1.
          4    1    6    6  502    0 -0.86628174857E+01 -0.52462909655E-01  0.13954362685E+01  0.87746453789E+01  0.00000000000E+00 0. -1.
          1    1    5    5  503    0  0.89901942691E+01  0.24070602562E+03  0.21553664440E+03  0.32322787541E+03  0.00000000000E+00 0. -1.
         -2    1    5    5    0  503 -0.58724269441E+02  0.33385551698E+03  0.39190967162E+03  0.51817104970E+03  0.00000000000E+00 0.  1.
         -3    1    6    6    0  502  0.95410640415E+02 -0.19361577526E+03 -0.11815845665E+03  0.24607250885E+03  0.00000000000E+00 0.  1.
<mgrwt>
<rscale>  0 0.17262376E+04</rscale>
<asrwt>0</asrwt>
<pdfrwt beam="1">  1        1 0.34835081E+00 0.17262376E+04</pdfrwt>
<pdfrwt beam="2">  1       -1 0.50617144E-01 0.17262376E+04</pdfrwt>
<totfact> 0.73359756E+00</totfact>
</mgrwt>
</event>
<event>
12    1  0.1536832E-007  0.1046202E+04  0.7818608E-02  0.9259274E-01
          2   -1    0    0  501    0  0.00000000000E+00  0.00000000000E+00  0.35783660497E+04  0.35783660497E+04  0.00000000000E+00 0.  1.
         -2   -1    0    0    0  501 -0.00000000000E+00 -0.00000000000E+00 -0.76469123509E+02  0.76469123509E+02  0.00000000000E+00 0. -1.
         23    2    1    2    0    0 -0.87145100053E+02  0.13908135196E+01  0.31364047134E+03  0.33834573143E+03  0.92256630574E+02 0.  0.
        254    2    1    2    0    0  0.87145100053E+02 -0.13908135196E+01  0.31882564548E+04  0.33164894417E+04  0.90913518947E+03 0.  0.
        -24    2    4    4    0    0  0.27462960076E+03 -0.48875684736E+02  0.30543027227E+04  0.30680526635E+04  0.79823393390E+02 0.  0.
         24    2    4    4    0    0 -0.18748450070E+03  0.47484871217E+02  0.13395373211E+03  0.24843677821E+03  0.79824679290E+02 0.  0.
         11    1    3    3    0    0 -0.91497312742E+02 -0.11050081389E+02  0.16396787337E+03  0.18809392875E+03  0.00000000000E+00 0. -1.
        -11    1    3    3    0    0  0.43522126886E+01  0.12440894909E+02  0.14967259798E+03  0.15025180267E+03  0.00000000000E+00 0.  1.
          4    1    6    6  502    0 -0.13569602856E+02  0.26418086758E+02  0.39469950593E+02  0.49395611439E+02  0.00000000000E+00 0. -1.
          1    1    5    5  503    0 -0.41564185041E+00 -0.39544485207E+01  0.71426028053E+01  0.81747902778E+01  0.00000000000E+00 0. -1.
         -2    1    5    5    0  503  0.27504524261E+03 -0.44921236216E+02  0.30471601199E+04  0.30598778732E+04  0.00000000000E+00 0.  1.
         -3    1    6    6    0  502 -0.17391489785E+03  0.21066784459E+02  0.94483781515E+02  0.19904116677E+03  0.00000000000E+00 0.  1.
<mgrwt>
<rscale>  0 0.10462017E+04</rscale>
<asrwt>0</asrwt>
<pdfrwt beam="1">  1        2 0.55051772E+00 0.10462017E+04</pdfrwt>
<pdfrwt beam="2">  1       -2 0.11764483E-01 0.10462017E+04</pdfrwt>
<totfact> 0.39019795E+01</totfact>
</mgrwt>
</event>
<event>
12    1  0.1536832E-007  0.1371689E+04  0.7818608E-02  0.8974570E-01
          1   -1    0    0  501    0  0.00000000000E+00  0.00000000000E+00  0.54443934625E+03  0.54443934625E+03  0.00000000000E+00 0. -1.
         -1   -1    0    0    0  501 -0.00000000000E+00 -0.00000000000E+00 -0.86397688651E+03  0.86397688651E+03  0.00000000000E+00 0.  1.
         23    2    1    2    0    0 -0.14115238087E+03  0.22743363484E+02  0.27574532856E+03  0.32592322843E+03  0.98738084855E+02 0.  0.
        254    2    1    2    0    0  0.14115238087E+03 -0.22743363484E+02 -0.59528286882E+03  0.10824930043E+04  0.89274193096E+03 0.  0.
        -24    2    4    4    0    0 -0.27313217429E+03  0.25353997663E+02 -0.59253160131E+03  0.65784042076E+03  0.80101877665E+02 0.  0.
         24    2    4    4    0    0  0.41428455517E+03 -0.48097361147E+02 -0.27512675119E+01  0.42465258357E+03  0.79857363220E+02 0.  0.
         13    1    3    3    0    0 -0.63697640745E+02 -0.15782885044E+02  0.20152317993E+03  0.21193886134E+03  0.00000000000E+00 0.  1.
        -13    1    3    3    0    0 -0.77454740130E+02  0.38526248528E+02  0.74222148623E+02  0.11398436709E+03  0.00000000000E+00 0. -1.
          4    1    6    6  502    0  0.17974677646E+03  0.15451604860E+02  0.14858964495E+02  0.18102056393E+03  0.00000000000E+00 0. -1.
          3    1    5    5  503    0 -0.74036506095E+00 -0.58137706112E+01 -0.11169808604E+01  0.59662144938E+01  0.00000000000E+00 0. -1.
         -4    1    5    5    0  503 -0.27239180923E+03  0.31167768274E+02 -0.59141462044E+03  0.65187420626E+03  0.00000000000E+00 0.  1.
         -3    1    6    6    0  502  0.23453777871E+03 -0.63548966007E+02 -0.17610232007E+02  0.24363201964E+03  0.00000000000E+00 0.  1.
<mgrwt>
<rscale>  0 0.13716895E+04</rscale>
<asrwt>0</asrwt>
<pdfrwt beam="1">  1        1 0.83759899E-01 0.13716895E+04</pdfrwt>
<pdfrwt beam="2">  1       -1 0.13291952E+00 0.13716895E+04</pdfrwt>
<totfact> 0.18436796E+01</totfact>
</mgrwt>
</event>
<event>
12    1  0.1536832E-007  0.1297931E+04  0.7818608E-02  0.9031208E-01
          2   -1    0    0  501    0  0.00000000000E+00  0.00000000000E+00  0.24897219247E+04  0.24897219247E+04  0.00000000000E+00 0. -1.
         -2   -1    0    0    0  501 -0.00000000000E+00 -0.00000000000E+00 -0.16915788889E+03  0.16915788889E+03  0.00000000000E+00 0.  1.
         23    2    1    2    0    0  0.27375017177E+03  0.23801910825E+03  0.68928965676E+03  0.78429985406E+03  0.91726646804E+02 0.  0.
        254    2    1    2    0    0 -0.27375017177E+03 -0.23801910825E+03  0.16312743790E+04  0.18745799595E+04  0.84935367927E+03 0.  0.
        -24    2    4    4    0    0  0.94880008330E+02 -0.29872335388E+03  0.13798055886E+04  0.14171985180E+04  0.79688887778E+02 0.  0.
         24    2    4    4    0    0 -0.36863018010E+03  0.60704245629E+02  0.25146879043E+03  0.45738144155E+03  0.79925061137E+02 0.  0.
         11    1    3    3    0    0 -0.68324135429E+01  0.11326482056E+02  0.19677505839E+02  0.23710236325E+02  0.00000000000E+00 0. -1.
        -11    1    3    3    0    0  0.28058258531E+03  0.22669262620E+03  0.66961215092E+03  0.76058961774E+03  0.00000000000E+00 0.  1.
          2    1    6    6  502    0 -0.15160233795E+03 -0.23387999201E+01  0.67481290831E+02  0.16595922231E+03  0.00000000000E+00 0. -1.
          3    1    5    5  503    0  0.47238609877E+02 -0.13525307157E+03  0.80712328915E+03  0.81973952175E+03  0.00000000000E+00 0. -1.
         -4    1    5    5    0  503  0.47641398453E+02 -0.16347028231E+03  0.57268229945E+03  0.59745899621E+03  0.00000000000E+00 0.  1.
         -1    1    6    6    0  502 -0.21702784215E+03  0.63043045549E+02  0.18398749960E+03  0.29142221925E+03  0.00000000000E+00 0.  1.
<mgrwt>
<rscale>  0 0.12979308E+04</rscale>
<asrwt>0</asrwt>
<pdfrwt beam="1">  1        2 0.38303412E+00 0.12979308E+04</pdfrwt>
<pdfrwt beam="2">  1       -2 0.26024292E-01 0.12979308E+04</pdfrwt>
<totfact> 0.46350983E+01</totfact>
</mgrwt>
</event>
<event>
12    1  0.1536832E-007  0.1765927E+04  0.7818608E-02  0.8724632E-01
         -1   -1    0    0    0  501 -0.00000000000E+00  0.00000000000E+00  0.57709940207E+03  0.57709940207E+03  0.00000000000E+00 0.  1.
          1   -1    0    0  501    0  0.00000000000E+00 -0.00000000000E+00 -0.13509360842E+04  0.13509360842E+04  0.00000000000E+00 0. -1.
         23    2    1    2    0    0  0.72869359039E+01 -0.37360351096E+03 -0.86111663619E+03  0.94524145200E+03  0.11102638709E+03 0.  0.
        254    2    1    2    0    0 -0.72869359039E+01  0.37360351096E+03  0.87279954068E+02  0.98279403427E+03  0.90478375349E+03 0.  0.
        -24    2    4    4    0    0  0.85100241493E+02  0.65594384053E+03  0.10601744874E+03  0.67467532643E+03  0.80266578500E+02 0.  0.
         24    2    4    4    0    0 -0.92387177397E+02 -0.28234032958E+03 -0.18737494669E+02  0.30811870783E+03  0.79590151132E+02 0.  0.
         13    1    3    3    0    0 -0.40150010612E+01 -0.22243941706E+02 -0.15305117118E+03  0.15471126066E+03  0.00000000000E+00 0.  1.
        -13    1    3    3    0    0  0.11301936965E+02 -0.35135956925E+03 -0.70806546501E+03  0.79053019134E+03  0.00000000000E+00 0. -1.
          4    1    6    6  502    0 -0.52358637783E+02 -0.11344878170E+03  0.28660537407E+02  0.12819313330E+03  0.00000000000E+00 0. -1.
          1    1    5    5  503    0  0.17212579870E+02  0.30519962673E+03  0.15217078562E+02  0.30606313816E+03  0.00000000000E+00 0. -1.
         -4    1    5    5    0  503  0.67887661623E+02  0.35074421380E+03  0.90800370175E+02  0.36861218827E+03  0.00000000000E+00 0.  1.
         -3    1    6    6    0  502 -0.40028539613E+02 -0.16889154787E+03 -0.47398032076E+02  0.17992557453E+03  0.00000000000E+00 0.  1.
<mgrwt>
<rscale>  0 0.17659268E+04</rscale>
<asrwt>0</asrwt>
<pdfrwt beam="1">  1        1 0.20783632E+00 0.17659268E+04</pdfrwt>
<pdfrwt beam="2">  1       -1 0.88784525E-01 0.17659268E+04</pdfrwt>
<totfact> 0.98014618E+00</totfact>
</mgrwt>
</event>
<event>
12    1  0.1544393E-007  0.2465767E+04  0.7818608E-02  0.8415284E-01
          1   -1    0    0  501    0  0.00000000000E+00  0.00000000000E+00  0.13652410197E+04  0.13652410197E+04  0.00000000000E+00 0. -1.
         -1   -1    0    0    0  501 -0.00000000000E+00 -0.00000000000E+00 -0.11133574330E+04  0.11133574330E+04  0.00000000000E+00 0.  1.
         23    2    1    2    0    0 -0.28843587560E+03  0.89182478341E+03 -0.39751737439E+03  0.10222682072E+04  0.92008292250E+02 0.  0.
        254    2    1    2    0    0  0.28843587560E+03 -0.89182478341E+03  0.64940096109E+03  0.14563302456E+04  0.90588601782E+03 0.  0.
        -24    2    4    4    0    0  0.62095191038E+02 -0.79798393429E+03  0.81869316498E+03  0.11481872283E+04  0.86262626297E+02 0.  0.
         24    2    4    4    0    0  0.22634068456E+03 -0.93840849115E+02 -0.16929220389E+03  0.30814301728E+03  0.79095248601E+02 0.  0.
         11    1    3    3    0    0 -0.29341935976E+02  0.11438383404E+03 -0.83768301701E+02  0.14478169452E+03  0.00000000000E+00 0. -1.
        -11    1    3    3    0    0 -0.25909393962E+03  0.77744094937E+03 -0.31374907269E+03  0.87748651267E+03  0.00000000000E+00 0.  1.
          4    1    6    6  502    0  0.83822042702E+01 -0.15736320062E+02 -0.38007301722E+02  0.41981520955E+02  0.00000000000E+00 0. -1.
          3    1    5    5  503    0  0.25163342169E+02 -0.59470823891E+02  0.82375823855E+02  0.10466971405E+03  0.00000000000E+00 0. -1.
         -4    1    5    5    0  503  0.36931848869E+02 -0.73851311040E+03  0.73631734112E+03  0.10435175142E+04  0.00000000000E+00 0.  1.
         -3    1    6    6    0  502  0.21795848029E+03 -0.78104529053E+02 -0.13128490217E+03  0.26616149633E+03  0.00000000000E+00 0.  1.
<mgrwt>
<rscale>  0 0.24657666E+04</rscale>
<asrwt>0</asrwt>
<pdfrwt beam="1">  1        1 0.21003708E+00 0.24657666E+04</pdfrwt>
<pdfrwt beam="2">  1       -1 0.17128576E+00 0.24657666E+04</pdfrwt>
<totfact> 0.17440501E+00</totfact>
</mgrwt>
</event>
<event>
12    1  0.1536832E-007  0.2542116E+04  0.7818608E-02  0.8388133E-01
          1   -1    0    0  501    0  0.00000000000E+00  0.00000000000E+00  0.14558065066E+04  0.14558065066E+04  0.00000000000E+00 0. -1.
         -1   -1    0    0    0  501 -0.00000000000E+00 -0.00000000000E+00 -0.11097544970E+04  0.11097544970E+04  0.00000000000E+00 0.  1.
         23    2    1    2    0    0 -0.95363318720E+03  0.14352319972E+03 -0.39519114767E+03  0.10470512561E+04  0.10062368022E+03 0.  0.
        254    2    1    2    0    0  0.95363318720E+03 -0.14352319972E+03  0.74124315730E+03  0.15185097476E+04  0.90907385320E+03 0.  0.
        -24    2    4    4    0    0  0.42892293130E+03 -0.51481111149E+03  0.42494589813E+03  0.79761202585E+03  0.81243867027E+02 0.  0.
         24    2    4    4    0    0  0.52471025590E+03  0.37128791178E+03  0.31629725918E+03  0.72089772171E+03  0.80461188913E+02 0.  0.
         13    1    3    3    0    0 -0.35738596169E+02 -0.12039749741E+02 -0.24560378730E+02  0.45004611245E+02  0.00000000000E+00 0. -1.
        -13    1    3    3    0    0 -0.91789459103E+03  0.15556294946E+03 -0.37063076894E+03  0.10020466448E+04  0.00000000000E+00 0.  1.
          2    1    6    6  502    0  0.25396630789E+03  0.15864781759E+03  0.10691880024E+03  0.31796170432E+03  0.00000000000E+00 0. -1.
          3    1    5    5  503    0  0.56629633238E+02 -0.47794847889E+02  0.74796652239E+02  0.10528913539E+03  0.00000000000E+00 0. -1.
         -4    1    5    5    0  503  0.37229329807E+03 -0.46701626360E+03  0.35014924589E+03  0.69232289045E+03  0.00000000000E+00 0.  1.
         -1    1    6    6    0  502  0.27074394800E+03  0.21264009419E+03  0.20937845894E+03  0.40293601738E+03  0.00000000000E+00 0.  1.
<mgrwt>
<rscale>  0 0.25421155E+04</rscale>
<asrwt>0</asrwt>
<pdfrwt beam="1">  1        1 0.22397023E+00 0.25421155E+04</pdfrwt>
<pdfrwt beam="2">  1       -1 0.17073146E+00 0.25421155E+04</pdfrwt>
<totfact> 0.15106319E+00</totfact>
</mgrwt>
</event>
<event>
12    1  0.1536832E-007  0.1664968E+04  0.7818608E-02  0.8781601E-01
          2   -1    0    0  501    0  0.00000000000E+00  0.00000000000E+00  0.60537065549E+03  0.60537065549E+03  0.00000000000E+00 0. -1.
         -2   -1    0    0    0  501 -0.00000000000E+00 -0.00000000000E+00 -0.11448018367E+04  0.11448018367E+04  0.00000000000E+00 0.  1.
         23    2    1    2    0    0  0.45883447881E+03  0.10153268427E+03 -0.57048223765E+03  0.74444367638E+03  0.88929404049E+02 0.  0.
        254    2    1    2    0    0 -0.45883447881E+03 -0.10153268427E+03  0.31051056475E+02  0.10057288158E+04  0.88864408953E+03 0.  0.
        -24    2    4    4    0    0  0.20393085293E+03  0.15039800630E+03 -0.94165744567E+02  0.28137990886E+03  0.78103217492E+02 0.  0.
         24    2    4    4    0    0 -0.66276533175E+03 -0.25193069057E+03  0.12521680104E+03  0.72434890692E+03  0.79215742594E+02 0.  0.
         13    1    3    3    0    0  0.16328342782E+03  0.78853813295E+02 -0.23364287649E+03  0.29575056281E+03  0.00000000000E+00 0. -1.
        -13    1    3    3    0    0  0.29555105100E+03  0.22678870973E+02 -0.33683936116E+03  0.44869311357E+03  0.00000000000E+00 0.  1.
          2    1    6    6  502    0 -0.41248697793E+03 -0.11674611785E+03  0.85540293389E+02  0.43714105823E+03  0.00000000000E+00 0. -1.
          1    1    5    5  503    0  0.14886483861E+03  0.63482412494E+02 -0.65330604138E+02  0.17452462493E+03  0.00000000000E+00 0. -1.
         -2    1    5    5    0  503  0.55066014328E+02  0.86915593804E+02 -0.28835140428E+02  0.10685528393E+03  0.00000000000E+00 0.  1.
         -1    1    6    6    0  502 -0.25027835381E+03 -0.13518457272E+03  0.39676507653E+02  0.28720784869E+03  0.00000000000E+00 0.  1.
<mgrwt>
<rscale>  0 0.16649678E+04</rscale>
<asrwt>0</asrwt>
<pdfrwt beam="1">  1        2 0.93133947E-01 0.16649678E+04</pdfrwt>
<pdfrwt beam="2">  1       -2 0.17612336E+00 0.16649678E+04</pdfrwt>
<totfact> 0.90243003E+00</totfact>
</mgrwt>
</event>
<event>
12    1  0.1536832E-007  0.1531487E+04  0.7818608E-02  0.8863781E-01
          2   -1    0    0  501    0  0.00000000000E+00  0.00000000000E+00  0.14869063378E+04  0.14869063378E+04  0.00000000000E+00 0. -1.
         -2   -1    0    0    0  501 -0.00000000000E+00 -0.00000000000E+00 -0.39435083063E+03  0.39435083063E+03  0.00000000000E+00 0.  1.
         23    2    1    2    0    0  0.43478799369E+03 -0.24037239723E+03  0.39054785251E+03  0.63837333598E+03  0.90406870231E+02 0.  0.
        254    2    1    2    0    0 -0.43478799369E+03  0.24037239723E+03  0.70200765466E+03  0.12428838325E+04  0.89728812818E+03 0.  0.
        -24    2    4    4    0    0 -0.23443899270E+03  0.45055351191E+03  0.77695750455E+03  0.93161238474E+03  0.79237384633E+02 0.  0.
         24    2    4    4    0    0 -0.20034900099E+03 -0.21018111468E+03 -0.74949849894E+02  0.31127144772E+03  0.83406300704E+02 0.  0.
         11    1    3    3    0    0  0.28748736672E+03 -0.16878193594E+03  0.20713351112E+03  0.39248008785E+03  0.00000000000E+00 0. -1.
        -11    1    3    3    0    0  0.14730062697E+03 -0.71590461284E+02  0.18341434139E+03  0.24589324814E+03  0.00000000000E+00 0.  1.
          4    1    6    6  502    0 -0.15548278178E+02  0.11575988841E+01  0.93090843904E+01  0.18158965876E+02  0.00000000000E+00 0. -1.
          1    1    5    5  503    0 -0.27406409309E+02  0.55261072571E+02  0.53734429319E+02  0.81806395270E+02  0.00000000000E+00 0. -1.
         -4    1    5    5    0  503 -0.20703258339E+03  0.39529243934E+03  0.72322307523E+03  0.84980598947E+03  0.00000000000E+00 0.  1.
         -3    1    6    6    0  502 -0.18480072282E+03 -0.21133871357E+03 -0.84258934284E+02  0.29311248184E+03  0.00000000000E+00 0.  1.
<mgrwt>
<rscale>  0 0.15314865E+04</rscale>
<asrwt>0</asrwt>
<pdfrwt beam="1">  1        2 0.22875482E+00 0.15314865E+04</pdfrwt>
<pdfrwt beam="2">  1       -2 0.60669359E-01 0.15314865E+04</pdfrwt>
<totfact> 0.31481843E+01</totfact>
</mgrwt>
</event>
<event>
12    1  0.1536832E-007  0.1190428E+04  0.7818608E-02  0.9121276E-01
         -2   -1    0    0    0  501 -0.00000000000E+00  0.00000000000E+00  0.10279931945E+03  0.10279931945E+03  0.00000000000E+00 0.  1.
          2   -1    0    0  501    0  0.00000000000E+00 -0.00000000000E+00 -0.34463254841E+04  0.34463254841E+04  0.00000000000E+00 0. -1.
         23    2    1    2    0    0 -0.19406836392E+03  0.11702971261E+03 -0.98325490986E+03  0.10134396484E+04  0.94399257232E+02 0.  0.
        254    2    1    2    0    0  0.19406836392E+03 -0.11702971261E+03 -0.23602712548E+04  0.25356851551E+04  0.89858796238E+03 0.  0.
        -24    2    4    4    0    0  0.45842769009E+03 -0.34681949833E+02 -0.20893864278E+04  0.21408906990E+04  0.80737573916E+02 0.  0.
         24    2    4    4    0    0 -0.26435932617E+03 -0.82347762781E+02 -0.27088482700E+03  0.39479445608E+03  0.76269690491E+02 0.  0.
         13    1    3    3    0    0 -0.35209336169E+02  0.29917138063E+02 -0.40087677903E+03  0.40353057439E+03  0.00000000000E+00 0.  1.
        -13    1    3    3    0    0 -0.15885902775E+03  0.87112574551E+02 -0.58237813083E+03  0.60990907405E+03  0.00000000000E+00 0. -1.
          4    1    6    6  502    0 -0.24400443039E+03 -0.53722814547E+02 -0.25221576124E+03  0.35501703209E+03  0.00000000000E+00 0. -1.
          1    1    5    5  503    0  0.31114347835E+03  0.38639982802E+01 -0.12772502597E+04  0.13146077059E+04  0.00000000000E+00 0. -1.
         -2    1    5    5    0  503  0.14728421174E+03 -0.38545948113E+02 -0.81213616809E+03  0.82628299309E+03  0.00000000000E+00 0.  1.
         -3    1    6    6    0  502 -0.20354895782E+02 -0.28624948234E+02 -0.18669065759E+02  0.39777423999E+02  0.00000000000E+00 0.  1.
<mgrwt>
<rscale>  0 0.11904284E+04</rscale>
<asrwt>0</asrwt>
<pdfrwt beam="1">  1        2 0.53020396E+00 0.11904284E+04</pdfrwt>
<pdfrwt beam="2">  1       -2 0.15815279E-01 0.11904284E+04</pdfrwt>
<totfact> 0.28783382E+01</totfact>
</mgrwt>
</event>
<event>
12    1  0.1536832E-007  0.3270140E+04  0.7818608E-02  0.8170535E-01
          2   -1    0    0  501    0  0.00000000000E+00  0.00000000000E+00  0.22426072619E+04  0.22426072619E+04  0.00000000000E+00 0.  1.
         -2   -1    0    0    0  501 -0.00000000000E+00 -0.00000000000E+00 -0.11921183076E+04  0.11921183076E+04  0.00000000000E+00 0. -1.
         23    2    1    2    0    0 -0.64004458163E+03  0.43299419218E+03 -0.87452309211E+03  0.11706343009E+04  0.91940147801E+02 0.  0.
        254    2    1    2    0    0  0.64004458163E+03 -0.43299419218E+03  0.19250120463E+04  0.22640912687E+04  0.90735707270E+03 0.  0.
        -24    2    4    4    0    0  0.65078364119E+03  0.66673076634E+02  0.13205269988E+04  0.14758085243E+04  0.79086022667E+02 0.  0.
         24    2    4    4    0    0 -0.10739059566E+02 -0.49966726882E+03  0.60448504754E+03  0.78828274440E+03  0.78770587663E+02 0.  0.
         13    1    3    3    0    0 -0.15922155300E+02  0.16118584477E+02 -0.74655082001E+01  0.23854928372E+02  0.00000000000E+00 0.  1.
        -13    1    3    3    0    0 -0.62412242632E+03  0.41687560771E+03 -0.86705758391E+03  0.11467793725E+04  0.00000000000E+00 0. -1.
          4    1    6    6  502    0  0.31663124326E+02 -0.12847498164E+03  0.16166267888E+03  0.20890954045E+03  0.00000000000E+00 0. -1.
          3    1    5    5  503    0  0.25400494333E+03  0.59106057653E+02  0.56972765857E+03  0.62657931838E+03  0.00000000000E+00 0. -1.
         -4    1    5    5    0  503  0.39677869786E+03  0.75670189816E+01  0.75079934024E+03  0.84922920590E+03  0.00000000000E+00 0.  1.
         -3    1    6    6    0  502 -0.42402183891E+02 -0.37119228718E+03  0.44282236866E+03  0.57937320394E+03  0.00000000000E+00 0.  1.
<mgrwt>
<rscale>  0 0.32701396E+04</rscale>
<asrwt>0</asrwt>
<pdfrwt beam="1">  1        2 0.34501650E+00 0.32701396E+04</pdfrwt>
<pdfrwt beam="2">  1       -2 0.18340282E+00 0.32701396E+04</pdfrwt>
<totfact> 0.70281977E-01</totfact>
</mgrwt>
</event>
<event>
12    1  0.1536832E-007  0.2506024E+04  0.7818608E-02  0.8400843E-01
          1   -1    0    0  501    0  0.00000000000E+00  0.00000000000E+00  0.14535534131E+04  0.14535534131E+04  0.00000000000E+00 0. -1.
         -1   -1    0    0    0  501 -0.00000000000E+00 -0.00000000000E+00 -0.10801384132E+04  0.10801384132E+04  0.00000000000E+00 0.  1.
         23    2    1    2    0    0 -0.93423309482E+03 -0.51923818636E+03 -0.61108350561E+02  0.10743924033E+04  0.90471189543E+02 0.  0.
        254    2    1    2    0    0  0.93423309482E+03  0.51923818636E+03  0.43452335045E+03  0.14592994230E+04  0.89350125584E+03 0.  0.
        -24    2    4    4    0    0  0.17087710264E+02 -0.19135315804E+03  0.16597863758E+03  0.26610619679E+03  0.79721884718E+02 0.  0.
         24    2    4    4    0    0  0.91714538455E+03  0.71059134440E+03  0.26854471287E+03  0.11931932262E+04  0.74149154196E+02 0.  0.
         11    1    3    3    0    0 -0.26081523737E+03 -0.16482198492E+03  0.19508554953E+02  0.30914633828E+03  0.00000000000E+00 0. -1.
        -11    1    3    3    0    0 -0.67341785745E+03 -0.35441620144E+03 -0.80616905514E+02  0.76524606502E+03  0.00000000000E+00 0.  1.
          2    1    6    6  502    0  0.90663112416E+03  0.71082407378E+03  0.26606993703E+03  0.11823891367E+04  0.00000000000E+00 0. -1.
          1    1    5    5  503    0  0.32528218737E+02 -0.18963698957E+03  0.15517742690E+03  0.24718476216E+03  0.00000000000E+00 0. -1.
         -2    1    5    5    0  503 -0.15440508473E+02 -0.17161684706E+01  0.10801210685E+02  0.18921434628E+02  0.00000000000E+00 0.  1.
         -1    1    6    6    0  502  0.10514260392E+02 -0.23272937634E+00  0.24747758370E+01  0.10804089504E+02  0.00000000000E+00 0.  1.
<mgrwt>
<rscale>  0 0.25060238E+04</rscale>
<asrwt>0</asrwt>
<pdfrwt beam="1">  1        1 0.22362360E+00 0.25060238E+04</pdfrwt>
<pdfrwt beam="2">  1       -1 0.16617514E+00 0.25060238E+04</pdfrwt>
<totfact> 0.16435018E+00</totfact>
</mgrwt>
</event>
<event>
12    1  0.1536832E-007  0.1337863E+04  0.7818608E-02  0.9000067E-01
          2   -1    0    0  501    0  0.00000000000E+00  0.00000000000E+00  0.46474946769E+03  0.46474946769E+03  0.00000000000E+00 0. -1.
         -2   -1    0    0    0  501 -0.00000000000E+00 -0.00000000000E+00 -0.96281810805E+03  0.96281810805E+03  0.00000000000E+00 0.  1.
         23    2    1    2    0    0 -0.31523523696E+03 -0.16530835792E+03 -0.20042853445E+03  0.42036349417E+03  0.99165326556E+02 0.  0.
        254    2    1    2    0    0  0.31523523696E+03  0.16530835792E+03 -0.29764010591E+03  0.10072040816E+04  0.89396326628E+03 0.  0.
        -24    2    4    4    0    0 -0.14227942693E+03 -0.11303446026E+03  0.19315613151E+03  0.27620846212E+03  0.77211390833E+02 0.  0.
         24    2    4    4    0    0  0.45751466389E+03  0.27834281818E+03 -0.49079623742E+03  0.73099561944E+03  0.81726720676E+02 0.  0.
         13    1    3    3    0    0 -0.40453979471E+02  0.11287700911E+02 -0.32390252826E+02  0.53038336371E+02  0.00000000000E+00 0. -1.
        -13    1    3    3    0    0 -0.27478125749E+03 -0.17659605883E+03 -0.16803828163E+03  0.36732515780E+03  0.00000000000E+00 0.  1.
          4    1    6    6  502    0  0.29052153274E+03  0.20378448931E+03 -0.36468474854E+03  0.50884756547E+03  0.00000000000E+00 0. -1.
          1    1    5    5  503    0 -0.11460082299E+03 -0.84877920126E+02  0.18862309601E+03  0.23646623925E+03  0.00000000000E+00 0. -1.
         -2    1    5    5    0  503 -0.27678603945E+02 -0.28156540131E+02  0.45330355020E+01  0.39742222879E+02  0.00000000000E+00 0.  1.
         -3    1    6    6    0  502  0.16699313116E+03  0.74558328865E+02 -0.12611148888E+03  0.22214805397E+03  0.00000000000E+00 0.  1.
<mgrwt>
<rscale>  0 0.13378628E+04</rscale>
<asrwt>0</asrwt>
<pdfrwt beam="1">  1        2 0.71499918E-01 0.13378628E+04</pdfrwt>
<pdfrwt beam="2">  1       -2 0.14812586E+00 0.13378628E+04</pdfrwt>
<totfact> 0.20276724E+01</totfact>
</mgrwt>
</event>
<event>
12    1  0.1536832E-007  0.1099537E+04  0.7818608E-02  0.9205643E-01
         -2   -1    0    0    0  501 -0.00000000000E+00  0.00000000000E+00  0.77217354641E+02  0.77217354641E+02  0.00000000000E+00 0.  1.
          2   -1    0    0  501    0  0.00000000000E+00 -0.00000000000E+00 -0.39142181914E+04  0.39142181914E+04  0.00000000000E+00 0. -1.
         23    2    1    2    0    0 -0.71998800273E+02 -0.18197458424E+01 -0.11011794629E+03  0.15831484485E+03  0.88036863240E+02 0.  0.
        254    2    1    2    0    0  0.71998800273E+02  0.18197458424E+01 -0.37268828905E+04  0.38331207012E+04  0.89329227687E+03 0.  0.
        -24    2    4    4    0    0  0.43073400198E+03  0.18140544266E+03 -0.23130522835E+04  0.23613312952E+04  0.85058240751E+02 0.  0.
         24    2    4    4    0    0 -0.35873520170E+03 -0.17958569681E+03 -0.14138306070E+04  0.14717894060E+04  0.79404678690E+02 0.  0.
         13    1    3    3    0    0  0.10173257620E+01  0.30101335892E+02 -0.50474926248E+02  0.58777917231E+02  0.00000000000E+00 0. -1.
        -13    1    3    3    0    0 -0.73016126035E+02 -0.31921081735E+02 -0.59643020044E+02  0.99536927622E+02  0.00000000000E+00 0.  1.
          4    1    6    6  502    0 -0.73909514468E+02 -0.30628915952E+02 -0.18383211023E+03  0.20048688629E+03  0.00000000000E+00 0. -1.
          1    1    5    5  503    0  0.26870745013E+03  0.98546282662E+02 -0.16016479449E+04  0.16270191158E+04  0.00000000000E+00 0. -1.
         -2    1    5    5    0  503  0.16202655185E+03  0.82859159995E+02 -0.71140433861E+03  0.73431217945E+03  0.00000000000E+00 0.  1.
         -3    1    6    6    0  502 -0.28482568723E+03 -0.14895678086E+03 -0.12299984967E+04  0.12713025197E+04  0.00000000000E+00 0.  1.
<mgrwt>
<rscale>  0 0.10995373E+04</rscale>
<asrwt>0</asrwt>
<pdfrwt beam="1">  1        2 0.60218735E+00 0.10995373E+04</pdfrwt>
<pdfrwt beam="2">  1       -2 0.11879594E-01 0.10995373E+04</pdfrwt>
<totfact> 0.21586040E+01</totfact>
</mgrwt>
</event>
<event>
12    1  0.1536832E-007  0.3010121E+04  0.7818608E-02  0.8240847E-01
          1   -1    0    0  501    0  0.00000000000E+00  0.00000000000E+00  0.29553250831E+04  0.29553250831E+04  0.00000000000E+00 0. -1.
         -1   -1    0    0    0  501 -0.00000000000E+00 -0.00000000000E+00 -0.76648315322E+03  0.76648315322E+03  0.00000000000E+00 0.  1.
         23    2    1    2    0    0  0.21668756397E+03 -0.14369802325E+02  0.26487057012E+04  0.26601574239E+04  0.11677172949E+03 0.  0.
        254    2    1    2    0    0 -0.21668756397E+03  0.14369802325E+02 -0.45986377131E+03  0.10616508124E+04  0.93191618064E+03 0.  0.
        -24    2    4    4    0    0 -0.34713572430E+03 -0.11786435877E+03  0.16064068992E+03  0.40904486729E+03  0.84362634173E+02 0.  0.
         24    2    4    4    0    0  0.13044816033E+03  0.13223416109E+03 -0.62050446123E+03  0.65260594513E+03  0.79788077503E+02 0.  0.
         11    1    3    3    0    0  0.16418026934E+03  0.10415320383E+02  0.23567069498E+04  0.23624418061E+04  0.00000000000E+00 0. -1.
        -11    1    3    3    0    0  0.52507294629E+02 -0.24785122707E+02  0.29199875134E+03  0.29771561780E+03  0.00000000000E+00 0.  1.
          4    1    6    6  502    0  0.82938457444E+01  0.12985284945E+02 -0.92726309788E+01  0.17982969377E+02  0.00000000000E+00 0. -1.
          1    1    5    5  503    0 -0.56827515632E+02 -0.78572694726E+01  0.59209496417E+02  0.82443117860E+02  0.00000000000E+00 0. -1.
         -2    1    5    5    0  503 -0.29030820867E+03 -0.11000708929E+03  0.10143119351E+03  0.32660174943E+03  0.00000000000E+00 0.  1.
         -3    1    6    6    0  502  0.12215431459E+03  0.11924887615E+03 -0.61123183025E+03  0.63462297575E+03  0.00000000000E+00 0.  1.
<mgrwt>
<rscale>  0 0.30101209E+04</rscale>
<asrwt>0</asrwt>
<pdfrwt beam="1">  1        1 0.45466539E+00 0.30101209E+04</pdfrwt>
<pdfrwt beam="2">  1       -1 0.11792049E+00 0.30101209E+04</pdfrwt>
<totfact> 0.35368411E-01</totfact>
</mgrwt>
</event>
<event>
12    1  0.1536832E-007  0.2941381E+04  0.7818608E-02  0.8260671E-01
         -2   -1    0    0    0  501 -0.00000000000E+00  0.00000000000E+00  0.63295148579E+03  0.63295148579E+03  0.00000000000E+00 0.  1.
          2   -1    0    0  501    0  0.00000000000E+00 -0.00000000000E+00 -0.34172138334E+04  0.34172138334E+04  0.00000000000E+00 0. -1.
         23    2    1    2    0    0 -0.20028796116E+03 -0.18739475247E+03  0.53114816681E+03  0.60414493891E+03  0.87410934490E+02 0.  0.
        254    2    1    2    0    0  0.20028796116E+03  0.18739475247E+03 -0.33154105144E+04  0.34460203803E+04  0.89882007186E+03 0.  0.
        -24    2    4    4    0    0 -0.19782662280E+03 -0.24757538834E+03 -0.87266459300E+03  0.93183547215E+03  0.79654941365E+02 0.  0.
         24    2    4    4    0    0  0.39811458396E+03  0.43497014081E+03 -0.24427459214E+04  0.25141849081E+04  0.80149050621E+02 0.  0.
         13    1    3    3    0    0 -0.12476702413E+03 -0.16220179121E+03  0.42251752077E+03  0.46946489405E+03  0.00000000000E+00 0.  1.
        -13    1    3    3    0    0 -0.75520937028E+02 -0.25192961266E+02  0.10863064604E+03  0.13468004487E+03  0.00000000000E+00 0. -1.
          4    1    6    6  502    0  0.26901177338E+03  0.27245608181E+03 -0.17281724831E+04  0.17700790327E+04  0.00000000000E+00 0. -1.
          3    1    5    5  503    0 -0.19359979506E+03 -0.21843949831E+03 -0.73052219787E+03  0.78667615741E+03  0.00000000000E+00 0. -1.
         -4    1    5    5    0  503 -0.42268277377E+01 -0.29135890033E+02 -0.14214239513E+03  0.14515931473E+03  0.00000000000E+00 0.  1.
         -3    1    6    6    0  502  0.12910281058E+03  0.16251405900E+03 -0.71457343831E+03  0.74410587540E+03  0.00000000000E+00 0.  1.
<mgrwt>
<rscale>  0 0.29413810E+04</rscale>
<asrwt>0</asrwt>
<pdfrwt beam="1">  1        2 0.52572519E+00 0.29413810E+04</pdfrwt>
<pdfrwt beam="2">  1       -2 0.97377154E-01 0.29413810E+04</pdfrwt>
<totfact> 0.70147905E-01</totfact>
</mgrwt>
</event>
<event>
12    1  0.1536832E-007  0.1460936E+04  0.7818608E-02  0.8910854E-01
         -2   -1    0    0    0  501 -0.00000000000E+00  0.00000000000E+00  0.86793972629E+03  0.86793972629E+03  0.00000000000E+00 0.  1.
          2   -1    0    0  501    0  0.00000000000E+00 -0.00000000000E+00 -0.61477037293E+03  0.61477037293E+03  0.00000000000E+00 0. -1.
         23    2    1    2    0    0  0.35554994010E+03 -0.11243053980E+03 -0.14438177154E+03  0.41001147227E+03  0.90592081601E+02 0.  0.
        254    2    1    2    0    0 -0.35554994010E+03  0.11243053980E+03  0.39755112490E+03  0.10726986269E+04  0.92389342521E+03 0.  0.
        -24    2    4    4    0    0 -0.33978191093E+03 -0.36874629872E+03  0.17215537599E+03  0.53511523683E+03  0.72699816990E+02 0.  0.
         24    2    4    4    0    0 -0.15768029174E+02  0.48117683852E+03  0.22539574891E+03  0.53758339012E+03  0.80080440964E+02 0.  0.
         13    1    3    3    0    0  0.72346174695E+02 -0.35382163625E+02  0.49909658077E+01  0.80689381181E+02  0.00000000000E+00 0. -1.
        -13    1    3    3    0    0  0.28320376541E+03 -0.77048376179E+02 -0.14937273735E+03  0.32932209109E+03  0.00000000000E+00 0.  1.
          2    1    6    6  502    0 -0.38785461749E+02  0.37893632922E+03  0.15450071468E+03  0.41105659523E+03  0.00000000000E+00 0. -1.
          3    1    5    5  503    0 -0.30108674417E+03 -0.31375264574E+03  0.17265220793E+03  0.46787042557E+03  0.00000000000E+00 0. -1.
         -4    1    5    5    0  503 -0.38695166760E+02 -0.54993652985E+02 -0.49683194181E+00  0.67244811258E+02  0.00000000000E+00 0.  1.
         -1    1    6    6    0  502  0.23017432575E+02  0.10224050930E+03  0.70895034234E+02  0.12652679488E+03  0.00000000000E+00 0.  1.
<mgrwt>
<rscale>  0 0.14609362E+04</rscale>
<asrwt>0</asrwt>
<pdfrwt beam="1">  1        2 0.94580057E-01 0.14609362E+04</pdfrwt>
<pdfrwt beam="2">  1       -2 0.13352919E+00 0.14609362E+04</pdfrwt>
<totfact> 0.18920974E+01</totfact>
</mgrwt>
</event>
<event>
12    1  0.1536832E-007  0.1572423E+04  0.7818608E-02  0.8837671E-01
          1   -1    0    0  501    0  0.00000000000E+00  0.00000000000E+00  0.93510866799E+03  0.93510866799E+03  0.00000000000E+00 0. -1.
         -1   -1    0    0    0  501 -0.00000000000E+00 -0.00000000000E+00 -0.66102303486E+03  0.66102303486E+03  0.00000000000E+00 0.  1.
         23    2    1    2    0    0 -0.39206696583E+03  0.34846643563E+03  0.11120820554E+03  0.54575213394E+03  0.10165020545E+03 0.  0.
        254    2    1    2    0    0  0.39206696583E+03 -0.34846643563E+03  0.16287742759E+03  0.10503795689E+04  0.89533391531E+03 0.  0.
        -24    2    4    4    0    0 -0.25720946232E+03 -0.24658936099E+03 -0.11519290936E+02  0.36569140766E+03  0.81452385573E+02 0.  0.
         24    2    4    4    0    0  0.64927642815E+03 -0.10187707464E+03  0.17439671852E+03  0.68468816124E+03  0.80279787159E+02 0.  0.
         13    1    3    3    0    0 -0.28890228736E+03  0.26116820707E+03  0.12712101292E+03  0.40967440236E+03  0.00000000000E+00 0.  1.
        -13    1    3    3    0    0 -0.10316467847E+03  0.87298228563E+02 -0.15912807375E+02  0.13607773158E+03  0.00000000000E+00 0. -1.
          4    1    6    6  502    0  0.13714681163E+03 -0.20326713419E+02  0.71502611314E+02  0.15599694434E+03  0.00000000000E+00 0. -1.
          3    1    5    5  503    0 -0.74799143178E+02 -0.83197409990E+02 -0.40741289071E+02  0.11906541683E+03  0.00000000000E+00 0. -1.
         -4    1    5    5    0  503 -0.18241031914E+03 -0.16339195100E+03  0.29221998135E+02  0.24662599084E+03  0.00000000000E+00 0.  1.
         -3    1    6    6    0  502  0.51212961652E+03 -0.81550361224E+02  0.10289410721E+03  0.52869121690E+03  0.00000000000E+00 0.  1.
<mgrwt>
<rscale>  0 0.15724228E+04</rscale>
<asrwt>0</asrwt>
<pdfrwt beam="1">  1        1 0.14386287E+00 0.15724228E+04</pdfrwt>
<pdfrwt beam="2">  1       -1 0.10169585E+00 0.15724228E+04</pdfrwt>
<totfact> 0.15028374E+01</totfact>
</mgrwt>
</event>
<event>
12    1  0.1536832E-007  0.2430114E+04  0.7818608E-02  0.8428315E-01
         -2   -1    0    0    0  501 -0.00000000000E+00  0.00000000000E+00  0.45515358509E+04  0.45515358509E+04  0.00000000000E+00 0.  1.
          2   -1    0    0  501    0  0.00000000000E+00 -0.00000000000E+00 -0.32436608943E+03  0.32436608943E+03  0.00000000000E+00 0. -1.
         23    2    1    2    0    0 -0.51822290689E+03 -0.18494509310E+03  0.42753420943E+02  0.55914342556E+03  0.89743226255E+02 0.  0.
        254    2    1    2    0    0  0.51822290689E+03  0.18494509310E+03  0.41844163406E+04  0.43167585148E+04  0.90680995546E+03 0.  0.
        -24    2    4    4    0    0  0.15131955705E+03  0.40811048855E+03  0.33080461727E+04  0.33375206521E+04  0.80142644925E+02 0.  0.
         24    2    4    4    0    0  0.36690334984E+03 -0.22316539544E+03  0.87637016788E+03  0.97923786269E+03  0.80381955195E+02 0.  0.
         13    1    3    3    0    0 -0.50615717924E+03 -0.17889365435E+03  0.56587711966E+02  0.53981496720E+03  0.00000000000E+00 0. -1.
        -13    1    3    3    0    0 -0.12065727649E+02 -0.60514387512E+01 -0.13834291023E+02  0.19328458365E+02  0.00000000000E+00 0.  1.
          2    1    6    6  502    0  0.17918451442E+03 -0.80094932047E+02  0.46934313093E+03  0.50872906630E+03  0.00000000000E+00 0. -1.
          3    1    5    5  503    0  0.54785390496E+02  0.22033239907E+03  0.14783629440E+04  0.14956954233E+04  0.00000000000E+00 0. -1.
         -4    1    5    5    0  503  0.96534166554E+02  0.18777808948E+03  0.18296832287E+04  0.18418252288E+04  0.00000000000E+00 0.  1.
         -1    1    6    6    0  502  0.18771883542E+03 -0.14307046340E+03  0.40702703695E+03  0.47050879639E+03  0.00000000000E+00 0.  1.
<mgrwt>
<rscale>  0 0.24301143E+04</rscale>
<asrwt>0</asrwt>
<pdfrwt beam="1">  1        2 0.49902479E-01 0.24301143E+04</pdfrwt>
<pdfrwt beam="2">  1       -2 0.70023624E+00 0.24301143E+04</pdfrwt>
<totfact> 0.20308026E-02</totfact>
</mgrwt>
</event>
<event>
12    1  0.1536832E-007  0.2372613E+04  0.7818608E-02  0.8449828E-01
         -2   -1    0    0    0  501 -0.00000000000E+00  0.00000000000E+00  0.73151653236E+03  0.73151653236E+03  0.00000000000E+00 0.  1.
          2   -1    0    0  501    0  0.00000000000E+00 -0.00000000000E+00 -0.19238437481E+04  0.19238437481E+04  0.00000000000E+00 0. -1.
         23    2    1    2    0    0  0.28809338148E+02  0.75817093692E+03  0.23564224996E+03  0.79965224185E+03  0.90902642335E+02 0.  0.
        254    2    1    2    0    0 -0.28809338148E+02 -0.75817093692E+03 -0.14279694657E+04  0.18557080386E+04  0.91044076248E+03 0.  0.
        -24    2    4    4    0    0  0.14369198084E+03 -0.78744910864E+03 -0.14543410916E+04  0.16619006340E+04  0.77988606357E+02 0.  0.
         24    2    4    4    0    0 -0.17250131899E+03  0.29278171725E+02  0.26371625885E+02  0.19380740455E+03  0.79069153364E+02 0.  0.
         13    1    3    3    0    0 -0.51767309341E+01  0.34818954147E+03  0.64824617800E+02  0.35421037027E+03  0.00000000000E+00 0. -1.
        -13    1    3    3    0    0  0.33986069083E+02  0.40998139545E+03  0.17081763216E+03  0.44544187159E+03  0.00000000000E+00 0.  1.
          2    1    6    6  502    0 -0.28737810337E+02 -0.24176515700E+02  0.13424726441E+02  0.39882188184E+02  0.00000000000E+00 0. -1.
          3    1    5    5  503    0  0.73843503972E+02 -0.42533440981E+03 -0.86374872003E+03  0.96562108231E+03  0.00000000000E+00 0. -1.
         -4    1    5    5    0  503  0.69848476870E+02 -0.36211469883E+03 -0.59059237153E+03  0.69627955172E+03  0.00000000000E+00 0.  1.
         -1    1    6    6    0  502 -0.14376350865E+03  0.53454687425E+02  0.12946899444E+02  0.15392521637E+03  0.00000000000E+00 0.  1.
<mgrwt>
<rscale>  0 0.23726133E+04</rscale>
<asrwt>0</asrwt>
<pdfrwt beam="1">  1        2 0.29597595E+00 0.23726133E+04</pdfrwt>
<pdfrwt beam="2">  1       -2 0.11254101E+00 0.23726133E+04</pdfrwt>
<totfact> 0.41260300E+00</totfact>
</mgrwt>
</event>
<event>
12    1  0.1536832E-007  0.2191209E+04  0.7818608E-02  0.8522096E-01
         -2   -1    0    0    0  501 -0.00000000000E+00  0.00000000000E+00  0.40752753216E+03  0.40752753216E+03  0.00000000000E+00 0.  1.
          2   -1    0    0  501    0  0.00000000000E+00 -0.00000000000E+00 -0.29454439795E+04  0.29454439795E+04  0.00000000000E+00 0. -1.
         23    2    1    2    0    0 -0.21467985851E+03  0.71535526411E+03 -0.18235322627E+04  0.19725813642E+04  0.89368504951E+02 0.  0.
        254    2    1    2    0    0  0.21467985851E+03 -0.71535526411E+03 -0.71438418461E+03  0.13803901475E+04  0.91504732142E+03 0.  0.
        -24    2    4    4    0    0 -0.16317106682E+03 -0.34164210975E+03 -0.74823330398E+03  0.84197536650E+03  0.75665794094E+02 0.  0.
         24    2    4    4    0    0  0.37785092533E+03 -0.37371315435E+03  0.33849119365E+02  0.53841478097E+03  0.79447277944E+02 0.  0.
         11    1    3    3    0    0 -0.27112283230E+02  0.25665066410E+02 -0.82897331614E+02  0.90916110369E+02  0.00000000000E+00 0.  1.
        -11    1    3    3    0    0 -0.18756757528E+03  0.68969019770E+03 -0.17406349311E+04  0.18816652538E+04  0.00000000000E+00 0. -1.
          2    1    6    6  502    0  0.45196958697E+02 -0.78157622977E+02 -0.11978279950E+02  0.91076112650E+02  0.00000000000E+00 0. -1.
          1    1    5    5  503    0 -0.13707902526E+02 -0.26722074122E+02 -0.24842685735E+02  0.38976080762E+02  0.00000000000E+00 0. -1.
         -2    1    5    5    0  503 -0.14946316429E+03 -0.31492003563E+03 -0.72339061824E+03  0.80299928573E+03  0.00000000000E+00 0.  1.
         -1    1    6    6    0  502  0.33265396663E+03 -0.29555553137E+03  0.45827399314E+02  0.44733866831E+03  0.00000000000E+00 0.  1.
<mgrwt>
<rscale>  0 0.21912093E+04</rscale>
<asrwt>0</asrwt>
<pdfrwt beam="1">  1        2 0.45314524E+00 0.21912093E+04</pdfrwt>
<pdfrwt beam="2">  1       -2 0.62696541E-01 0.21912093E+04</pdfrwt>
<totfact> 0.40675255E+00</totfact>
</mgrwt>
</event>
<event>
12    1  0.1536832E-007  0.1490972E+04  0.7818608E-02  0.8890479E-01
          2   -1    0    0  501    0  0.00000000000E+00  0.00000000000E+00  0.11203209333E+04  0.11203209333E+04  0.00000000000E+00 0. -1.
         -2   -1    0    0    0  501 -0.00000000000E+00 -0.00000000000E+00 -0.49606237936E+03  0.49606237936E+03  0.00000000000E+00 0.  1.
         23    2    1    2    0    0 -0.43418767873E+01  0.30973368798E+03 -0.16446829425E+03  0.36208749852E+03  0.90020705443E+02 0.  0.
        254    2    1    2    0    0  0.43418767873E+01 -0.30973368798E+03  0.78872684823E+03  0.12542958142E+04  0.92477788631E+03 0.  0.
        -24    2    4    4    0    0  0.33262888124E+03 -0.11157766150E+03 -0.15102912262E+02  0.35996777914E+03  0.79102192612E+02 0.  0.
         24    2    4    4    0    0 -0.32828700446E+03 -0.19815602648E+03  0.80382976049E+03  0.89432803505E+03  0.81499584674E+02 0.  0.
         13    1    3    3    0    0 -0.18002460404E+02  0.17433463264E+02  0.24977966041E+01  0.25184384246E+02  0.00000000000E+00 0. -1.
        -13    1    3    3    0    0  0.13660583617E+02  0.29230022471E+03 -0.16696609085E+03  0.33690311427E+03  0.00000000000E+00 0.  1.
          4    1    6    6  502    0 -0.13808248775E+03 -0.89474746194E+02  0.43848979908E+03  0.46834368526E+03  0.00000000000E+00 0. -1.
          3    1    5    5  503    0  0.28837762870E+03 -0.98331165767E+02 -0.40326150820E+02  0.30733836945E+03  0.00000000000E+00 0. -1.
         -4    1    5    5    0  503  0.44251252545E+02 -0.13246495733E+02  0.25223238558E+02  0.52629409691E+02  0.00000000000E+00 0.  1.
         -3    1    6    6    0  502 -0.19020451670E+03 -0.10868128028E+03  0.36533996141E+03  0.42598434979E+03  0.00000000000E+00 0.  1.
<mgrwt>
<rscale>  0 0.14909716E+04</rscale>
<asrwt>0</asrwt>
<pdfrwt beam="1">  1        2 0.17235707E+00 0.14909716E+04</pdfrwt>
<pdfrwt beam="2">  1       -2 0.76317290E-01 0.14909716E+04</pdfrwt>
<totfact> 0.31443837E+01</totfact>
</mgrwt>
</event>
<event>
12    1  0.1536832E-007  0.4185858E+04  0.7818608E-02  0.7968068E-01
         -1   -1    0    0    0  501 -0.00000000000E+00  0.00000000000E+00  0.49180046808E+04  0.49180046808E+04  0.00000000000E+00 0.  1.
          1   -1    0    0  501    0  0.00000000000E+00 -0.00000000000E+00 -0.89067676390E+03  0.89067676390E+03  0.00000000000E+00 0. -1.
         23    2    1    2    0    0 -0.34294063523E+03 -0.29701303575E+03  0.46165854904E+04  0.46397114276E+04  0.90749759023E+02 0.  0.
        254    2    1    2    0    0  0.34294063523E+03  0.29701303575E+03 -0.58925757346E+03  0.11689700171E+04  0.90190985709E+03 0.  0.
        -24    2    4    4    0    0  0.12557901203E+03  0.51549334223E+03 -0.65211789752E+03  0.84464005159E+03  0.81581801534E+02 0.  0.
         24    2    4    4    0    0  0.21736162320E+03 -0.21848030647E+03  0.62860324064E+02  0.32432996552E+03  0.79112493539E+02 0.  0.
         13    1    3    3    0    0 -0.25888975167E+02 -0.44310488197E+02  0.80197254758E+03  0.80361285796E+03  0.00000000000E+00 0. -1.
        -13    1    3    3    0    0 -0.31705166007E+03 -0.25270254756E+03  0.38146129428E+04  0.38360985696E+04  0.00000000000E+00 0.  1.
          4    1    6    6  502    0  0.17566963620E+03 -0.12443733348E+03  0.44684675641E+02  0.21986630320E+03  0.00000000000E+00 0. -1.
          1    1    5    5  503    0  0.10545277694E+03  0.46616388458E+03 -0.54415390075E+03  0.72424617579E+03  0.00000000000E+00 0. -1.
         -2    1    5    5    0  503  0.20126235088E+02  0.49329457648E+02 -0.10796399677E+03  0.12039387580E+03  0.00000000000E+00 0.  1.
         -3    1    6    6    0  502  0.41691987005E+02 -0.94042972989E+02  0.18175648423E+02  0.10446366232E+03  0.00000000000E+00 0.  1.
<mgrwt>
<rscale>  0 0.41858583E+04</rscale>
<asrwt>0</asrwt>
<pdfrwt beam="1">  1        1 0.13702720E+00 0.41858583E+04</pdfrwt>
<pdfrwt beam="2">  1       -1 0.75661609E+00 0.41858583E+04</pdfrwt>
<totfact> 0.16997829E-03</totfact>
</mgrwt>
</event>
<event>
12    1  0.1536832E-007  0.1978586E+04  0.7818608E-02  0.8616698E-01
          2   -1    0    0  501    0  0.00000000000E+00  0.00000000000E+00  0.12639620344E+04  0.12639620344E+04  0.00000000000E+00 0. -1.
         -2   -1    0    0    0  501 -0.00000000000E+00 -0.00000000000E+00 -0.77431158456E+03  0.77431158456E+03  0.00000000000E+00 0.  1.
         23    2    1    2    0    0 -0.23265378480E+03 -0.52849615143E+03  0.73770948864E+03  0.94137221833E+03  0.92360154596E+02 0.  0.
        254    2    1    2    0    0  0.23265378480E+03  0.52849615143E+03 -0.24805903884E+03  0.10969014006E+04  0.89901247501E+03 0.  0.
        -24    2    4    4    0    0  0.25513408623E+03  0.17379563379E+02 -0.46419042067E+03  0.53582416580E+03  0.78989485619E+02 0.  0.
         24    2    4    4    0    0 -0.22480301429E+02  0.51111658805E+03  0.21613138182E+03  0.56107723479E+03  0.79682863030E+02 0.  0.
         11    1    3    3    0    0  0.33668527909E+01  0.15379681800E+01  0.10056768643E+02  0.10716325834E+02  0.00000000000E+00 0.  1.
        -11    1    3    3    0    0 -0.23602063759E+03 -0.53003411961E+03  0.72765271999E+03  0.93065589250E+03  0.00000000000E+00 0. -1.
          2    1    6    6  502    0 -0.23488571774E+02  0.79679889459E+02  0.59109615226E+02  0.10195363849E+03  0.00000000000E+00 0. -1.
          1    1    5    5  503    0  0.87958765018E+02  0.34835605938E+02 -0.12020697292E+03  0.15297052044E+03  0.00000000000E+00 0. -1.
         -2    1    5    5    0  503  0.16717532121E+03 -0.17456042559E+02 -0.34398344775E+03  0.38285364536E+03  0.00000000000E+00 0.  1.
         -1    1    6    6    0  502  0.10082703458E+01  0.43143669859E+03  0.15702176660E+03  0.45912359631E+03  0.00000000000E+00 0.  1.
<mgrwt>
<rscale>  0 0.19785858E+04</rscale>
<asrwt>0</asrwt>
<pdfrwt beam="1">  1        2 0.19445570E+00 0.19785858E+04</pdfrwt>
<pdfrwt beam="2">  1       -2 0.11912486E+00 0.19785858E+04</pdfrwt>
<totfact> 0.87358770E+00</totfact>
</mgrwt>
</event>
<event>
12    1  0.1536832E-007  0.2126309E+04  0.7818608E-02  0.8549742E-01
          1   -1    0    0  501    0  0.00000000000E+00  0.00000000000E+00  0.13746230656E+04  0.13746230656E+04  0.00000000000E+00 0. -1.
         -1   -1    0    0    0  501 -0.00000000000E+00 -0.00000000000E+00 -0.82225956434E+03  0.82225956434E+03  0.00000000000E+00 0.  1.
         23    2    1    2    0    0 -0.53837841654E+03  0.32893917167E+03 -0.39481856905E+03  0.74982149999E+03  0.91094902933E+02 0.  0.
        254    2    1    2    0    0  0.53837841654E+03 -0.32893917167E+03  0.94718207029E+03  0.14470611299E+04  0.89374478540E+03 0.  0.
        -24    2    4    4    0    0 -0.10577376110E+03 -0.27122595425E+03  0.67861357305E+03  0.74257562642E+03  0.78425586602E+02 0.  0.
         24    2    4    4    0    0  0.64415217763E+03 -0.57713217421E+02  0.26856849724E+03  0.70448550351E+03  0.76863148048E+02 0.  0.
         13    1    3    3    0    0 -0.24706408044E+03  0.16429243538E+03 -0.23755659820E+03  0.38008657108E+03  0.00000000000E+00 0.  1.
        -13    1    3    3    0    0 -0.29131433609E+03  0.16464673629E+03 -0.15726197085E+03  0.36973492891E+03  0.00000000000E+00 0. -1.
          4    1    6    6  502    0  0.28838203913E+03  0.93394717643E+01  0.10272862546E+03  0.30627536093E+03  0.00000000000E+00 0. -1.
          3    1    5    5  503    0 -0.39712413596E+02 -0.94225589542E+02  0.15285357534E+03  0.18390147637E+03  0.00000000000E+00 0. -1.
         -4    1    5    5    0  503 -0.66061347502E+02 -0.17700036470E+03  0.52575999771E+03  0.55867415005E+03  0.00000000000E+00 0.  1.
         -3    1    6    6    0  502  0.35577013851E+03 -0.67052689186E+02  0.16583987178E+03  0.39821014258E+03  0.00000000000E+00 0.  1.
<mgrwt>
<rscale>  0 0.21263085E+04</rscale>
<asrwt>0</asrwt>
<pdfrwt beam="1">  1        1 0.21148047E+00 0.21263085E+04</pdfrwt>
<pdfrwt beam="2">  1       -1 0.12650147E+00 0.21263085E+04</pdfrwt>
<totfact> 0.39903862E+00</totfact>
</mgrwt>
</event>
<event>
12    1  0.1536832E-007  0.2718720E+04  0.7818608E-02  0.8328956E-01
          1   -1    0    0  501    0  0.00000000000E+00  0.00000000000E+00  0.74475161934E+03  0.74475161934E+03  0.00000000000E+00 0. -1.
         -1   -1    0    0    0  501 -0.00000000000E+00 -0.00000000000E+00 -0.24811755371E+04  0.24811755371E+04  0.00000000000E+00 0.  1.
         23    2    1    2    0    0 -0.13738459881E+03  0.48197468333E+03  0.52932918158E+03  0.73513180440E+03  0.95159150935E+02 0.  0.
        254    2    1    2    0    0  0.13738459881E+03 -0.48197468333E+03 -0.22657530993E+04  0.24907953520E+04  0.90512444183E+03 0.  0.
        -24    2    4    4    0    0 -0.36847401570E+03 -0.28414939523E+03 -0.12481590394E+04  0.13346206497E+04  0.82445812011E+02 0.  0.
         24    2    4    4    0    0  0.50585861451E+03 -0.19782528810E+03 -0.10175940599E+04  0.11561747023E+04  0.78832030321E+02 0.  0.
         11    1    3    3    0    0 -0.12485892491E+02  0.20874513680E+03  0.23466870747E+03  0.31432440553E+03  0.00000000000E+00 0.  1.
        -11    1    3    3    0    0 -0.12489870632E+03  0.27322954653E+03  0.29466047412E+03  0.42080739887E+03  0.00000000000E+00 0. -1.
          4    1    6    6  502    0  0.28430626575E+03 -0.15281874804E+03 -0.60033337137E+03  0.68160382868E+03  0.00000000000E+00 0. -1.
          3    1    5    5  503    0 -0.60243837121E+02 -0.12154895729E+02 -0.16653904988E+03  0.17751708801E+03  0.00000000000E+00 0. -1.
         -4    1    5    5    0  503 -0.30823017858E+03 -0.27199449950E+03 -0.10816199896E+04  0.11571035617E+04  0.00000000000E+00 0.  1.
         -3    1    6    6    0  502  0.22155234876E+03 -0.45006540056E+02 -0.41726068852E+03  0.47457087360E+03  0.00000000000E+00 0.  1.
<mgrwt>
<rscale>  0 0.27187199E+04</rscale>
<asrwt>0</asrwt>
<pdfrwt beam="1">  1        1 0.11457717E+00 0.27187199E+04</pdfrwt>
<pdfrwt beam="2">  1       -1 0.38171932E+00 0.27187199E+04</pdfrwt>
<totfact> 0.20558538E-01</totfact>
</mgrwt>
</event>
<event>
12    1  0.1536832E-007  0.1655324E+04  0.7818608E-02  0.8787263E-01
          2   -1    0    0  501    0  0.00000000000E+00  0.00000000000E+00  0.43066621943E+03  0.43066621943E+03  0.00000000000E+00 0.  1.
         -2   -1    0    0    0  501 -0.00000000000E+00 -0.00000000000E+00 -0.15906158322E+04  0.15906158322E+04  0.00000000000E+00 0. -1.
         23    2    1    2    0    0 -0.26280149837E+03  0.11137550823E+03 -0.10197169496E+04  0.10627370061E+04  0.90100806981E+02 0.  0.
        254    2    1    2    0    0  0.26280149837E+03 -0.11137550823E+03 -0.14023266320E+03  0.95854504558E+03  0.90425343416E+03 0.  0.
        -24    2    4    4    0    0  0.32699274326E+03 -0.45894717242E+03  0.22628916058E+01  0.56909238054E+03  0.79399343132E+02 0.  0.
         24    2    4    4    0    0 -0.64191244888E+02  0.34757166419E+03 -0.14249555481E+03  0.38945266503E+03  0.80260933780E+02 0.  0.
         11    1    3    3    0    0 -0.20589712052E+03  0.46917889533E+02 -0.66377750310E+03  0.69655975064E+03  0.00000000000E+00 0. -1.
        -11    1    3    3    0    0 -0.56904377857E+02  0.64457618697E+02 -0.35593944648E+03  0.36617725542E+03  0.00000000000E+00 0.  1.
          2    1    6    6  502    0 -0.34343378715E+02  0.26077404326E+03 -0.13924221164E+03  0.29760874114E+03  0.00000000000E+00 0. -1.
          3    1    5    5  503    0  0.25813875682E+03 -0.38484206519E+03  0.29489576049E+02  0.46433680449E+03  0.00000000000E+00 0. -1.
         -4    1    5    5    0  503  0.68853986445E+02 -0.74105107234E+02 -0.27226684444E+02  0.10475557605E+03  0.00000000000E+00 0.  1.
         -1    1    6    6    0  502 -0.29847866174E+02  0.86797620929E+02 -0.32533431698E+01  0.91843923892E+02  0.00000000000E+00 0.  1.
<mgrwt>
<rscale>  0 0.16553241E+04</rscale>
<asrwt>0</asrwt>
<pdfrwt beam="1">  1        2 0.66256342E-01 0.16553241E+04</pdfrwt>
<pdfrwt beam="2">  1       -2 0.24471013E+00 0.16553241E+04</pdfrwt>
<totfact> 0.48367761E+00</totfact>
</mgrwt>
</event>
<event>
12    1  0.1536832E-007  0.1642257E+04  0.7818608E-02  0.8795000E-01
          2   -1    0    0  501    0  0.00000000000E+00  0.00000000000E+00  0.33622292615E+03  0.33622292615E+03  0.00000000000E+00 0. -1.
         -2   -1    0    0    0  501 -0.00000000000E+00 -0.00000000000E+00 -0.20053722463E+04  0.20053722463E+04  0.00000000000E+00 0.  1.
         23    2    1    2    0    0  0.50143834550E+03  0.67759943508E+01 -0.20238335056E+03  0.54845330568E+03  0.91409405911E+02 0.  0.
        254    2    1    2    0    0 -0.50143834550E+03 -0.67759943508E+01 -0.14667659696E+04  0.17931418668E+04  0.90137063209E+03 0.  0.
        -24    2    4    4    0    0 -0.54983970400E+03  0.35352156799E+03 -0.90182620809E+03  0.11166762835E+04  0.79838670772E+02 0.  0.
         24    2    4    4    0    0  0.48401358496E+02 -0.36029756234E+03 -0.56493976148E+03  0.67646558328E+03  0.79320403008E+02 0.  0.
         13    1    3    3    0    0  0.44543128910E+03  0.35117240973E+02 -0.17283121274E+03  0.47907502755E+03  0.00000000000E+00 0. -1.
        -13    1    3    3    0    0  0.56007056402E+02 -0.28341246623E+02 -0.29552137820E+02  0.69378278133E+02  0.00000000000E+00 0.  1.
          4    1    6    6  502    0 -0.10739178270E+02 -0.18896137649E+03 -0.25754502804E+03  0.31961097168E+03  0.00000000000E+00 0. -1.
          3    1    5    5  503    0 -0.21448375237E+02  0.35224324496E+02 -0.47083397563E+02  0.62590991066E+02  0.00000000000E+00 0. -1.
         -4    1    5    5    0  503 -0.52839132876E+03  0.31829724349E+03 -0.85474281052E+03  0.10540852924E+04  0.00000000000E+00 0.  1.
         -3    1    6    6    0  502  0.59140536766E+02 -0.17133618585E+03 -0.30739473344E+03  0.35685461160E+03  0.00000000000E+00 0.  1.
<mgrwt>
<rscale>  0 0.16422571E+04</rscale>
<asrwt>0</asrwt>
<pdfrwt beam="1">  1        2 0.51726604E-01 0.16422571E+04</pdfrwt>
<pdfrwt beam="2">  1       -2 0.30851881E+00 0.16422571E+04</pdfrwt>
<totfact> 0.26115804E+00</totfact>
</mgrwt>
</event>
<event>
12    1  0.1536832E-007  0.1786168E+04  0.7818608E-02  0.8713690E-01
          2   -1    0    0  501    0  0.00000000000E+00  0.00000000000E+00  0.16695333040E+04  0.16695333040E+04  0.00000000000E+00 0. -1.
         -2   -1    0    0    0  501 -0.00000000000E+00 -0.00000000000E+00 -0.47773762057E+03  0.47773762057E+03  0.00000000000E+00 0.  1.
         23    2    1    2    0    0 -0.45683838823E+03  0.39943707930E+03  0.76967758729E+03  0.98406731614E+03  0.87940895137E+02 0.  0.
        254    2    1    2    0    0  0.45683838823E+03 -0.39943707930E+03  0.42211809616E+03  0.11632036085E+04  0.89811338613E+03 0.  0.
        -24    2    4    4    0    0  0.19576541967E+03  0.26588933902E+03  0.22396333486E+02  0.34026799940E+03  0.79116847246E+02 0.  0.
         24    2    4    4    0    0  0.26107296856E+03 -0.66532641832E+03  0.39972176268E+03  0.82293560906E+03  0.81407562759E+02 0.  0.
         11    1    3    3    0    0 -0.45083715663E+03  0.40349373766E+03  0.75352594314E+03  0.96636570982E+03  0.00000000000E+00 0. -1.
        -11    1    3    3    0    0 -0.60012316001E+01 -0.40566583516E+01  0.16151644151E+02  0.17701606325E+02  0.00000000000E+00 0.  1.
          4    1    6    6  502    0  0.71407518631E+02 -0.10318657332E+03  0.82519156613E+02  0.15018626381E+03  0.00000000000E+00 0. -1.
          1    1    5    5  503    0  0.40800621282E+02  0.21603185651E+02  0.21611666252E+02  0.50975017856E+02  0.00000000000E+00 0. -1.
         -2    1    5    5    0  503  0.15496479839E+03  0.24428615337E+03  0.78466723430E+00  0.28929298154E+03  0.00000000000E+00 0.  1.
         -3    1    6    6    0  502  0.18966544993E+03 -0.56213984501E+03  0.31720260606E+03  0.67274934525E+03  0.00000000000E+00 0.  1.
<mgrwt>
<rscale>  0 0.17861678E+04</rscale>
<asrwt>0</asrwt>
<pdfrwt beam="1">  1        2 0.25685128E+00 0.17861678E+04</pdfrwt>
<pdfrwt beam="2">  1       -2 0.73498096E-01 0.17861678E+04</pdfrwt>
<totfact> 0.16093694E+01</totfact>
</mgrwt>
</event>
<event>
12    1  0.1536832E-007  0.2792311E+04  0.7818608E-02  0.8305659E-01
          1   -1    0    0  501    0  0.00000000000E+00  0.00000000000E+00  0.36573135851E+04  0.36573135851E+04  0.00000000000E+00 0. -1.
         -1   -1    0    0    0  501 -0.00000000000E+00 -0.00000000000E+00 -0.53297334242E+03  0.53297334242E+03  0.00000000000E+00 0.  1.
         23    2    1    2    0    0  0.75835606635E+02 -0.60637112330E+03 -0.23321300281E+03  0.66045473615E+03  0.91515984457E+02 0.  0.
        254    2    1    2    0    0 -0.75835606635E+02  0.60637112330E+03  0.33575532455E+04  0.35298321914E+04  0.90172863131E+03 0.  0.
        -24    2    4    4    0    0 -0.32325031306E+03  0.23392509206E+03  0.54068325061E+03  0.67660339521E+03  0.79006729621E+02 0.  0.
         24    2    4    4    0    0  0.24741470643E+03  0.37244603125E+03  0.28168699949E+04  0.28532287962E+04  0.78917121367E+02 0.  0.
         11    1    3    3    0    0  0.71640017936E+02 -0.52915798672E+03 -0.16944251867E+03  0.56022427135E+03  0.00000000000E+00 0.  1.
        -11    1    3    3    0    0  0.41955886987E+01 -0.77213136582E+02 -0.63770484141E+02  0.10023046479E+03  0.00000000000E+00 0. -1.
          4    1    6    6  502    0  0.15278828173E+03  0.27041191947E+03  0.21164817627E+04  0.21391498117E+04  0.00000000000E+00 0. -1.
          1    1    5    5  503    0 -0.29172988385E+03  0.17931438718E+03  0.43600195121E+03  0.55439848128E+03  0.00000000000E+00 0. -1.
         -2    1    5    5    0  503 -0.31520429212E+02  0.54610704873E+02  0.10468129940E+03  0.12220491393E+03  0.00000000000E+00 0.  1.
         -3    1    6    6    0  502  0.94626424702E+02  0.10203411178E+03  0.70038823223E+03  0.71407898448E+03  0.00000000000E+00 0.  1.
<mgrwt>
<rscale>  0 0.27923113E+04</rscale>
<asrwt>0</asrwt>
<pdfrwt beam="1">  1        1 0.56266361E+00 0.27923113E+04</pdfrwt>
<pdfrwt beam="2">  1       -1 0.81995901E-01 0.27923113E+04</pdfrwt>
<totfact> 0.23963217E-01</totfact>
</mgrwt>
</event>
<event>
12    1  0.1536832E-007  0.1671674E+04  0.7818608E-02  0.8777687E-01
          2   -1    0    0  501    0  0.00000000000E+00  0.00000000000E+00  0.31725056195E+04  0.31725056195E+04  0.00000000000E+00 0. -1.
         -2   -1    0    0    0  501 -0.00000000000E+00 -0.00000000000E+00 -0.22021179352E+03  0.22021179352E+03  0.00000000000E+00 0.  1.
         23    2    1    2    0    0 -0.99598055666E+02 -0.42155425345E+03  0.18723908194E+04  0.19243706729E+04  0.98627302622E+02 0.  0.
        254    2    1    2    0    0  0.99598055666E+02  0.42155425345E+03  0.10799030066E+04  0.14683467402E+04  0.89566951738E+03 0.  0.
        -24    2    4    4    0    0  0.14429428968E+03  0.64797674325E+03  0.10101109701E+04  0.12114283760E+04  0.80869255437E+02 0.  0.
         24    2    4    4    0    0 -0.44696234014E+02 -0.22642248980E+03  0.69792036522E+02  0.25691836415E+03  0.88719897739E+02 0.  0.
         11    1    3    3    0    0 -0.33761953561E+02 -0.56272004775E+02  0.43053150304E+03  0.43550405640E+03  0.00000000000E+00 0.  1.
        -11    1    3    3    0    0 -0.65836102105E+02 -0.36528224867E+03  0.14418593163E+04  0.14888666165E+04  0.00000000000E+00 0. -1.
          2    1    6    6  502    0 -0.18224988088E+02 -0.50416186114E+01 -0.83396784206E+01  0.20666841684E+02  0.00000000000E+00 0. -1.
          3    1    5    5  503    0 -0.64243081898E+01  0.13928529713E+02  0.38950045073E+02  0.41861458250E+02  0.00000000000E+00 0. -1.
         -4    1    5    5    0  503  0.15071859787E+03  0.63404821354E+03  0.97116092502E+03  0.11695669178E+04  0.00000000000E+00 0.  1.
         -1    1    6    6    0  502 -0.26471245927E+02 -0.22138087119E+03  0.78131714943E+02  0.23625152247E+03  0.00000000000E+00 0.  1.
<mgrwt>
<rscale>  0 0.16716736E+04</rscale>
<asrwt>0</asrwt>
<pdfrwt beam="1">  1        2 0.48807776E+00 0.16716736E+04</pdfrwt>
<pdfrwt beam="2">  1       -2 0.33878740E-01 0.16716736E+04</pdfrwt>
<totfact> 0.10577436E+01</totfact>
</mgrwt>
</event>
<event>
12    1  0.1536832E-007  0.1771727E+04  0.7818608E-02  0.8721481E-01
          1   -1    0    0  501    0  0.00000000000E+00  0.00000000000E+00  0.17912050048E+04  0.17912050048E+04  0.00000000000E+00 0. -1.
         -1   -1    0    0    0  501 -0.00000000000E+00 -0.00000000000E+00 -0.43811522271E+03  0.43811522271E+03  0.00000000000E+00 0.  1.
         23    2    1    2    0    0  0.10191089231E+03  0.38920963870E+03 -0.14954701376E+03  0.44013213359E+03  0.97375627676E+02 0.  0.
        254    2    1    2    0    0 -0.10191089231E+03 -0.38920963870E+03  0.15026367958E+04  0.17891880939E+04  0.88397212760E+03 0.  0.
        -24    2    4    4    0    0 -0.27540328560E+03  0.15867609969E+03  0.87410220525E+03  0.93365848241E+03  0.81476513305E+02 0.  0.
         24    2    4    4    0    0  0.17349239330E+03 -0.54788573840E+03  0.62853459059E+03  0.85552961151E+03  0.81220636092E+02 0.  0.
         11    1    3    3    0    0  0.10018544389E+03  0.39428637983E+03 -0.15193618079E+03  0.43426198949E+03  0.00000000000E+00 0.  1.
        -11    1    3    3    0    0  0.17254484186E+01 -0.50767411220E+01  0.23891670316E+01  0.58701441012E+01  0.00000000000E+00 0. -1.
          2    1    6    6  502    0  0.99359660208E+02 -0.38147478050E+03  0.38142473254E+03  0.54852545686E+03  0.00000000000E+00 0. -1.
          1    1    5    5  503    0 -0.56917329802E+02  0.74963041940E+02  0.24563980846E+03  0.26305504289E+03  0.00000000000E+00 0. -1.
         -2    1    5    5    0  503 -0.21848595580E+03  0.83713057754E+02  0.62846239679E+03  0.67060343952E+03  0.00000000000E+00 0.  1.
         -1    1    6    6    0  502  0.74132733088E+02 -0.16641095790E+03  0.24710985805E+03  0.30700415465E+03  0.00000000000E+00 0.  1.
<mgrwt>
<rscale>  0 0.17717270E+04</rscale>
<asrwt>0</asrwt>
<pdfrwt beam="1">  1        1 0.27557000E+00 0.17717270E+04</pdfrwt>
<pdfrwt beam="2">  1       -1 0.67402343E-01 0.17717270E+04</pdfrwt>
<totfact> 0.87097794E+00</totfact>
</mgrwt>
</event>
<event>
12    1  0.1536832E-007  0.1111880E+04  0.7818608E-02  0.9193689E-01
          1   -1    0    0  501    0  0.00000000000E+00  0.00000000000E+00  0.16098196318E+04  0.16098196318E+04  0.00000000000E+00 0. -1.
         -1   -1    0    0    0  501 -0.00000000000E+00 -0.00000000000E+00 -0.19199012565E+03  0.19199012565E+03  0.00000000000E+00 0.  1.
         23    2    1    2    0    0  0.32805801605E+00 -0.11024710798E+03  0.46355512055E+03  0.48514225598E+03  0.91242130126E+02 0.  0.
        254    2    1    2    0    0 -0.32805801605E+00  0.11024710798E+03  0.95427438558E+03  0.13166675015E+04  0.90045498165E+03 0.  0.
        -24    2    4    4    0    0  0.12948094574E+03 -0.29482841476E+02  0.10685569665E+04  0.10797039103E+04  0.79448033707E+02 0.  0.
         24    2    4    4    0    0 -0.12980900376E+03  0.13972994945E+03 -0.11428258090E+03  0.23696359115E+03  0.81953639343E+02 0.  0.
         13    1    3    3    0    0  0.12216319384E+02 -0.38891102713E+02  0.46408784189E+02  0.61769989310E+02  0.00000000000E+00 0.  1.
        -13    1    3    3    0    0 -0.11888261368E+02 -0.71356005266E+02  0.41714633636E+03  0.42337226667E+03  0.00000000000E+00 0. -1.
          4    1    6    6  502    0 -0.14150009327E+03  0.12630421105E+03 -0.10225463620E+03  0.21547863177E+03  0.00000000000E+00 0. -1.
          1    1    5    5  503    0  0.14008550584E+03 -0.22094645527E+02  0.97687414584E+03  0.98711459270E+03  0.00000000000E+00 0. -1.
         -2    1    5    5    0  503 -0.10604560094E+02 -0.73881959491E+01  0.91682820646E+02  0.92589317611E+02  0.00000000000E+00 0.  1.
         -3    1    6    6    0  502  0.11691089515E+02  0.13425738401E+02 -0.12027944708E+02  0.21484959380E+02  0.00000000000E+00 0.  1.
<mgrwt>
<rscale>  0 0.11118803E+04</rscale>
<asrwt>0</asrwt>
<pdfrwt beam="1">  1        1 0.24766455E+00 0.11118803E+04</pdfrwt>
<pdfrwt beam="2">  1       -1 0.29536943E-01 0.11118803E+04</pdfrwt>
<totfact> 0.57375925E+01</totfact>
</mgrwt>
</event>
<event>
12    1  0.1536832E-007  0.1513796E+04  0.7818608E-02  0.8875330E-01
          1   -1    0    0  501    0  0.00000000000E+00  0.00000000000E+00  0.20013587866E+04  0.20013587866E+04  0.00000000000E+00 0. -1.
         -1   -1    0    0    0  501 -0.00000000000E+00 -0.00000000000E+00 -0.28625288720E+03  0.28625288720E+03  0.00000000000E+00 0.  1.
         23    2    1    2    0    0  0.18507088146E+03 -0.27586446255E+03  0.22139345276E+02  0.34424373794E+03  0.87528096274E+02 0.  0.
        254    2    1    2    0    0 -0.18507088146E+03  0.27586446255E+03  0.16929665541E+04  0.19433679359E+04  0.89453381595E+03 0.  0.
        -24    2    4    4    0    0 -0.23589755004E+03 -0.21400971812E+02  0.29711592850E+02  0.25105864366E+03  0.77730355048E+02 0.  0.
         24    2    4    4    0    0  0.50826668581E+02  0.29726543436E+03  0.16632549613E+04  0.16923092922E+04  0.80892432022E+02 0.  0.
         11    1    3    3    0    0  0.47739636789E+02 -0.13842364802E+03 -0.12228313565E+02  0.14693437618E+03  0.00000000000E+00 0.  1.
        -11    1    3    3    0    0  0.13733124467E+03 -0.13744081454E+03  0.34367658841E+02  0.19730936176E+03  0.00000000000E+00 0. -1.
          4    1    6    6  502    0  0.12305416408E+02  0.10798221226E+03  0.82255067968E+03  0.82969946492E+03  0.00000000000E+00 0. -1.
          1    1    5    5  503    0 -0.19967628099E+03 -0.46630359848E+02  0.21675328435E+02  0.20619124014E+03  0.00000000000E+00 0. -1.
         -2    1    5    5    0  503 -0.36221269053E+02  0.25229388036E+02  0.80362644150E+01  0.44867403516E+02  0.00000000000E+00 0.  1.
         -3    1    6    6    0  502  0.38521252173E+02  0.18928322211E+03  0.84070428158E+03  0.86260982728E+03  0.00000000000E+00 0.  1.
<mgrwt>
<rscale>  0 0.15137962E+04</rscale>
<asrwt>0</asrwt>
<pdfrwt beam="1">  1        1 0.30790134E+00 0.15137962E+04</pdfrwt>
<pdfrwt beam="2">  1       -1 0.44038907E-01 0.15137962E+04</pdfrwt>
<totfact> 0.14659610E+01</totfact>
</mgrwt>
</event>
<event>
12    1  0.1536832E-007  0.1414766E+04  0.7818608E-02  0.8943199E-01
          1   -1    0    0  501    0  0.00000000000E+00  0.00000000000E+00  0.13714157694E+04  0.13714157694E+04  0.00000000000E+00 0. -1.
         -1   -1    0    0    0  501 -0.00000000000E+00 -0.00000000000E+00 -0.36487182968E+03  0.36487182968E+03  0.00000000000E+00 0.  1.
         23    2    1    2    0    0 -0.83624038149E+02 -0.15939138008E+01  0.79809390996E+03  0.80716600007E+03  0.86991621609E+02 0.  0.
        254    2    1    2    0    0  0.83624038149E+02  0.15939138008E+01  0.20845002979E+03  0.92912159905E+03  0.90156531133E+03 0.  0.
        -24    2    4    4    0    0 -0.41896525119E+02  0.40548483779E+03 -0.65536385542E+02  0.42023259168E+03  0.78276054957E+02 0.  0.
         24    2    4    4    0    0  0.12552056327E+03 -0.40389092399E+03  0.27398641534E+03  0.50888900738E+03  0.70824965605E+02 0.  0.
         11    1    3    3    0    0 -0.91976432291E+02 -0.24171338348E+02  0.68235393795E+03  0.68894906512E+03  0.00000000000E+00 0. -1.
        -11    1    3    3    0    0  0.83523941420E+01  0.22577424548E+02  0.11573997201E+03  0.11821693495E+03  0.00000000000E+00 0.  1.
          2    1    6    6  502    0  0.10251624648E+02 -0.97782445179E+02  0.37350754250E+02  0.10517405210E+03  0.00000000000E+00 0. -1.
          3    1    5    5  503    0 -0.16439082900E+02  0.35588506613E+02  0.12872465142E+02  0.41261187675E+02  0.00000000000E+00 0. -1.
         -2    1    5    5    0  503 -0.25457442219E+02  0.36989633118E+03 -0.78408850684E+02  0.37897140400E+03  0.00000000000E+00 0.  1.
         -1    1    6    6    0  502  0.11526893862E+03 -0.30610847881E+03  0.23663566109E+03  0.40371495527E+03  0.00000000000E+00 0.  1.
<mgrwt>
<rscale>  0 0.14147664E+04</rscale>
<asrwt>0</asrwt>
<pdfrwt beam="1">  1        1 0.21098704E+00 0.14147664E+04</pdfrwt>
<pdfrwt beam="2">  1       -1 0.56134128E-01 0.14147664E+04</pdfrwt>
<totfact> 0.25164129E+01</totfact>
</mgrwt>
</event>
<event>
12    1  0.1536832E-007  0.2687717E+04  0.7818608E-02  0.8339001E-01
         -1   -1    0    0    0  501 -0.00000000000E+00  0.00000000000E+00  0.14600116435E+04  0.14600116435E+04  0.00000000000E+00 0.  1.
          1   -1    0    0  501    0  0.00000000000E+00 -0.00000000000E+00 -0.12369465025E+04  0.12369465025E+04  0.00000000000E+00 0. -1.
         23    2    1    2    0    0 -0.11626700040E+03  0.78162785716E+03 -0.79047188964E+03  0.11210685524E+04  0.86537670657E+02 0.  0.
        254    2    1    2    0    0  0.11626700040E+03 -0.78162785716E+03  0.10135370307E+04  0.15758895936E+04  0.91198167541E+03 0.  0.
        -24    2    4    4    0    0 -0.99882210976E+02 -0.89075993792E+03  0.95874896964E+03  0.13149582295E+04  0.80534685324E+02 0.  0.
         24    2    4    4    0    0  0.21614921138E+03  0.10913208076E+03  0.54788061040E+02  0.26093136410E+03  0.80331516300E+02 0.  0.
         13    1    3    3    0    0 -0.98515491839E+02  0.72115723251E+03 -0.69300954871E+03  0.10050051198E+04  0.00000000000E+00 0. -1.
        -13    1    3    3    0    0 -0.17751508562E+02  0.60470624646E+02 -0.97462340931E+02  0.11606343266E+03  0.00000000000E+00 0.  1.
          4    1    6    6  502    0  0.54247333998E+02  0.52144828891E+02 -0.13058333806E+02  0.76369997432E+02  0.00000000000E+00 0. -1.
          3    1    5    5  503    0  0.80224563725E+01 -0.25264199234E+03  0.27159619391E+03  0.37102133180E+03  0.00000000000E+00 0. -1.
         -4    1    5    5    0  503 -0.10790466735E+03 -0.63811794558E+03  0.68715277573E+03  0.94393689773E+03  0.00000000000E+00 0.  1.
         -3    1    6    6    0  502  0.16190187738E+03  0.56987251868E+02  0.67846394846E+02  0.18456136667E+03  0.00000000000E+00 0.  1.
<mgrwt>
<rscale>  0 0.26877175E+04</rscale>
<asrwt>0</asrwt>
<pdfrwt beam="1">  1        1 0.19029946E+00 0.26877175E+04</pdfrwt>
<pdfrwt beam="2">  1       -1 0.22461718E+00 0.26877175E+04</pdfrwt>
<totfact> 0.89979404E-01</totfact>
</mgrwt>
</event>
<event>
12    1  0.1536832E-007  0.2164354E+04  0.7818608E-02  0.8533413E-01
          1   -1    0    0  501    0  0.00000000000E+00  0.00000000000E+00  0.16676496610E+04  0.16676496610E+04  0.00000000000E+00 0. -1.
         -1   -1    0    0    0  501 -0.00000000000E+00 -0.00000000000E+00 -0.70224977042E+03  0.70224977042E+03  0.00000000000E+00 0.  1.
         23    2    1    2    0    0 -0.74737153543E+03 -0.48535374826E+03  0.45679215727E+03  0.10061222855E+04  0.97419225320E+02 0.  0.
        254    2    1    2    0    0  0.74737153543E+03  0.48535374826E+03  0.50860773331E+03  0.13637771459E+04  0.89837286495E+03 0.  0.
        -24    2    4    4    0    0  0.85391343859E+03  0.25225077518E+03  0.60414801745E+03  0.10790762585E+04  0.81315008262E+02 0.  0.
         24    2    4    4    0    0 -0.10654190315E+03  0.23310297307E+03 -0.95540284144E+02  0.28470088740E+03  0.78984025016E+02 0.  0.
         11    1    3    3    0    0 -0.13572917023E+03 -0.46238062203E+02  0.67218670850E+02  0.15836260846E+03  0.00000000000E+00 0.  1.
        -11    1    3    3    0    0 -0.61164236521E+03 -0.43911568605E+03  0.38957348642E+03  0.84775967702E+03  0.00000000000E+00 0. -1.
          2    1    6    6  502    0 -0.73347756806E+01  0.11313316115E+02  0.12875516591E+02  0.18643202066E+02  0.00000000000E+00 0. -1.
          3    1    5    5  503    0  0.50254796231E+02 -0.42602744721E+01  0.37007440140E+02  0.62555935837E+02  0.00000000000E+00 0. -1.
         -4    1    5    5    0  503  0.80365864236E+03  0.25651104965E+03  0.56714057731E+03  0.10165203227E+04  0.00000000000E+00 0.  1.
         -1    1    6    6    0  502 -0.99207127471E+02  0.22178965696E+03 -0.10841580073E+03  0.26605768533E+03  0.00000000000E+00 0.  1.
<mgrwt>
<rscale>  0 0.21643536E+04</rscale>
<asrwt>0</asrwt>
<pdfrwt beam="1">  1        1 0.25656148E+00 0.21643536E+04</pdfrwt>
<pdfrwt beam="2">  1       -1 0.10803843E+00 0.21643536E+04</pdfrwt>
<totfact> 0.36518568E+00</totfact>
</mgrwt>
</event>
<event>
12    1  0.1536832E-007  0.1725292E+04  0.7818608E-02  0.8747070E-01
          1   -1    0    0  501    0  0.00000000000E+00  0.00000000000E+00  0.48795584562E+03  0.48795584562E+03  0.00000000000E+00 0. -1.
         -1   -1    0    0    0  501 -0.00000000000E+00 -0.00000000000E+00 -0.15250513289E+04  0.15250513289E+04  0.00000000000E+00 0.  1.
         23    2    1    2    0    0  0.55345045421E+03  0.17352392556E+02 -0.42503185194E+02  0.56412444673E+03  0.99102774182E+02 0.  0.
        254    2    1    2    0    0 -0.55345045421E+03 -0.17352392556E+02 -0.99459229805E+03  0.14488827278E+04  0.89634748211E+03 0.  0.
        -24    2    4    4    0    0 -0.21452955436E+03  0.24480021752E+03 -0.95353299277E+03  0.10108728748E+04  0.81784622629E+02 0.  0.
         24    2    4    4    0    0 -0.33892089985E+03 -0.26215261008E+03 -0.41059305279E+02  0.43800985297E+03  0.81088824274E+02 0.  0.
         11    1    3    3    0    0  0.24518232454E+03 -0.97234987145E+01 -0.65044110721E+02  0.25384967015E+03  0.00000000000E+00 0.  1.
        -11    1    3    3    0    0  0.30826812967E+03  0.27075891271E+02  0.22540925527E+02  0.31027477658E+03  0.00000000000E+00 0. -1.
          2    1    6    6  502    0 -0.49395078869E+02 -0.21129434019E+02  0.18062436369E+02  0.56679611908E+02  0.00000000000E+00 0. -1.
          1    1    5    5  503    0 -0.81828944827E+02  0.56530458123E+02 -0.38039497002E+03  0.39318189445E+03  0.00000000000E+00 0. -1.
         -2    1    5    5    0  503 -0.13270060954E+03  0.18826975940E+03 -0.57313802275E+03  0.61769098034E+03  0.00000000000E+00 0.  1.
         -1    1    6    6    0  502 -0.28952582098E+03 -0.24102317606E+03 -0.59121741648E+02  0.38133024106E+03  0.00000000000E+00 0.  1.
<mgrwt>
<rscale>  0 0.17252915E+04</rscale>
<asrwt>0</asrwt>
<pdfrwt beam="1">  1        1 0.75070131E-01 0.17252915E+04</pdfrwt>
<pdfrwt beam="2">  1       -1 0.23462328E+00 0.17252915E+04</pdfrwt>
<totfact> 0.38290561E+00</totfact>
</mgrwt>
</event>
<event>
12    1  0.1536832E-007  0.1820137E+04  0.7818608E-02  0.8695664E-01
         -2   -1    0    0    0  501 -0.00000000000E+00  0.00000000000E+00  0.41086700726E+03  0.41086700726E+03  0.00000000000E+00 0.  1.
          2   -1    0    0  501    0  0.00000000000E+00 -0.00000000000E+00 -0.20157966311E+04  0.20157966311E+04  0.00000000000E+00 0. -1.
         23    2    1    2    0    0  0.29524347164E+02 -0.63796547150E+03 -0.93182609966E+03  0.11332843808E+04  0.90343665443E+02 0.  0.
        254    2    1    2    0    0 -0.29524347164E+02  0.63796547150E+03 -0.67310352423E+03  0.12933792576E+04  0.90104934367E+03 0.  0.
        -24    2    4    4    0    0  0.93994951269E+02  0.42408860352E+03  0.12085599882E+03  0.45782168677E+03  0.79424995625E+02 0.  0.
         24    2    4    4    0    0 -0.12351929843E+03  0.21387686798E+03 -0.79395952304E+03  0.83555757082E+03  0.82367458232E+02 0.  0.
         13    1    3    3    0    0 -0.57515026357E+01 -0.54587212938E+03 -0.77291534273E+03  0.94625978909E+03  0.00000000000E+00 0. -1.
        -13    1    3    3    0    0  0.35275849799E+02 -0.92093342114E+02 -0.15891075693E+03  0.18702459172E+03  0.00000000000E+00 0.  1.
          4    1    6    6  502    0 -0.66763693774E+01  0.64282495601E+02 -0.28802834468E+03  0.29519000744E+03  0.00000000000E+00 0. -1.
          3    1    5    5  503    0  0.76913837689E+01  0.96613234876E+02  0.59284962757E+02  0.11361329740E+03  0.00000000000E+00 0. -1.
         -4    1    5    5    0  503  0.86303567500E+02  0.32747536864E+03  0.61571036059E+02  0.34420838937E+03  0.00000000000E+00 0.  1.
         -3    1    6    6    0  502 -0.11684292906E+03  0.14959437238E+03 -0.50593117836E+03  0.54036756338E+03  0.00000000000E+00 0.  1.
<mgrwt>
<rscale>  0 0.18201366E+04</rscale>
<asrwt>0</asrwt>
<pdfrwt beam="1">  1        2 0.31012257E+00 0.18201366E+04</pdfrwt>
<pdfrwt beam="2">  1       -2 0.63210307E-01 0.18201366E+04</pdfrwt>
<totfact> 0.14304421E+01</totfact>
</mgrwt>
</event>
<event>
12    1  0.1536832E-007  0.1674165E+04  0.7818608E-02  0.8776238E-01
         -2   -1    0    0    0  501 -0.00000000000E+00  0.00000000000E+00  0.98293423022E+03  0.98293423022E+03  0.00000000000E+00 0.  1.
          2   -1    0    0  501    0  0.00000000000E+00 -0.00000000000E+00 -0.71287261455E+03  0.71287261455E+03  0.00000000000E+00 0. -1.
         23    2    1    2    0    0 -0.29277040249E+03  0.33443734948E+03 -0.29684514404E+03  0.54235028785E+03  0.91999705894E+02 0.  0.
        254    2    1    2    0    0  0.29277040249E+03 -0.33443734948E+03  0.56690675971E+03  0.11534565569E+04  0.90084177589E+03 0.  0.
        -24    2    4    4    0    0 -0.10323472459E+03  0.20610717244E+03  0.38347923517E+03  0.45432989770E+03  0.78878116426E+02 0.  0.
         24    2    4    4    0    0  0.39600512708E+03 -0.54054452192E+03  0.18342752454E+03  0.69912665922E+03  0.78255913593E+02 0.  0.
         13    1    3    3    0    0 -0.74045048341E+02  0.12974221361E+03 -0.13753688721E+03  0.20305690463E+03  0.00000000000E+00 0.  1.
        -13    1    3    3    0    0 -0.21872535415E+03  0.20469513588E+03 -0.15930825683E+03  0.33929338321E+03  0.00000000000E+00 0. -1.
          2    1    6    6  502    0  0.37343973798E+03 -0.48550832355E+03  0.18428521353E+03  0.63963787416E+03  0.00000000000E+00 0. -1.
          3    1    5    5  503    0 -0.11227859777E+03  0.18981716189E+03  0.37195868712E+03  0.43242375442E+03  0.00000000000E+00 0. -1.
         -4    1    5    5    0  503  0.90438731879E+01  0.16290010556E+02  0.11520548046E+02  0.21906143280E+02  0.00000000000E+00 0.  1.
         -1    1    6    6    0  502  0.22565389102E+02 -0.55036198371E+02 -0.85768899082E+00  0.59488785051E+02  0.00000000000E+00 0.  1.
<mgrwt>
<rscale>  0 0.16741647E+04</rscale>
<asrwt>0</asrwt>
<pdfrwt beam="1">  1        2 0.10967271E+00 0.16741647E+04</pdfrwt>
<pdfrwt beam="2">  1       -2 0.15122065E+00 0.16741647E+04</pdfrwt>
<totfact> 0.11186915E+01</totfact>
</mgrwt>
</event>
<event>
12    1  0.1536832E-007  0.2024801E+04  0.7818608E-02  0.8595112E-01
         -2   -1    0    0    0  501 -0.00000000000E+00  0.00000000000E+00  0.30640726817E+03  0.30640726817E+03  0.00000000000E+00 0. -1.
          2   -1    0    0  501    0  0.00000000000E+00 -0.00000000000E+00 -0.33450733926E+04  0.33450733926E+04  0.00000000000E+00 0.  1.
         23    2    1    2    0    0  0.51823986916E+03 -0.13166042465E+03 -0.13336726613E+03  0.56277693217E+03  0.11412282110E+03 0.  0.
        254    2    1    2    0    0 -0.51823986916E+03  0.13166042465E+03 -0.29052988583E+04  0.30887037286E+04  0.90189923920E+03 0.  0.
        -24    2    4    4    0    0 -0.33010168607E+03  0.13862110434E+03 -0.28542012187E+04  0.28776806324E+04  0.79989322484E+02 0.  0.
         24    2    4    4    0    0 -0.18813818310E+03 -0.69606796896E+01 -0.51097639596E+02  0.21102309618E+03  0.80469567832E+02 0.  0.
         11    1    3    3    0    0  0.24378548304E+03 -0.88737553571E+02 -0.11674087937E+03  0.28448927584E+03  0.00000000000E+00 0. -1.
        -11    1    3    3    0    0  0.27445438613E+03 -0.42922871076E+02 -0.16626386756E+02  0.27828765632E+03  0.00000000000E+00 0.  1.
          2    1    6    6  502    0 -0.92336977540E+02  0.33986249449E+02 -0.95358521018E+01  0.98854008761E+02  0.00000000000E+00 0. -1.
          3    1    5    5  503    0 -0.16550021820E+03  0.46605175388E+02 -0.10974071291E+04  0.11107946577E+04  0.00000000000E+00 0. -1.
         -4    1    5    5    0  503 -0.16460146787E+03  0.92015928948E+02 -0.17567940895E+04  0.17668859747E+04  0.00000000000E+00 0.  1.
         -1    1    6    6    0  502 -0.95801205558E+02 -0.40946929138E+02 -0.41561787494E+02  0.11216908742E+03  0.00000000000E+00 0.  1.
<mgrwt>
<rscale>  0 0.20248010E+04</rscale>
<asrwt>0</asrwt>
<pdfrwt beam="1">  1        2 0.51462669E+00 0.20248010E+04</pdfrwt>
<pdfrwt beam="2">  1       -2 0.47139579E-01 0.20248010E+04</pdfrwt>
<totfact> 0.41261699E+00</totfact>
</mgrwt>
</event>
<event>
12    1  0.1536832E-007  0.1523451E+04  0.7818608E-02  0.8869006E-01
         -1   -1    0    0    0  501 -0.00000000000E+00  0.00000000000E+00  0.32728211348E+03  0.32728211348E+03  0.00000000000E+00 0.  1.
          1   -1    0    0  501    0  0.00000000000E+00 -0.00000000000E+00 -0.17728622326E+04  0.17728622326E+04  0.00000000000E+00 0. -1.
         23    2    1    2    0    0 -0.21190125197E+03 -0.14257701154E+03 -0.11559202444E+04  0.11858901181E+04  0.70380508606E+02 0.  0.
        254    2    1    2    0    0  0.21190125197E+03  0.14257701154E+03 -0.28965987467E+03  0.91425422793E+03  0.82869029527E+03 0.  0.
        -24    2    4    4    0    0 -0.25608218052E+03  0.10627057281E+03 -0.32669000587E+03  0.43619838618E+03  0.81677134777E+02 0.  0.
         24    2    4    4    0    0  0.46798343249E+03  0.36306438737E+02  0.37030131201E+02  0.47805584175E+03  0.82701309750E+02 0.  0.
         11    1    3    3    0    0 -0.17395661015E+02  0.10897242911E+01 -0.34008460668E+02  0.38214812811E+02  0.00000000000E+00 0.  1.
        -11    1    3    3    0    0 -0.19450559096E+03 -0.14366673583E+03 -0.11219117838E+04  0.11476753053E+04  0.00000000000E+00 0. -1.
          2    1    6    6  502    0  0.17064350763E+03  0.52022317874E+02  0.36366305490E+01  0.17843417087E+03  0.00000000000E+00 0. -1.
          3    1    5    5  503    0 -0.11649606412E+03  0.50475178672E+01 -0.13030009464E+03  0.17485687019E+03  0.00000000000E+00 0. -1.
         -2    1    5    5    0  503 -0.13958611640E+03  0.10122305494E+03 -0.19638991123E+03  0.26134151598E+03  0.00000000000E+00 0.  1.
         -1    1    6    6    0  502  0.29733992486E+03 -0.15715879137E+02  0.33393500652E+02  0.29962167088E+03  0.00000000000E+00 0.  1.
<mgrwt>
<rscale>  0 0.15234515E+04</rscale>
<asrwt>0</asrwt>
<pdfrwt beam="1">  1        1 0.27274804E+00 0.15234515E+04</pdfrwt>
<pdfrwt beam="2">  1       -1 0.50351093E-01 0.15234515E+04</pdfrwt>
<totfact> 0.16258073E+01</totfact>
</mgrwt>
</event>
<event>
12    1  0.1536832E-007  0.1982520E+04  0.7818608E-02  0.8614837E-01
          1   -1    0    0  501    0  0.00000000000E+00  0.00000000000E+00  0.13998788859E+04  0.13998788859E+04  0.00000000000E+00 0. -1.
         -1   -1    0    0    0  501 -0.00000000000E+00 -0.00000000000E+00 -0.70191557483E+03  0.70191557483E+03  0.00000000000E+00 0.  1.
         23    2    1    2    0    0  0.15496989666E+03  0.67355986993E+03 -0.10918798688E+03  0.70563307835E+03  0.91090381100E+02 0.  0.
        254    2    1    2    0    0 -0.15496989666E+03 -0.67355986993E+03  0.80715129791E+03  0.13961613823E+04  0.90557982563E+03 0.  0.
        -24    2    4    4    0    0 -0.17642018724E+03  0.11431250625E+03  0.49638595253E+03  0.54512642194E+03  0.81070157739E+02 0.  0.
         24    2    4    4    0    0  0.21450290582E+02 -0.78787237618E+03  0.31076534538E+03  0.85103496041E+03  0.80513401589E+02 0.  0.
         11    1    3    3    0    0  0.73389278928E+02  0.25285679424E+03  0.44342721274E+00  0.26329212157E+03  0.00000000000E+00 0. -1.
        -11    1    3    3    0    0  0.81580617731E+02  0.42070307569E+03 -0.10963141409E+03  0.44234095677E+03  0.00000000000E+00 0.  1.
          2    1    6    6  502    0  0.46672144162E+02 -0.28818025443E+03  0.11555641613E+03  0.31397361894E+03  0.00000000000E+00 0. -1.
          1    1    5    5  503    0 -0.12981625634E+03  0.39772516209E+02  0.26859453998E+03  0.30096036344E+03  0.00000000000E+00 0. -1.
         -2    1    5    5    0  503 -0.46603930900E+02  0.74539990039E+02  0.22779141255E+03  0.24416605850E+03  0.00000000000E+00 0.  1.
         -1    1    6    6    0  502 -0.25221853581E+02 -0.49969212175E+03  0.19520892926E+03  0.53706134147E+03  0.00000000000E+00 0.  1.
<mgrwt>
<rscale>  0 0.19825204E+04</rscale>
<asrwt>0</asrwt>
<pdfrwt beam="1">  1        1 0.21536598E+00 0.19825204E+04</pdfrwt>
<pdfrwt beam="2">  1       -1 0.10798701E+00 0.19825204E+04</pdfrwt>
<totfact> 0.56913308E+00</totfact>
</mgrwt>
</event>
<event>
12    1  0.1536832E-007  0.1825150E+04  0.7818608E-02  0.8693038E-01
          1   -1    0    0  501    0  0.00000000000E+00  0.00000000000E+00  0.11737133582E+04  0.11737133582E+04  0.00000000000E+00 0. -1.
         -1   -1    0    0    0  501 -0.00000000000E+00 -0.00000000000E+00 -0.70953715190E+03  0.70953715190E+03  0.00000000000E+00 0.  1.
         23    2    1    2    0    0  0.47767231661E+02 -0.41470496580E+03  0.73861946306E+03  0.85398773282E+03  0.97336629846E+02 0.  0.
        254    2    1    2    0    0 -0.47767231661E+02  0.41470496580E+03 -0.27444325679E+03  0.10292627773E+04  0.89988935229E+03 0.  0.
        -24    2    4    4    0    0  0.10846937325E+03  0.63625910241E+03 -0.22474767111E+02  0.65074708635E+03  0.79846132747E+02 0.  0.
         24    2    4    4    0    0 -0.15623660491E+03 -0.22155413661E+03 -0.25196848968E+03  0.37851569090E+03  0.79308866449E+02 0.  0.
         11    1    3    3    0    0  0.40571286655E+02 -0.15981399566E+03  0.20925596684E+03  0.26641058944E+03  0.00000000000E+00 0. -1.
        -11    1    3    3    0    0  0.71959450055E+01 -0.25489097014E+03  0.52936349622E+03  0.58757714337E+03  0.00000000000E+00 0.  1.
          4    1    6    6  502    0 -0.97357523844E+02 -0.16944670844E+03 -0.21827401557E+03  0.29297477762E+03  0.00000000000E+00 0. -1.
          1    1    5    5  503    0  0.11848070806E+03  0.60523374620E+03 -0.13239926194E+02  0.61686372998E+03  0.00000000000E+00 0. -1.
         -2    1    5    5    0  503 -0.10011334808E+02  0.31025356209E+02 -0.92348409171E+01  0.33883356376E+02  0.00000000000E+00 0.  1.
         -3    1    6    6    0  502 -0.58879081070E+02 -0.52107428166E+02 -0.33694474118E+02  0.85540913275E+02  0.00000000000E+00 0.  1.
<mgrwt>
<rscale>  0 0.18251501E+04</rscale>
<asrwt>0</asrwt>
<pdfrwt beam="1">  1        1 0.18057129E+00 0.18251501E+04</pdfrwt>
<pdfrwt beam="2">  1       -1 0.10915956E+00 0.18251501E+04</pdfrwt>
<totfact> 0.81759041E+00</totfact>
</mgrwt>
</event>
<event>
12    1  0.1536832E-007  0.1814260E+04  0.7818608E-02  0.8698753E-01
          1   -1    0    0  501    0  0.00000000000E+00  0.00000000000E+00  0.15898896250E+04  0.15898896250E+04  0.00000000000E+00 0. -1.
         -1   -1    0    0    0  501 -0.00000000000E+00 -0.00000000000E+00 -0.51757335737E+03  0.51757335737E+03  0.00000000000E+00 0.  1.
         23    2    1    2    0    0  0.54904667231E+03  0.45132404215E+02 -0.39697785750E+02  0.55968366694E+03  0.90447280561E+02 0.  0.
        254    2    1    2    0    0 -0.54904667231E+03 -0.45132404215E+02  0.11120140534E+04  0.15477793155E+04  0.92496290310E+03 0.  0.
        -24    2    4    4    0    0 -0.80106099899E+03 -0.81361653925E+02  0.85997391148E+03  0.11808486312E+04  0.80807912037E+02 0.  0.
         24    2    4    4    0    0  0.25201432668E+03  0.36229249711E+02  0.25204014194E+03  0.36693068423E+03  0.79310242026E+02 0.  0.
         13    1    3    3    0    0  0.16975553341E+03 -0.48457773752E+01  0.25086087703E+02  0.17166751142E+03  0.00000000000E+00 0. -1.
        -13    1    3    3    0    0  0.37929113889E+03  0.49978181590E+02 -0.64783873453E+02  0.38801615551E+03  0.00000000000E+00 0.  1.
          2    1    6    6  502    0  0.43129474487E+02  0.34881399786E+02  0.34425558706E+02  0.65283862576E+02  0.00000000000E+00 0. -1.
          1    1    5    5  503    0 -0.21376861343E+03 -0.25713784797E+02  0.17998088346E+03  0.28062668659E+03  0.00000000000E+00 0. -1.
         -2    1    5    5    0  503 -0.58729238556E+03 -0.55647869129E+02  0.67999302802E+03  0.90022194465E+03  0.00000000000E+00 0.  1.
         -1    1    6    6    0  502  0.20888485220E+03  0.13478499244E+01  0.21761458323E+03  0.30164682165E+03  0.00000000000E+00 0.  1.
<mgrwt>
<rscale>  0 0.18142596E+04</rscale>
<asrwt>0</asrwt>
<pdfrwt beam="1">  1        1 0.24459840E+00 0.18142596E+04</pdfrwt>
<pdfrwt beam="2">  1       -1 0.79626671E-01 0.18142596E+04</pdfrwt>
<totfact> 0.84189126E+00</totfact>
</mgrwt>
</event>
<event>
12    1  0.1536832E-007  0.2118756E+04  0.7818608E-02  0.8553026E-01
         -1   -1    0    0    0  501 -0.00000000000E+00  0.00000000000E+00  0.76759532204E+03  0.76759532204E+03  0.00000000000E+00 0.  1.
          1   -1    0    0  501    0  0.00000000000E+00 -0.00000000000E+00 -0.14620754127E+04  0.14620754127E+04  0.00000000000E+00 0. -1.
         23    2    1    2    0    0 -0.46271658050E+03 -0.18495052572E+02  0.49308620188E+03  0.68205614621E+03  0.87280486184E+02 0.  0.
        254    2    1    2    0    0  0.46271658050E+03  0.18495052572E+02 -0.11875662925E+04  0.15476145885E+04  0.87769500089E+03 0.  0.
        -24    2    4    4    0    0  0.27134045583E+03  0.23270625114E+03 -0.47610887911E+02  0.36934746230E+03  0.79830501460E+02 0.  0.
         24    2    4    4    0    0  0.19137612466E+03 -0.21421119857E+03 -0.11399554046E+04  0.11782671262E+04  0.79396709750E+02 0.  0.
         11    1    3    3    0    0 -0.71820948231E+02  0.13438802099E+02  0.12152530413E+03  0.14180003368E+03  0.00000000000E+00 0. -1.
        -11    1    3    3    0    0 -0.39089563227E+03 -0.31933854671E+02  0.37156089775E+03  0.54025611254E+03  0.00000000000E+00 0.  1.
          4    1    6    6  502    0  0.19900300251E+03 -0.20967536608E+03 -0.11100213915E+04  0.11470455282E+04  0.00000000000E+00 0. -1.
          3    1    5    5  503    0  0.23920457412E+03  0.16720365032E+03 -0.24786638509E+02  0.29289975488E+03  0.00000000000E+00 0. -1.
         -4    1    5    5    0  503  0.32135881711E+02  0.65502600824E+02 -0.22824249402E+02  0.76447707413E+02  0.00000000000E+00 0.  1.
         -3    1    6    6    0  502 -0.76268778470E+01 -0.45358324963E+01 -0.29934013126E+02  0.31221598036E+02  0.00000000000E+00 0.  1.
<mgrwt>
<rscale>  0 0.21187565E+04</rscale>
<asrwt>0</asrwt>
<pdfrwt beam="1">  1        1 0.22493468E+00 0.21187565E+04</pdfrwt>
<pdfrwt beam="2">  1       -1 0.11809159E+00 0.21187565E+04</pdfrwt>
<totfact> 0.41092929E+00</totfact>
</mgrwt>
</event>
<event>
12    1  0.1536832E-007  0.2827852E+04  0.7818608E-02  0.8294673E-01
          2   -1    0    0  501    0  0.00000000000E+00  0.00000000000E+00  0.27849318733E+04  0.27849318733E+04  0.00000000000E+00 0. -1.
         -2   -1    0    0    0  501 -0.00000000000E+00 -0.00000000000E+00 -0.71785864159E+03  0.71785864159E+03  0.00000000000E+00 0.  1.
         23    2    1    2    0    0 -0.80818568617E+03  0.83140026621E+03  0.30147430204E+03  0.12008629324E+04  0.82428888921E+02 0.  0.
        254    2    1    2    0    0  0.80818568617E+03 -0.83140026621E+03  0.17655989297E+04  0.23019275824E+04  0.91495382858E+03 0.  0.
        -24    2    4    4    0    0  0.47074587345E+03 -0.37824468475E+03  0.20925736741E+03  0.64414324146E+03  0.80381283793E+02 0.  0.
         24    2    4    4    0    0  0.33743981272E+03 -0.45315558145E+03  0.15563415622E+04  0.16577843410E+04  0.82669550881E+02 0.  0.
         11    1    3    3    0    0 -0.43000088041E+03  0.39288399942E+03  0.12785307731E+03  0.59632625595E+03  0.00000000000E+00 0.  1.
        -11    1    3    3    0    0 -0.37818480576E+03  0.43851626679E+03  0.17362122473E+03  0.60453667649E+03  0.00000000000E+00 0. -1.
          4    1    6    6  502    0  0.11559134689E+03 -0.10979374542E+03  0.51357910419E+03  0.53775414668E+03  0.00000000000E+00 0. -1.
          1    1    5    5  503    0  0.74622419498E+02 -0.38121879387E+02  0.65030210736E+01  0.84048036639E+02  0.00000000000E+00 0. -1.
         -2    1    5    5    0  503  0.39612345395E+03 -0.34012280537E+03  0.20275434634E+03  0.56009520482E+03  0.00000000000E+00 0.  1.
         -3    1    6    6    0  502  0.22184846584E+03 -0.34336183604E+03  0.10427624580E+04  0.11200301943E+04  0.00000000000E+00 0.  1.
<mgrwt>
<rscale>  0 0.28278525E+04</rscale>
<asrwt>0</asrwt>
<pdfrwt beam="1">  1        2 0.42845105E+00 0.28278525E+04</pdfrwt>
<pdfrwt beam="2">  1       -2 0.11043979E+00 0.28278525E+04</pdfrwt>
<totfact> 0.13335060E+00</totfact>
</mgrwt>
</event>
<event>
12    1  0.1536832E-007  0.1459015E+04  0.7818608E-02  0.8912175E-01
         -2   -1    0    0    0  501 -0.00000000000E+00  0.00000000000E+00  0.31835378464E+03  0.31835378464E+03  0.00000000000E+00 0.  1.
          2   -1    0    0  501    0  0.00000000000E+00 -0.00000000000E+00 -0.16716654021E+04  0.16716654021E+04  0.00000000000E+00 0. -1.
         23    2    1    2    0    0 -0.22520711684E+03  0.36746476259E+03 -0.52241110155E+03  0.68323023140E+03  0.90230775547E+02 0.  0.
        254    2    1    2    0    0  0.22520711684E+03 -0.36746476259E+03 -0.83090051591E+03  0.13067889553E+04  0.91189533897E+03 0.  0.
        -24    2    4    4    0    0 -0.11067467016E+03 -0.55662957585E+03 -0.30288552094E+03  0.64816847463E+03  0.79355941097E+02 0.  0.
         24    2    4    4    0    0  0.33588178700E+03  0.18916481325E+03 -0.52801499498E+03  0.65862048071E+03  0.79882421612E+02 0.  0.
         11    1    3    3    0    0 -0.19645073327E+03  0.28946413768E+03 -0.46627543585E+03  0.58291951390E+03  0.00000000000E+00 0. -1.
        -11    1    3    3    0    0 -0.28756383566E+02  0.78000624909E+02 -0.56135665700E+02  0.10031071750E+03  0.00000000000E+00 0.  1.
          2    1    6    6  502    0  0.23402199781E+03  0.88625065117E+02 -0.34844080370E+03  0.42898915057E+03  0.00000000000E+00 0. -1.
          1    1    5    5  503    0 -0.51428031926E+01 -0.11824983530E+02  0.46627656302E+01  0.13712040092E+02  0.00000000000E+00 0. -1.
         -2    1    5    5    0  503 -0.10553186697E+03 -0.54480459232E+03 -0.30754828657E+03  0.63445643454E+03  0.00000000000E+00 0.  1.
         -1    1    6    6    0  502  0.10185978919E+03  0.10053974814E+03 -0.17957419128E+03  0.22963133014E+03  0.00000000000E+00 0.  1.
<mgrwt>
<rscale>  0 0.14590147E+04</rscale>
<asrwt>0</asrwt>
<pdfrwt beam="1">  1        2 0.25717929E+00 0.14590147E+04</pdfrwt>
<pdfrwt beam="2">  1       -2 0.48977505E-01 0.14590147E+04</pdfrwt>
<totfact> 0.38896987E+01</totfact>
</mgrwt>
</event>
<event>
12    1  0.1536832E-007  0.1320080E+04  0.7818608E-02  0.9013791E-01
          1   -1    0    0  501    0  0.00000000000E+00  0.00000000000E+00  0.60614670199E+03  0.60614670199E+03  0.00000000000E+00 0. -1.
         -1   -1    0    0    0  501 -0.00000000000E+00 -0.00000000000E+00 -0.71872521060E+03  0.71872521060E+03  0.00000000000E+00 0.  1.
         23    2    1    2    0    0  0.12394458581E+03 -0.33971913056E+03 -0.40187438095E+02  0.37449226585E+03  0.88645806350E+02 0.  0.
        254    2    1    2    0    0 -0.12394458581E+03  0.33971913056E+03 -0.72391070518E+02  0.95037964674E+03  0.87590505069E+03 0.  0.
        -24    2    4    4    0    0 -0.25111909576E+03 -0.16480377973E+03  0.18821952308E+03  0.36304656644E+03  0.78454665037E+02 0.  0.
         24    2    4    4    0    0  0.12717450995E+03  0.50452291029E+03 -0.26061059359E+03  0.58733308030E+03  0.79533280697E+02 0.  0.
         13    1    3    3    0    0  0.52685511666E+02 -0.81559363231E+02 -0.44118173079E+02  0.10664945413E+03  0.00000000000E+00 0.  1.
        -13    1    3    3    0    0  0.71259074141E+02 -0.25815976733E+03  0.39307349837E+01  0.26784281172E+03  0.00000000000E+00 0. -1.
          2    1    6    6  502    0  0.87997597000E+02  0.37656958896E+03 -0.15403870366E+03  0.41626452483E+03  0.00000000000E+00 0. -1.
          1    1    5    5  503    0 -0.24794248315E+03 -0.14743663368E+03  0.18982107332E+03  0.34531880310E+03  0.00000000000E+00 0. -1.
         -2    1    5    5    0  503 -0.31766126166E+01 -0.17367146051E+02 -0.16015502476E+01  0.17727763335E+02  0.00000000000E+00 0.  1.
         -1    1    6    6    0  502  0.39176912955E+02  0.12795332133E+03 -0.10657188994E+03  0.17106855547E+03  0.00000000000E+00 0.  1.
<mgrwt>
<rscale>  0 0.13200802E+04</rscale>
<asrwt>0</asrwt>
<pdfrwt beam="1">  1        1 0.93253340E-01 0.13200802E+04</pdfrwt>
<pdfrwt beam="2">  1       -1 0.11057311E+00 0.13200802E+04</pdfrwt>
<totfact> 0.24968411E+01</totfact>
</mgrwt>
</event>
<event>
12    1  0.1536832E-007  0.2142198E+04  0.7818608E-02  0.8542879E-01
         -1   -1    0    0    0  501 -0.00000000000E+00  0.00000000000E+00  0.25048348910E+04  0.25048348910E+04  0.00000000000E+00 0.  1.
          1   -1    0    0  501    0  0.00000000000E+00 -0.00000000000E+00 -0.45801559456E+03  0.45801559456E+03  0.00000000000E+00 0. -1.
         23    2    1    2    0    0  0.21199001275E+02 -0.30825860123E+03 -0.29586629147E+03  0.43758546239E+03  0.92040271531E+02 0.  0.
        254    2    1    2    0    0 -0.21199001275E+02  0.30825860123E+03  0.23426855879E+04  0.25252650232E+04  0.89068227253E+03 0.  0.
        -24    2    4    4    0    0  0.20382102099E+03 -0.22516734943E+03  0.12170974949E+04  0.12568209679E+04  0.77648499489E+02 0.  0.
         24    2    4    4    0    0 -0.22502002227E+03  0.53342595066E+03  0.11255880930E+04  0.12684440553E+04  0.82610598175E+02 0.  0.
         13    1    3    3    0    0  0.11013735296E+02 -0.14009751532E+03 -0.73448063354E+02  0.15856618232E+03  0.00000000000E+00 0.  1.
        -13    1    3    3    0    0  0.10185265979E+02 -0.16816108591E+03 -0.22241822811E+03  0.27901928008E+03  0.00000000000E+00 0. -1.
          4    1    6    6  502    0  0.24740950660E+01  0.23121327189E+02  0.75084781319E+02  0.78603061665E+02  0.00000000000E+00 0. -1.
          3    1    5    5  503    0 -0.71093018898E+01 -0.60941144523E+01  0.34861980420E+02  0.36097618802E+02  0.00000000000E+00 0. -1.
         -4    1    5    5    0  503  0.21093032288E+03 -0.21907323498E+03  0.11822355145E+04  0.12207233491E+04  0.00000000000E+00 0.  1.
         -3    1    6    6    0  502 -0.22749411733E+03  0.51030462347E+03  0.10505033117E+04  0.11898409936E+04  0.00000000000E+00 0.  1.
<mgrwt>
<rscale>  0 0.21421983E+04</rscale>
<asrwt>0</asrwt>
<pdfrwt beam="1">  1        1 0.70463939E-01 0.21421983E+04</pdfrwt>
<pdfrwt beam="2">  1       -1 0.38535921E+00 0.21421983E+04</pdfrwt>
<totfact> 0.41275502E-01</totfact>
</mgrwt>
</event>
<event>
12    1  0.1536832E-007  0.1555406E+04  0.7818608E-02  0.8848422E-01
          1   -1    0    0  501    0  0.00000000000E+00  0.00000000000E+00  0.21820309014E+04  0.21820309014E+04  0.00000000000E+00 0. -1.
         -1   -1    0    0    0  501 -0.00000000000E+00 -0.00000000000E+00 -0.27718289152E+03  0.27718289152E+03  0.00000000000E+00 0.  1.
         23    2    1    2    0    0  0.33979380844E+03  0.23628358989E+03  0.11542759344E+04  0.12296875375E+04  0.92134358386E+02 0.  0.
        254    2    1    2    0    0 -0.33979380844E+03 -0.23628358989E+03  0.75057207548E+03  0.12295262554E+04  0.88152515858E+03 0.  0.
        -24    2    4    4    0    0 -0.34184173672E+03 -0.43195520767E+03  0.12667453942E+03  0.57083036339E+03  0.79748294256E+02 0.  0.
         24    2    4    4    0    0  0.20479282765E+01  0.19567161778E+03  0.62389753606E+03  0.65869589204E+03  0.79627675270E+02 0.  0.
         13    1    3    3    0    0  0.18463248246E+03  0.72781979397E+02  0.52487080754E+03  0.56113789278E+03  0.00000000000E+00 0. -1.
        -13    1    3    3    0    0  0.15516132598E+03  0.16350161049E+03  0.62940512688E+03  0.66854964472E+03  0.00000000000E+00 0.  1.
          4    1    6    6  502    0 -0.60121737400E+01  0.87766998098E+01  0.13200040716E+03  0.13242841154E+03  0.00000000000E+00 0. -1.
          3    1    5    5  503    0 -0.32548245701E+02 -0.27901665203E+02 -0.98550320897E+01  0.43988781261E+02  0.00000000000E+00 0. -1.
         -4    1    5    5    0  503 -0.30929349101E+03 -0.40405354247E+03  0.13652957150E+03  0.52684158213E+03  0.00000000000E+00 0.  1.
         -3    1    6    6    0  502  0.80601020165E+01  0.18689491797E+03  0.49189712890E+03  0.52626748050E+03  0.00000000000E+00 0.  1.
<mgrwt>
<rscale>  0 0.15554056E+04</rscale>
<asrwt>0</asrwt>
<pdfrwt beam="1">  1        1 0.33569705E+00 0.15554056E+04</pdfrwt>
<pdfrwt beam="2">  1       -1 0.42643523E-01 0.15554056E+04</pdfrwt>
<totfact> 0.11693588E+01</totfact>
</mgrwt>
</event>
<event>
12    1  0.1536832E-007  0.1416568E+04  0.7818608E-02  0.8941912E-01
         -1   -1    0    0    0  501 -0.00000000000E+00  0.00000000000E+00  0.34721696834E+03  0.34721696834E+03  0.00000000000E+00 0.  1.
          1   -1    0    0  501    0  0.00000000000E+00 -0.00000000000E+00 -0.14448202620E+04  0.14448202620E+04  0.00000000000E+00 0. -1.
         23    2    1    2    0    0 -0.38640454892E+03  0.26941397687E+01 -0.14962946629E+03  0.42441183939E+03  0.91764363555E+02 0.  0.
        254    2    1    2    0    0  0.38640454892E+03 -0.26941397687E+01 -0.94797382734E+03  0.13676253909E+04  0.90687876741E+03 0.  0.
        -24    2    4    4    0    0  0.12383408697E+03  0.16927557071E+03 -0.10127617781E+04  0.10372149898E+04  0.78354425976E+02 0.  0.
         24    2    4    4    0    0  0.26257046195E+03 -0.17196971048E+03  0.64787950711E+02  0.33041040112E+03  0.80353754113E+02 0.  0.
         13    1    3    3    0    0 -0.27723748028E+03  0.40510517422E+02 -0.89245979782E+02  0.29405198078E+03  0.00000000000E+00 0.  1.
        -13    1    3    3    0    0 -0.10916706864E+03 -0.37816377653E+02 -0.60383486508E+02  0.13035985861E+03  0.00000000000E+00 0. -1.
          2    1    6    6  502    0  0.25440977370E+03 -0.17905527748E+03  0.55198784271E+02  0.31596207230E+03  0.00000000000E+00 0. -1.
          1    1    5    5  503    0  0.48183499012E+02  0.12454027952E+03 -0.68369208515E+03  0.69661093739E+03  0.00000000000E+00 0. -1.
         -2    1    5    5    0  503  0.75650587956E+02  0.44735291184E+02 -0.32906969291E+03  0.34060405242E+03  0.00000000000E+00 0.  1.
         -1    1    6    6    0  502  0.81606882513E+01  0.70855670087E+01  0.95891664400E+01  0.14448328816E+02  0.00000000000E+00 0.  1.
<mgrwt>
<rscale>  0 0.14165678E+04</rscale>
<asrwt>0</asrwt>
<pdfrwt beam="1">  1        1 0.22228004E+00 0.14165678E+04</pdfrwt>
<pdfrwt beam="2">  1       -1 0.53417996E-01 0.14165678E+04</pdfrwt>
<totfact> 0.24602873E+01</totfact>
</mgrwt>
</event>
<event>
12    1  0.1536832E-007  0.1639076E+04  0.7818608E-02  0.8796895E-01
         -1   -1    0    0    0  501 -0.00000000000E+00  0.00000000000E+00  0.47230030888E+03  0.47230030888E+03  0.00000000000E+00 0.  1.
          1   -1    0    0  501    0  0.00000000000E+00 -0.00000000000E+00 -0.14220666589E+04  0.14220666589E+04  0.00000000000E+00 0. -1.
         23    2    1    2    0    0  0.12657646800E+03  0.11737065502E+03  0.29141675320E+03  0.35076438405E+03  0.91183639743E+02 0.  0.
        254    2    1    2    0    0 -0.12657646800E+03 -0.11737065502E+03 -0.12411831032E+04  0.15436025837E+04  0.90131901561E+03 0.  0.
        -24    2    4    4    0    0  0.19252321273E+03 -0.42049779346E+03 -0.66754845877E+03  0.81597770513E+03  0.79467532467E+02 0.  0.
         24    2    4    4    0    0 -0.31909968074E+03  0.30312713844E+03 -0.57363464445E+03  0.72762487861E+03  0.81673682145E+02 0.  0.
         13    1    3    3    0    0  0.24032388847E+02  0.55057790871E+02  0.39975816995E+02  0.72159420685E+02  0.00000000000E+00 0. -1.
        -13    1    3    3    0    0  0.10254407915E+03  0.62312864147E+02  0.25144093621E+03  0.27860496336E+03  0.00000000000E+00 0.  1.
          2    1    6    6  502    0 -0.82239475470E+01  0.35493734404E+02 -0.34508994814E+02  0.50182758177E+02  0.00000000000E+00 0. -1.
          1    1    5    5  503    0  0.84441922048E+02 -0.24470900199E+03 -0.31779981182E+03  0.40988980744E+03  0.00000000000E+00 0. -1.
         -2    1    5    5    0  503  0.10808129069E+03 -0.17578879147E+03 -0.34974864695E+03  0.40608789769E+03  0.00000000000E+00 0.  1.
         -1    1    6    6    0  502 -0.31087573319E+03  0.26763340404E+03 -0.53912564964E+03  0.67744212044E+03  0.00000000000E+00 0.  1.
<mgrwt>
<rscale>  0 0.16390760E+04</rscale>
<asrwt>0</asrwt>
<pdfrwt beam="1">  1        1 0.21877948E+00 0.16390760E+04</pdfrwt>
<pdfrwt beam="2">  1       -1 0.72661586E-01 0.16390760E+04</pdfrwt>
<totfact> 0.13543325E+01</totfact>
</mgrwt>
</event>
<event>
12    1  0.1536832E-007  0.2302829E+04  0.7818608E-02  0.8476806E-01
          1   -1    0    0  501    0  0.00000000000E+00  0.00000000000E+00  0.13139732441E+04  0.13139732441E+04  0.00000000000E+00 0. -1.
         -1   -1    0    0    0  501 -0.00000000000E+00 -0.00000000000E+00 -0.10089669701E+04  0.10089669701E+04  0.00000000000E+00 0.  1.
         23    2    1    2    0    0 -0.13718709707E+03 -0.56768169667E+03 -0.67350030829E+03  0.89587428067E+03  0.88911490592E+02 0.  0.
        254    2    1    2    0    0  0.13718709707E+03  0.56768169667E+03  0.97850658227E+03  0.14270659336E+04  0.85904553952E+03 0.  0.
        -24    2    4    4    0    0  0.26017118528E+03 -0.83091210955E+02  0.58097082073E+02  0.29037288238E+03  0.79673991274E+02 0.  0.
         24    2    4    4    0    0 -0.12298408821E+03  0.65077290763E+03  0.92040950019E+03  0.11366930512E+04  0.79290487479E+02 0.  0.
         11    1    3    3    0    0 -0.57267948020E+02 -0.38568062282E+03 -0.48075602841E+03  0.61899557312E+03  0.00000000000E+00 0.  1.
        -11    1    3    3    0    0 -0.79919149050E+02 -0.18200107385E+03 -0.19274427988E+03  0.27687870755E+03  0.00000000000E+00 0. -1.
          2    1    6    6  502    0  0.84491951957E+01  0.72901859250E+02  0.82950977914E+02  0.11075619494E+03  0.00000000000E+00 0. -1.
          3    1    5    5  503    0  0.86577141305E+02 -0.50280188987E+02 -0.10899706765E+02  0.10070999160E+03  0.00000000000E+00 0. -1.
         -4    1    5    5    0  503  0.17359404398E+03 -0.32811021968E+02  0.68996788837E+02  0.18966289077E+03  0.00000000000E+00 0.  1.
         -1    1    6    6    0  502 -0.13143328341E+03  0.57787104838E+03  0.83745852228E+03  0.10259368563E+04  0.00000000000E+00 0.  1.
<mgrwt>
<rscale>  0 0.23028292E+04</rscale>
<asrwt>0</asrwt>
<pdfrwt beam="1">  1        1 0.20214973E+00 0.23028292E+04</pdfrwt>
<pdfrwt beam="2">  1       -1 0.15522569E+00 0.23028292E+04</pdfrwt>
<totfact> 0.25393206E+00</totfact>
</mgrwt>
</event>
<event>
12    1  0.1536832E-007  0.1472011E+04  0.7818608E-02  0.8903281E-01
          2   -1    0    0  501    0  0.00000000000E+00  0.00000000000E+00  0.18288263930E+04  0.18288263930E+04  0.00000000000E+00 0. -1.
         -2   -1    0    0    0  501 -0.00000000000E+00 -0.00000000000E+00 -0.29620325228E+03  0.29620325228E+03  0.00000000000E+00 0.  1.
         23    2    1    2    0    0  0.41326494661E+03 -0.20947082996E+02  0.20948433030E+03  0.47252728431E+03  0.90397197948E+02 0.  0.
        254    2    1    2    0    0 -0.41326494661E+03  0.20947082996E+02  0.13231388104E+04  0.16525023610E+04  0.89935590564E+03 0.  0.
        -24    2    4    4    0    0 -0.28778525278E+03 -0.30260620334E+03  0.12037504748E+04  0.12766417244E+04  0.80050114733E+02 0.  0.
         24    2    4    4    0    0 -0.12547969383E+03  0.32355328633E+03  0.11938833566E+03  0.37586063661E+03  0.81152700545E+02 0.  0.
         11    1    3    3    0    0  0.23486227172E+03  0.24272311806E+01  0.16542732734E+03  0.28728449098E+03  0.00000000000E+00 0.  1.
        -11    1    3    3    0    0  0.17840267489E+03 -0.23374314176E+02  0.44057002962E+02  0.18524279333E+03  0.00000000000E+00 0. -1.
          2    1    6    6  502    0 -0.39093405346E+01  0.61657573835E+02  0.48514193774E+02  0.78552952536E+02  0.00000000000E+00 0. -1.
          1    1    5    5  503    0 -0.82074604819E+02 -0.12552462500E+03  0.34991208651E+03  0.38069822763E+03  0.00000000000E+00 0. -1.
         -2    1    5    5    0  503 -0.20571064796E+03 -0.17708157834E+03  0.85383838826E+03  0.89594349674E+03  0.00000000000E+00 0.  1.
         -1    1    6    6    0  502 -0.12157035329E+03  0.26189571250E+03  0.70874141883E+02  0.29730768408E+03  0.00000000000E+00 0.  1.
<mgrwt>
<rscale>  0 0.14720113E+04</rscale>
<asrwt>0</asrwt>
<pdfrwt beam="1">  1        2 0.28135790E+00 0.14720113E+04</pdfrwt>
<pdfrwt beam="2">  1       -2 0.45569732E-01 0.14720113E+04</pdfrwt>
<totfact> 0.36771886E+01</totfact>
</mgrwt>
</event>
<event>
12    1  0.1536832E-007  0.1846552E+04  0.7818608E-02  0.8681928E-01
          2   -1    0    0  501    0  0.00000000000E+00  0.00000000000E+00  0.10200048853E+04  0.10200048853E+04  0.00000000000E+00 0.  1.
         -2   -1    0    0    0  501 -0.00000000000E+00 -0.00000000000E+00 -0.83572006564E+03  0.83572006564E+03  0.00000000000E+00 0. -1.
         23    2    1    2    0    0 -0.45697356252E+03  0.39842861860E+03  0.41698236304E+03  0.74141652952E+03  0.90851407182E+02 0.  0.
        254    2    1    2    0    0  0.45697356252E+03 -0.39842861860E+03 -0.23269754338E+03  0.11143084214E+04  0.90551913861E+03 0.  0.
        -24    2    4    4    0    0  0.30275070091E+03 -0.13988552341E+03 -0.56372152729E+03  0.65971875500E+03  0.78872864820E+02 0.  0.
         24    2    4    4    0    0  0.15422286161E+03 -0.25854309519E+03  0.33102398391E+03  0.45458966641E+03  0.80284891318E+02 0.  0.
         13    1    3    3    0    0 -0.18387276663E+03  0.12699918839E+03  0.19735926508E+03  0.29814202600E+03  0.00000000000E+00 0. -1.
        -13    1    3    3    0    0 -0.27310079589E+03  0.27142943021E+03  0.21962309797E+03  0.44327450351E+03  0.00000000000E+00 0.  1.
          2    1    6    6  502    0  0.75659829014E+02 -0.15732190366E+03  0.13624176989E+03  0.22144166492E+03  0.00000000000E+00 0. -1.
          3    1    5    5  503    0  0.16025568920E+03 -0.43762062512E+02 -0.33160151840E+03  0.37088619689E+03  0.00000000000E+00 0. -1.
         -4    1    5    5    0  503  0.14249501171E+03 -0.96123460903E+02 -0.23212000889E+03  0.28883255811E+03  0.00000000000E+00 0.  1.
         -1    1    6    6    0  502  0.78563032592E+02 -0.10122119153E+03  0.19478221402E+03  0.23314800150E+03  0.00000000000E+00 0.  1.
<mgrwt>
<rscale>  0 0.18465520E+04</rscale>
<asrwt>0</asrwt>
<pdfrwt beam="1">  1        2 0.15692383E+00 0.18465520E+04</pdfrwt>
<pdfrwt beam="2">  1       -2 0.12857232E+00 0.18465520E+04</pdfrwt>
<totfact> 0.10273491E+01</totfact>
</mgrwt>
</event>
<event>
12    1  0.1536832E-007  0.2162041E+04  0.7818608E-02  0.8534396E-01
          2   -1    0    0  501    0  0.00000000000E+00  0.00000000000E+00  0.13097788748E+04  0.13097788748E+04  0.00000000000E+00 0. -1.
         -2   -1    0    0    0  501 -0.00000000000E+00 -0.00000000000E+00 -0.89221599637E+03  0.89221599637E+03  0.00000000000E+00 0.  1.
         23    2    1    2    0    0  0.23982684644E+03 -0.40333300194E+03  0.94515265750E+03  0.10590685927E+04  0.90101671713E+02 0.  0.
        254    2    1    2    0    0 -0.23982684644E+03  0.40333300194E+03 -0.52758977903E+03  0.11429262786E+04  0.89874082835E+03 0.  0.
        -24    2    4    4    0    0  0.32164521932E+03  0.27418060574E+03 -0.26659008207E+03  0.50603902815E+03  0.79840932315E+02 0.  0.
         24    2    4    4    0    0 -0.56147206577E+03  0.12915239620E+03 -0.26099969696E+03  0.63688725041E+03  0.74654576813E+02 0.  0.
         11    1    3    3    0    0  0.39539213977E+02 -0.14523772185E+03  0.27381371659E+03  0.31246007214E+03  0.00000000000E+00 0.  1.
        -11    1    3    3    0    0  0.20028763247E+03 -0.25809528009E+03  0.67133894091E+03  0.74660852051E+03  0.00000000000E+00 0. -1.
          4    1    6    6  502    0 -0.35504655538E+03  0.62429800260E+02 -0.12864932683E+03  0.38276126468E+03  0.00000000000E+00 0. -1.
          1    1    5    5  503    0  0.24148311746E+03  0.22402353979E+03 -0.16925764381E+03  0.37033605332E+03  0.00000000000E+00 0. -1.
         -2    1    5    5    0  503  0.80162101863E+02  0.50157065948E+02 -0.97332438264E+02  0.13570297483E+03  0.00000000000E+00 0.  1.
         -3    1    6    6    0  502 -0.20642551039E+03  0.66722595940E+02 -0.13235037013E+03  0.25412598572E+03  0.00000000000E+00 0.  1.
<mgrwt>
<rscale>  0 0.21620413E+04</rscale>
<asrwt>0</asrwt>
<pdfrwt beam="1">  1        2 0.20150444E+00 0.21620413E+04</pdfrwt>
<pdfrwt beam="2">  1       -2 0.13726400E+00 0.21620413E+04</pdfrwt>
<totfact> 0.56560457E+00</totfact>
</mgrwt>
</event>
<event>
12    1  0.1536832E-007  0.1536126E+04  0.7818608E-02  0.8860779E-01
         -2   -1    0    0    0  501 -0.00000000000E+00  0.00000000000E+00  0.54436931567E+03  0.54436931567E+03  0.00000000000E+00 0. -1.
          2   -1    0    0  501    0  0.00000000000E+00 -0.00000000000E+00 -0.10836777230E+04  0.10836777230E+04  0.00000000000E+00 0.  1.
         23    2    1    2    0    0  0.36741717689E+03 -0.10461576360E+03  0.16614457754E+03  0.42629899274E+03  0.90481880462E+02 0.  0.
        254    2    1    2    0    0 -0.36741717689E+03  0.10461576360E+03 -0.70545298490E+03  0.12017480460E+04  0.89475952759E+03 0.  0.
        -24    2    4    4    0    0 -0.59403578333E+03  0.19643376167E+03 -0.70389961296E+03  0.94491495320E+03  0.76973170963E+02 0.  0.
         24    2    4    4    0    0  0.22661860644E+03 -0.91817998069E+02 -0.15533719420E+01  0.25683309278E+03  0.78576631561E+02 0.  0.
         13    1    3    3    0    0  0.11837362725E+03 -0.64712991832E+02  0.24781032638E+02  0.13716481517E+03  0.00000000000E+00 0.  1.
        -13    1    3    3    0    0  0.24904354964E+03 -0.39902771771E+02  0.14136354490E+03  0.28913417757E+03  0.00000000000E+00 0. -1.
          4    1    6    6  502    0  0.19849173798E+03 -0.60678505680E+02  0.21984838783E+02  0.20872034936E+03  0.00000000000E+00 0. -1.
          1    1    5    5  503    0 -0.36992241565E+03  0.10012025852E+03 -0.38278154303E+03  0.54165336651E+03  0.00000000000E+00 0. -1.
         -2    1    5    5    0  503 -0.22411336768E+03  0.96313503147E+02 -0.32111806993E+03  0.40326158668E+03  0.00000000000E+00 0.  1.
         -3    1    6    6    0  502  0.28126868455E+02 -0.31139492389E+02 -0.23538210725E+02  0.48112743421E+02  0.00000000000E+00 0.  1.
<mgrwt>
<rscale>  0 0.15361262E+04</rscale>
<asrwt>0</asrwt>
<pdfrwt beam="1">  1        2 0.16671965E+00 0.15361262E+04</pdfrwt>
<pdfrwt beam="2">  1       -2 0.83749127E-01 0.15361262E+04</pdfrwt>
<totfact> 0.26784289E+01</totfact>
</mgrwt>
</event>
<event>
12    1  0.1536832E-007  0.3562195E+04  0.7818608E-02  0.8099207E-01
          2   -1    0    0  501    0  0.00000000000E+00  0.00000000000E+00  0.21417312321E+04  0.21417312321E+04  0.00000000000E+00 0. -1.
         -2   -1    0    0    0  501 -0.00000000000E+00 -0.00000000000E+00 -0.14811886951E+04  0.14811886951E+04  0.00000000000E+00 0.  1.
         23    2    1    2    0    0  0.28810491692E+03 -0.95272949129E+03 -0.10417508282E+04  0.14440966290E+04  0.97326044576E+02 0.  0.
        254    2    1    2    0    0 -0.28810491692E+03  0.95272949129E+03  0.17022933652E+04  0.21788232982E+04  0.92669862240E+03 0.  0.
        -24    2    4    4    0    0 -0.18412709080E+03 -0.72313083507E+02  0.34283100706E+02  0.21672149860E+03  0.81614394249E+02 0.  0.
         24    2    4    4    0    0 -0.10397782613E+03  0.10250425748E+04  0.16680102645E+04  0.19621017996E+04  0.77856027284E+02 0.  0.
         11    1    3    3    0    0  0.27289839734E+03 -0.93491424149E+03 -0.99798768804E+03  0.13944596085E+04  0.00000000000E+00 0.  1.
        -11    1    3    3    0    0  0.15206519583E+02 -0.17815249801E+02 -0.43763140201E+02  0.49637020495E+02  0.00000000000E+00 0. -1.
          2    1    6    6  502    0 -0.37394768043E+02  0.38997322552E+03  0.70703591162E+03  0.80831755246E+03  0.00000000000E+00 0. -1.
          1    1    5    5  503    0 -0.50467201492E+02  0.14487533413E+02 -0.45025834672E+01  0.52698200242E+02  0.00000000000E+00 0. -1.
         -2    1    5    5    0  503 -0.13365988930E+03 -0.86800616920E+02  0.38785684173E+02  0.16402329836E+03  0.00000000000E+00 0.  1.
         -1    1    6    6    0  502 -0.66583058085E+02  0.63506934928E+03  0.96097435291E+03  0.11537842471E+04  0.00000000000E+00 0.  1.
<mgrwt>
<rscale>  0 0.35621949E+04</rscale>
<asrwt>0</asrwt>
<pdfrwt beam="1">  1        2 0.32949711E+00 0.35621949E+04</pdfrwt>
<pdfrwt beam="2">  1       -2 0.22787518E+00 0.35621949E+04</pdfrwt>
<totfact> 0.40134939E-01</totfact>
</mgrwt>
</event>
<event>
12    1  0.1536832E-007  0.1617566E+04  0.7818608E-02  0.8809829E-01
          2   -1    0    0  501    0  0.00000000000E+00  0.00000000000E+00  0.24571112498E+04  0.24571112498E+04  0.00000000000E+00 0.  1.
         -2   -1    0    0    0  501 -0.00000000000E+00 -0.00000000000E+00 -0.26621897444E+03  0.26621897444E+03  0.00000000000E+00 0. -1.
         23    2    1    2    0    0 -0.16395064179E+03 -0.42939453191E+03  0.23803147920E+03  0.52553207997E+03  0.90914822801E+02 0.  0.
        254    2    1    2    0    0  0.16395064179E+03  0.42939453191E+03  0.19528607962E+04  0.21977981443E+04  0.89743630240E+03 0.  0.
        -24    2    4    4    0    0  0.25090348355E+03  0.62565095719E+03  0.17965155501E+04  0.19204485207E+04  0.79137350779E+02 0.  0.
         24    2    4    4    0    0 -0.86952841757E+02 -0.19625642528E+03  0.15634524603E+03  0.27734962365E+03  0.80009978289E+02 0.  0.
         11    1    3    3    0    0  0.61132717346E+01 -0.69679173797E+02  0.25599634135E+02  0.74484230682E+02  0.00000000000E+00 0.  1.
        -11    1    3    3    0    0 -0.17006391353E+03 -0.35971535811E+03  0.21243184507E+03  0.45104784929E+03  0.00000000000E+00 0. -1.
          2    1    6    6  502    0 -0.25680217522E+02 -0.14312263648E+03  0.11976135072E+03  0.18837819346E+03  0.00000000000E+00 0. -1.
          3    1    5    5  503    0  0.15406422255E+03  0.30900267710E+03  0.99606065429E+03  0.10542083599E+04  0.00000000000E+00 0. -1.
         -4    1    5    5    0  503  0.96839261001E+02  0.31664828009E+03  0.80045489585E+03  0.86624016072E+03  0.00000000000E+00 0.  1.
         -1    1    6    6    0  502 -0.61272624235E+02 -0.53133788802E+02  0.36583895311E+02  0.88971430185E+02  0.00000000000E+00 0.  1.
<mgrwt>
<rscale>  0 0.16175656E+04</rscale>
<asrwt>0</asrwt>
<pdfrwt beam="1">  1        2 0.37801710E+00 0.16175656E+04</pdfrwt>
<pdfrwt beam="2">  1       -2 0.40956767E-01 0.16175656E+04</pdfrwt>
<totfact> 0.19964730E+01</totfact>
</mgrwt>
</event>
<event>
12    1  0.1536832E-007  0.2187131E+04  0.7818608E-02  0.8523804E-01
         -2   -1    0    0    0  501 -0.00000000000E+00  0.00000000000E+00  0.10704756321E+04  0.10704756321E+04  0.00000000000E+00 0.  1.
          2   -1    0    0  501    0  0.00000000000E+00 -0.00000000000E+00 -0.11171530231E+04  0.11171530231E+04  0.00000000000E+00 0. -1.
         23    2    1    2    0    0  0.30722809101E+03 -0.43235968615E+03  0.71419449124E+03  0.89407209723E+03  0.89258868600E+02 0.  0.
        254    2    1    2    0    0 -0.30722809101E+03  0.43235968615E+03 -0.76087188219E+03  0.12935565580E+04  0.90168650288E+03 0.  0.
        -24    2    4    4    0    0 -0.54471675489E+03  0.66955696160E+01 -0.35406097535E+03  0.65377249667E+03  0.72788250623E+02 0.  0.
         24    2    4    4    0    0  0.23748866387E+03  0.42566411653E+03 -0.40681090683E+03  0.63978406131E+03  0.78979273288E+02 0.  0.
         11    1    3    3    0    0  0.28841194834E+03 -0.43120912045E+03  0.68397317201E+03  0.85845329375E+03  0.00000000000E+00 0.  1.
        -11    1    3    3    0    0  0.18816142670E+02 -0.11505656993E+01  0.30221319222E+02  0.35618803488E+02  0.00000000000E+00 0. -1.
          4    1    6    6  502    0  0.12177351883E+02  0.26611856423E+02 -0.54067316978E+02  0.61479700442E+02  0.00000000000E+00 0. -1.
          3    1    5    5  503    0 -0.14138279769E+03  0.27999312882E+01 -0.13143713110E+03  0.19306127144E+03  0.00000000000E+00 0. -1.
         -4    1    5    5    0  503 -0.40333395719E+03  0.38956383278E+01 -0.22262384426E+03  0.46071122523E+03  0.00000000000E+00 0.  1.
         -3    1    6    6    0  502  0.22531131199E+03  0.39905226011E+03 -0.35274358986E+03  0.57830436087E+03  0.00000000000E+00 0.  1.
<mgrwt>
<rscale>  0 0.21871306E+04</rscale>
<asrwt>0</asrwt>
<pdfrwt beam="1">  1        2 0.17186970E+00 0.21871306E+04</pdfrwt>
<pdfrwt beam="2">  1       -2 0.16468856E+00 0.21871306E+04</pdfrwt>
<totfact> 0.45276133E+00</totfact>
</mgrwt>
</event>
<event>
12    1  0.1706839E-007  0.1799005E+04  0.7818608E-02  0.8706829E-01
          1   -1    0    0  501    0  0.00000000000E+00  0.00000000000E+00  0.15683105021E+04  0.15683105021E+04  0.00000000000E+00 0. -1.
         -1   -1    0    0    0  501 -0.00000000000E+00 -0.00000000000E+00 -0.51590847755E+03  0.51590847755E+03  0.00000000000E+00 0.  1.
         23    2    1    2    0    0  0.49219575358E+03  0.38143743164E+01 -0.12688624402E+03  0.51626283322E+03  0.90310490764E+02 0.  0.
        254    2    1    2    0    0 -0.49219575358E+03 -0.38143743164E+01  0.11792882686E+04  0.15679561465E+04  0.90856724983E+03 0.  0.
        -24    2    4    4    0    0 -0.58602332617E+02  0.39048402967E+03  0.27744667744E+03  0.48917492796E+03  0.80021500263E+02 0.  0.
         24    2    4    4    0    0 -0.43359342097E+03 -0.39429840399E+03  0.90184159117E+03  0.10787812185E+04  0.83523504123E+02 0.  0.
         11    1    3    3    0    0  0.10741554170E+03  0.18107950116E+02  0.55647958084E+01  0.10907320207E+03  0.00000000000E+00 0. -1.
        -11    1    3    3    0    0  0.38478021188E+03 -0.14293575800E+02 -0.13245103983E+03  0.40718963115E+03  0.00000000000E+00 0.  1.
          4    1    6    6  502    0 -0.12476307877E+03 -0.13018396219E+03  0.21367264928E+03  0.27958843124E+03  0.00000000000E+00 0. -1.
          3    1    5    5  503    0 -0.36877174841E+02  0.21016009412E+03  0.19744275811E+03  0.29070747138E+03  0.00000000000E+00 0. -1.
         -4    1    5    5    0  503 -0.21725157776E+02  0.18032393555E+03  0.80003919324E+02  0.19846745658E+03  0.00000000000E+00 0.  1.
         -3    1    6    6    0  502 -0.30883034220E+03 -0.26411444180E+03  0.68816894189E+03  0.79919278726E+03  0.00000000000E+00 0.  1.
<mgrwt>
<rscale>  0 0.17990049E+04</rscale>
<asrwt>0</asrwt>
<pdfrwt beam="1">  1        1 0.24127854E+00 0.17990049E+04</pdfrwt>
<pdfrwt beam="2">  1       -1 0.79370536E-01 0.17990049E+04</pdfrwt>
<totfact> 0.87833611E+00</totfact>
</mgrwt>
</event>
<event>
12    1  0.1536832E-007  0.1138288E+04  0.7818608E-02  0.9168657E-01
         -2   -1    0    0    0  501 -0.00000000000E+00  0.00000000000E+00  0.33027332853E+03  0.33027332853E+03  0.00000000000E+00 0.  1.
          2   -1    0    0  501    0  0.00000000000E+00 -0.00000000000E+00 -0.98077839191E+03  0.98077839191E+03  0.00000000000E+00 0. -1.
         23    2    1    2    0    0  0.61484783014E+02  0.63923793825E+02 -0.32362605572E+03  0.34777359067E+03  0.91356534893E+02 0.  0.
        254    2    1    2    0    0 -0.61484783014E+02 -0.63923793825E+02 -0.32687900766E+03  0.96327812976E+03  0.90176950474E+03 0.  0.
        -24    2    4    4    0    0  0.66883324808E+02  0.39813649403E+03 -0.20875524903E+03  0.46160922717E+03  0.80735850726E+02 0.  0.
         24    2    4    4    0    0 -0.12836810782E+03 -0.46206028786E+03 -0.11812375863E+03  0.50166890260E+03  0.87979456464E+02 0.  0.
         13    1    3    3    0    0 -0.20731797291E+02  0.23678401713E+02 -0.48474489096E+02  0.57794897869E+02  0.00000000000E+00 0.  1.
        -13    1    3    3    0    0  0.82216580304E+02  0.40245392112E+02 -0.27515156662E+03  0.28997869280E+03  0.00000000000E+00 0. -1.
          4    1    6    6  502    0 -0.83679268260E+02 -0.41218584802E+03 -0.10249572573E+03  0.43290272237E+03  0.00000000000E+00 0. -1.
          1    1    5    5  503    0  0.63201037257E+02  0.37449033965E+03 -0.17008398321E+03  0.41613212679E+03  0.00000000000E+00 0. -1.
         -2    1    5    5    0  503  0.36822875507E+01  0.23646154379E+02 -0.38671265821E+02  0.45477100377E+02  0.00000000000E+00 0.  1.
         -3    1    6    6    0  502 -0.44688839562E+02 -0.49874439840E+02 -0.15628032908E+02  0.68766180229E+02  0.00000000000E+00 0.  1.
<mgrwt>
<rscale>  0 0.11382881E+04</rscale>
<asrwt>0</asrwt>
<pdfrwt beam="1">  1        2 0.15088898E+00 0.11382881E+04</pdfrwt>
<pdfrwt beam="2">  1       -2 0.50811282E-01 0.11382881E+04</pdfrwt>
<totfact> 0.94000973E+01</totfact>
</mgrwt>
</event>
<event>
12    1  0.1536832E-007  0.1466391E+04  0.7818608E-02  0.8907115E-01
          1   -1    0    0  501    0  0.00000000000E+00  0.00000000000E+00  0.11014380613E+04  0.11014380613E+04  0.00000000000E+00 0. -1.
         -1   -1    0    0    0  501 -0.00000000000E+00 -0.00000000000E+00 -0.48806736092E+03  0.48806736092E+03  0.00000000000E+00 0.  1.
         23    2    1    2    0    0  0.36083690850E+03  0.25046174528E+03  0.73235234596E+02  0.45452464253E+03  0.91076290501E+02 0.  0.
        254    2    1    2    0    0 -0.36083690850E+03 -0.25046174528E+03  0.54013546580E+03  0.11349807797E+04  0.89638199921E+03 0.  0.
        -24    2    4    4    0    0  0.13163692357E+03 -0.37733521152E+02  0.56995894874E+03  0.59171018759E+03  0.80719542779E+02 0.  0.
         24    2    4    4    0    0 -0.49247383208E+03 -0.21272822412E+03 -0.29823482945E+02  0.54327059211E+03  0.80434591443E+02 0.  0.
         11    1    3    3    0    0  0.26223401721E+03  0.16313820038E+03  0.11471752235E+02  0.30905072933E+03  0.00000000000E+00 0. -1.
        -11    1    3    3    0    0  0.98602891298E+02  0.87323544900E+02  0.61763482361E+02  0.14547391319E+03  0.00000000000E+00 0.  1.
          2    1    6    6  502    0  0.85438898318E+00 -0.73381950263E+01 -0.36845407544E+01  0.82555997571E+01  0.00000000000E+00 0. -1.
          3    1    5    5  503    0  0.29269153509E+02 -0.11126401962E+02  0.37530157780E+02  0.48877325119E+02  0.00000000000E+00 0. -1.
         -4    1    5    5    0  503  0.10236777006E+03 -0.26607119190E+02  0.53242879096E+03  0.54283286248E+03  0.00000000000E+00 0.  1.
         -1    1    6    6    0  502 -0.49332822106E+03 -0.20539002910E+03 -0.26138942191E+02  0.53501499236E+03  0.00000000000E+00 0.  1.
<mgrwt>
<rscale>  0 0.14663914E+04</rscale>
<asrwt>0</asrwt>
<pdfrwt beam="1">  1        1 0.16945201E+00 0.14663914E+04</pdfrwt>
<pdfrwt beam="2">  1       -1 0.75087287E-01 0.14663914E+04</pdfrwt>
<totfact> 0.21882309E+01</totfact>
</mgrwt>
</event>
<event>
12    1  0.1536832E-007  0.2066299E+04  0.7818608E-02  0.8576236E-01
         -1   -1    0    0    0  501 -0.00000000000E+00  0.00000000000E+00  0.48080850086E+03  0.48080850086E+03  0.00000000000E+00 0.  1.
          1   -1    0    0  501    0  0.00000000000E+00 -0.00000000000E+00 -0.22200063423E+04  0.22200063423E+04  0.00000000000E+00 0. -1.
         23    2    1    2    0    0 -0.13833289992E+03 -0.34084458749E+03 -0.16915405768E+04  0.17335160433E+04  0.91963717900E+02 0.  0.
        254    2    1    2    0    0  0.13833289992E+03  0.34084458749E+03 -0.47657264682E+02  0.96729879989E+03  0.89335588058E+03 0.  0.
        -24    2    4    4    0    0 -0.15104076842E+03  0.44846010383E+03 -0.29533961451E+03  0.56347100613E+03  0.79651166949E+02 0.  0.
         24    2    4    4    0    0  0.28937366834E+03 -0.10761551634E+03  0.24768234983E+03  0.40382779376E+03  0.80075722335E+02 0.  0.
         11    1    3    3    0    0 -0.99895910973E+01 -0.23541525545E+02 -0.44844348444E+02  0.51623743981E+02  0.00000000000E+00 0.  1.
        -11    1    3    3    0    0 -0.12834330883E+03 -0.31730306194E+03 -0.16466962284E+04  0.16818922993E+04  0.00000000000E+00 0. -1.
          2    1    6    6  502    0  0.82096292497E+01 -0.14487483338E+02  0.36332925207E+02  0.39967069444E+02  0.00000000000E+00 0. -1.
          3    1    5    5  503    0 -0.54501291977E+02  0.28387304390E+03 -0.17825851740E+03  0.33960329048E+03  0.00000000000E+00 0. -1.
         -4    1    5    5    0  503 -0.96539476444E+02  0.16458705993E+03 -0.11708109711E+03  0.22386771565E+03  0.00000000000E+00 0.  1.
         -1    1    6    6    0  502  0.28116403910E+03 -0.93128033005E+02  0.21134942462E+03  0.36386072432E+03  0.00000000000E+00 0.  1.
<mgrwt>
<rscale>  0 0.20662990E+04</rscale>
<asrwt>0</asrwt>
<pdfrwt beam="1">  1        1 0.34153945E+00 0.20662990E+04</pdfrwt>
<pdfrwt beam="2">  1       -1 0.73970537E-01 0.20662990E+04</pdfrwt>
<totfact> 0.35834938E+00</totfact>
</mgrwt>
</event>
<event>
12    1  0.1536832E-007  0.1498783E+04  0.7818608E-02  0.8885263E-01
         -2   -1    0    0    0  501 -0.00000000000E+00  0.00000000000E+00  0.17781506484E+04  0.17781506484E+04  0.00000000000E+00 0.  1.
          2   -1    0    0  501    0  0.00000000000E+00 -0.00000000000E+00 -0.31582665563E+03  0.31582665563E+03  0.00000000000E+00 0. -1.
         23    2    1    2    0    0  0.10408389352E+03  0.30661524016E+03  0.94621515484E+03  0.10043845372E+04  0.92837583813E+02 0.  0.
        254    2    1    2    0    0 -0.10408389352E+03 -0.30661524016E+03  0.51610883792E+03  0.10895927668E+04  0.90332591156E+03 0.  0.
        -24    2    4    4    0    0 -0.58289295014E+02  0.25176304315E+03 -0.65193604405E+02  0.27800184388E+03  0.79073050613E+02 0.  0.
         24    2    4    4    0    0 -0.45794598508E+02 -0.55837828331E+03  0.58130244232E+03  0.81159092292E+03  0.82968935091E+02 0.  0.
         13    1    3    3    0    0  0.24520685947E+02  0.32965064983E+02  0.54586081116E+02  0.68319834603E+02  0.00000000000E+00 0. -1.
        -13    1    3    3    0    0  0.79563207575E+02  0.27365017518E+03  0.89162907372E+03  0.93606470262E+03  0.00000000000E+00 0.  1.
          2    1    6    6  502    0 -0.30102375053E+02 -0.28084737864E+03  0.23434594365E+03  0.36701420187E+03  0.00000000000E+00 0. -1.
          3    1    5    5  503    0 -0.85535519163E+00  0.13909997285E+03 -0.83429576302E+01  0.13935257092E+03  0.00000000000E+00 0. -1.
         -4    1    5    5    0  503 -0.57433939823E+02  0.11266307030E+03 -0.56850646775E+02  0.13864927296E+03  0.00000000000E+00 0.  1.
         -1    1    6    6    0  502 -0.15692223455E+02 -0.27753090468E+03  0.34695649867E+03  0.44457672105E+03  0.00000000000E+00 0.  1.
<mgrwt>
<rscale>  0 0.14987827E+04</rscale>
<asrwt>0</asrwt>
<pdfrwt beam="1">  1        2 0.48588717E-01 0.14987827E+04</pdfrwt>
<pdfrwt beam="2">  1       -2 0.27356163E+00 0.14987827E+04</pdfrwt>
<totfact> 0.46269069E+00</totfact>
</mgrwt>
</event>
<event>
12    1  0.1536832E-007  0.2293940E+04  0.7818608E-02  0.8480314E-01
         -2   -1    0    0    0  501 -0.00000000000E+00  0.00000000000E+00  0.19015662802E+04  0.19015662802E+04  0.00000000000E+00 0.  1.
          2   -1    0    0  501    0  0.00000000000E+00 -0.00000000000E+00 -0.69181942399E+03  0.69181942399E+03  0.00000000000E+00 0. -1.
         23    2    1    2    0    0  0.28938882640E+03 -0.61465326917E+03  0.12964614722E+04  0.14667316706E+04  0.94577536888E+02 0.  0.
        254    2    1    2    0    0 -0.28938882640E+03  0.61465326917E+03 -0.86714616004E+02  0.11266540336E+04  0.89458669373E+03 0.  0.
        -24    2    4    4    0    0 -0.31401827139E+03  0.53677105107E+02 -0.36835775946E+03  0.49347134422E+03  0.79610440474E+02 0.  0.
         24    2    4    4    0    0  0.24629444982E+02  0.56097616407E+03  0.28164314346E+03  0.63318268936E+03  0.79351065767E+02 0.  0.
         13    1    3    3    0    0  0.18251242581E+03 -0.44782179977E+03  0.84260276734E+03  0.97151148910E+03  0.00000000000E+00 0. -1.
        -13    1    3    3    0    0  0.10687640059E+03 -0.16683146941E+03  0.45385870483E+03  0.49522018148E+03  0.00000000000E+00 0.  1.
          2    1    6    6  502    0 -0.21772675364E+02  0.36670188131E+03  0.18414446211E+03  0.41091787753E+03  0.00000000000E+00 0. -1.
          3    1    5    5  503    0 -0.24743384355E+03  0.30332077312E+02 -0.23496430866E+03  0.34256644347E+03  0.00000000000E+00 0. -1.
         -4    1    5    5    0  503 -0.66584427835E+02  0.23345027794E+02 -0.13339345080E+03  0.15090490075E+03  0.00000000000E+00 0.  1.
         -3    1    6    6    0  502  0.46402120346E+02  0.19427428276E+03  0.97498681351E+02  0.22226481184E+03  0.00000000000E+00 0.  1.
<mgrwt>
<rscale>  0 0.22939403E+04</rscale>
<asrwt>0</asrwt>
<pdfrwt beam="1">  1        2 0.10643376E+00 0.22939403E+04</pdfrwt>
<pdfrwt beam="2">  1       -2 0.29254866E+00 0.22939403E+04</pdfrwt>
<totfact> 0.13320272E+00</totfact>
</mgrwt>
</event>
<event>
12    1  0.1536832E-007  0.1905070E+04  0.7818608E-02  0.8652337E-01
         -2   -1    0    0    0  501 -0.00000000000E+00  0.00000000000E+00  0.63549383017E+03  0.63549383017E+03  0.00000000000E+00 0.  1.
          2   -1    0    0  501    0  0.00000000000E+00 -0.00000000000E+00 -0.14277446291E+04  0.14277446291E+04  0.00000000000E+00 0. -1.
         23    2    1    2    0    0  0.59969228187E+03  0.12422893075E+03  0.13169537179E+03  0.63312886146E+03  0.91895724047E+02 0.  0.
        254    2    1    2    0    0 -0.59969228187E+03 -0.12422893075E+03 -0.92394617076E+03  0.14301095979E+04  0.90358910752E+03 0.  0.
        -24    2    4    4    0    0 -0.78904515428E+03 -0.14832526779E+02 -0.89627723871E+03  0.11962765138E+04  0.70372930800E+02 0.  0.
         24    2    4    4    0    0  0.18935287241E+03 -0.10939640397E+03 -0.27668932054E+02  0.23383308410E+03  0.78040104621E+02 0.  0.
         11    1    3    3    0    0  0.99602548699E+02  0.21353100863E+02  0.58157655121E+02  0.11729848879E+03  0.00000000000E+00 0. -1.
        -11    1    3    3    0    0  0.50008973317E+03  0.10287582988E+03  0.73537716671E+02  0.51583037267E+03  0.00000000000E+00 0.  1.
          2    1    6    6  502    0  0.82209463179E+02 -0.92445790616E+02 -0.14199537957E+02  0.12452408167E+03  0.00000000000E+00 0. -1.
          3    1    5    5  503    0 -0.25013308562E+03  0.28000426246E+02 -0.28737927037E+03  0.38201757738E+03  0.00000000000E+00 0. -1.
         -4    1    5    5    0  503 -0.53891206866E+03 -0.42832953025E+02 -0.60889796834E+03  0.81425893637E+03  0.00000000000E+00 0.  1.
         -1    1    6    6    0  502  0.10714340923E+03 -0.16950613351E+02 -0.13469394097E+02  0.10930900243E+03  0.00000000000E+00 0.  1.
<mgrwt>
<rscale>  0 0.19050700E+04</rscale>
<asrwt>0</asrwt>
<pdfrwt beam="1">  1        2 0.21965302E+00 0.19050700E+04</pdfrwt>
<pdfrwt beam="2">  1       -2 0.97768282E-01 0.19050700E+04</pdfrwt>
<totfact> 0.11380837E+01</totfact>
</mgrwt>
</event>
<event>
12    1  0.1536832E-007  0.3235956E+04  0.7818608E-02  0.8179385E-01
         -2   -1    0    0    0  501 -0.00000000000E+00  0.00000000000E+00  0.23891583496E+04  0.23891583496E+04  0.00000000000E+00 0.  1.
          2   -1    0    0  501    0  0.00000000000E+00 -0.00000000000E+00 -0.10957215703E+04  0.10957215703E+04  0.00000000000E+00 0. -1.
         23    2    1    2    0    0  0.12651228885E+04 -0.49125899316E+03  0.12655671813E+04  0.18580859063E+04  0.94613019126E+02 0.  0.
        254    2    1    2    0    0 -0.12651228885E+04  0.49125899316E+03  0.27869597898E+02  0.16267940136E+04  0.89655492126E+03 0.  0.
        -24    2    4    4    0    0 -0.10236912477E+04  0.19243028170E+03 -0.33154046675E+03  0.10960486721E+04  0.80189940854E+02 0.  0.
         24    2    4    4    0    0 -0.24143164076E+03  0.29882871146E+03  0.35941006465E+03  0.53074534146E+03  0.70193923896E+02 0.  0.
         13    1    3    3    0    0  0.74999820721E+03 -0.25967657414E+03  0.78851175544E+03  0.11187850653E+04  0.00000000000E+00 0. -1.
        -13    1    3    3    0    0  0.51512468129E+03 -0.23158241902E+03  0.47705542590E+03  0.73930084096E+03  0.00000000000E+00 0.  1.
          2    1    6    6  502    0 -0.92570734301E+02  0.89057686962E+02  0.81809294395E+02  0.15229370672E+03  0.00000000000E+00 0. -1.
          3    1    5    5  503    0 -0.46029219453E+03  0.10151238821E+03 -0.18896707538E+03  0.50782105597E+03  0.00000000000E+00 0. -1.
         -4    1    5    5    0  503 -0.56339905320E+03  0.90917893483E+02 -0.14257339137E+03  0.58822761618E+03  0.00000000000E+00 0.  1.
         -1    1    6    6    0  502 -0.14886090646E+03  0.20977102450E+03  0.27760077025E+03  0.37845163474E+03  0.00000000000E+00 0.  1.
<mgrwt>
<rscale>  0 0.32359557E+04</rscale>
<asrwt>0</asrwt>
<pdfrwt beam="1">  1        2 0.16857255E+00 0.32359557E+04</pdfrwt>
<pdfrwt beam="2">  1       -2 0.36756282E+00 0.32359557E+04</pdfrwt>
<totfact> 0.22134061E-01</totfact>
</mgrwt>
</event>
<event>
12    1  0.1536832E-007  0.2227098E+04  0.7818608E-02  0.8507233E-01
          2   -1    0    0  501    0  0.00000000000E+00  0.00000000000E+00  0.15364526445E+04  0.15364526445E+04  0.00000000000E+00 0. -1.
         -2   -1    0    0    0  501 -0.00000000000E+00 -0.00000000000E+00 -0.80704844579E+03  0.80704844579E+03  0.00000000000E+00 0.  1.
         23    2    1    2    0    0 -0.90918469602E+03  0.93796546437E+02  0.12286868579E+03  0.92592279920E+03  0.82593659152E+02 0.  0.
        254    2    1    2    0    0  0.90918469602E+03 -0.93796546437E+02  0.60653551294E+03  0.14175782911E+04  0.89790215467E+03 0.  0.
        -24    2    4    4    0    0  0.53766105571E+03  0.37789513729E+03  0.41934105173E+03  0.78369149894E+03  0.80257723799E+02 0.  0.
         24    2    4    4    0    0  0.37152364031E+03 -0.47169168372E+03  0.18719446121E+03  0.63388679217E+03  0.79043274055E+02 0.  0.
         13    1    3    3    0    0 -0.21079108806E+03  0.26223147682E+02 -0.61479741313E+01  0.21250490316E+03  0.00000000000E+00 0. -1.
        -13    1    3    3    0    0 -0.69839360796E+03  0.67573398755E+02  0.12901665992E+03  0.71341789605E+03  0.00000000000E+00 0.  1.
          4    1    6    6  502    0  0.17558833980E+02 -0.15276053963E+02  0.24568913307E+02  0.33842310449E+02  0.00000000000E+00 0. -1.
          1    1    5    5  503    0  0.40983814258E+02  0.61379956056E+01  0.31327923456E+02  0.51949848982E+02  0.00000000000E+00 0. -1.
         -2    1    5    5    0  503  0.49667724146E+03  0.37175714168E+03  0.38801312827E+03  0.73174164996E+03  0.00000000000E+00 0.  1.
         -3    1    6    6    0  502  0.35396480633E+03 -0.45641562976E+03  0.16262554790E+03  0.60004448172E+03  0.00000000000E+00 0.  1.
<mgrwt>
<rscale>  0 0.22270983E+04</rscale>
<asrwt>0</asrwt>
<pdfrwt beam="1">  1        2 0.23637733E+00 0.22270983E+04</pdfrwt>
<pdfrwt beam="2">  1       -2 0.12416130E+00 0.22270983E+04</pdfrwt>
<totfact> 0.53853161E+00</totfact>
</mgrwt>
</event>
<event>
12    1  0.1536832E-007  0.1424898E+04  0.7818608E-02  0.8935991E-01
          2   -1    0    0  501    0  0.00000000000E+00  0.00000000000E+00  0.31426645724E+04  0.31426645724E+04  0.00000000000E+00 0. -1.
         -2   -1    0    0    0  501 -0.00000000000E+00 -0.00000000000E+00 -0.16151368211E+03  0.16151368211E+03  0.00000000000E+00 0.  1.
         23    2    1    2    0    0  0.37460991300E+03  0.22126645311E+03  0.74691954459E+03  0.86899898502E+03  0.89325246721E+02 0.  0.
        254    2    1    2    0    0 -0.37460991300E+03 -0.22126645311E+03  0.22342313457E+04  0.24351792694E+04  0.86545764668E+03 0.  0.
        -24    2    4    4    0    0 -0.48287556857E+03  0.12824756248E+03  0.75073002524E+03  0.90513118744E+03  0.77785883505E+02 0.  0.
         24    2    4    4    0    0  0.10826565557E+03 -0.34951401559E+03  0.14835013204E+04  0.15300480820E+04  0.79934137146E+02 0.  0.
         11    1    3    3    0    0  0.85544665030E+02  0.76793317559E+02  0.26383632223E+03  0.28779282178E+03  0.00000000000E+00 0.  1.
        -11    1    3    3    0    0  0.28906524797E+03  0.14447313555E+03  0.48308322235E+03  0.58120616325E+03  0.00000000000E+00 0. -1.
          4    1    6    6  502    0 -0.16273002189E+01  0.37240015926E+01  0.94924846340E+01  0.10325868409E+02  0.00000000000E+00 0. -1.
          1    1    5    5  503    0 -0.27042143704E+03  0.76963191384E+02  0.48980667961E+03  0.56476691637E+03  0.00000000000E+00 0. -1.
         -2    1    5    5    0  503 -0.21245413153E+03  0.51284371097E+02  0.26092334563E+03  0.34036427107E+03  0.00000000000E+00 0.  1.
         -3    1    6    6    0  502  0.10989295579E+03 -0.35323801718E+03  0.14740088358E+04  0.15197222136E+04  0.00000000000E+00 0.  1.
<mgrwt>
<rscale>  0 0.14248976E+04</rscale>
<asrwt>0</asrwt>
<pdfrwt beam="1">  1        2 0.48348681E+00 0.14248976E+04</pdfrwt>
<pdfrwt beam="2">  1       -2 0.24848261E-01 0.14248976E+04</pdfrwt>
<totfact> 0.20122992E+01</totfact>
</mgrwt>
</event>
<event>
12    1  0.1536832E-007  0.1316109E+04  0.7818608E-02  0.9016887E-01
          1   -1    0    0  501    0  0.00000000000E+00  0.00000000000E+00  0.16738000194E+04  0.16738000194E+04  0.00000000000E+00 0. -1.
         -1   -1    0    0    0  501 -0.00000000000E+00 -0.00000000000E+00 -0.25871421816E+03  0.25871421816E+03  0.00000000000E+00 0.  1.
         23    2    1    2    0    0  0.71871208989E+02  0.29823111472E+03  0.18340012347E+03  0.36972371845E+03  0.94618995050E+02 0.  0.
        254    2    1    2    0    0 -0.71871208989E+02 -0.29823111472E+03  0.12316856778E+04  0.15627905192E+04  0.91167830367E+03 0.  0.
        -24    2    4    4    0    0  0.48675714544E+02 -0.57271015517E+03  0.10567028465E+04  0.12054804995E+04  0.78715194439E+02 0.  0.
         24    2    4    4    0    0 -0.12054692353E+03  0.27447904045E+03  0.17498283130E+03  0.35731001966E+03  0.84741692677E+02 0.  0.
         11    1    3    3    0    0  0.82086162963E+02  0.25598575174E+03  0.12380598780E+03  0.29596412934E+03  0.00000000000E+00 0.  1.
        -11    1    3    3    0    0 -0.10214953974E+02  0.42245362986E+02  0.59594135677E+02  0.73759589110E+02  0.00000000000E+00 0. -1.
          4    1    6    6  502    0  0.11123377560E+02  0.24208063235E+02  0.27809129367E+02  0.38511135144E+02  0.00000000000E+00 0. -1.
          3    1    5    5  503    0  0.70175207403E+02 -0.40835562754E+03  0.74804820687E+03  0.85513449122E+03  0.00000000000E+00 0. -1.
         -4    1    5    5    0  503 -0.21499492859E+02 -0.16435452764E+03  0.30865463963E+03  0.35034600828E+03  0.00000000000E+00 0.  1.
         -3    1    6    6    0  502 -0.13167030109E+03  0.25027097722E+03  0.14717370194E+03  0.31879888452E+03  0.00000000000E+00 0.  1.
<mgrwt>
<rscale>  0 0.13161092E+04</rscale>
<asrwt>0</asrwt>
<pdfrwt beam="1">  1        1 0.25750769E+00 0.13161092E+04</pdfrwt>
<pdfrwt beam="2">  1       -1 0.39802188E-01 0.13161092E+04</pdfrwt>
<totfact> 0.29961390E+01</totfact>
</mgrwt>
</event>
<event>
12    1  0.1536832E-007  0.2334563E+04  0.7818608E-02  0.8464417E-01
         -1   -1    0    0    0  501 -0.00000000000E+00  0.00000000000E+00  0.88097546666E+03  0.88097546666E+03  0.00000000000E+00 0.  1.
          1   -1    0    0  501    0  0.00000000000E+00 -0.00000000000E+00 -0.15466337924E+04  0.15466337924E+04  0.00000000000E+00 0. -1.
         23    2    1    2    0    0  0.22285924556E+03  0.57568664165E+03 -0.10923751827E+04  0.12579980513E+04  0.90521845911E+02 0.  0.
        254    2    1    2    0    0 -0.22285924556E+03 -0.57568664165E+03  0.42671685693E+03  0.11696112078E+04  0.89711858119E+03 0.  0.
        -24    2    4    4    0    0  0.30635754317E+03 -0.14877137945E+03  0.32471527746E+03  0.47741986191E+03  0.80634022149E+02 0.  0.
         24    2    4    4    0    0 -0.52921678874E+03 -0.42691526219E+03  0.10200157947E+03  0.69219134589E+03  0.79984289295E+02 0.  0.
         13    1    3    3    0    0  0.12973086183E+03  0.28542617378E+03 -0.46995343338E+03  0.56493754233E+03  0.00000000000E+00 0.  1.
        -13    1    3    3    0    0  0.93128383732E+02  0.29026046787E+03 -0.62242174931E+03  0.69306050895E+03  0.00000000000E+00 0. -1.
          2    1    6    6  502    0 -0.49982344594E+03 -0.39918795011E+03  0.76060827790E+02  0.64417369253E+03  0.00000000000E+00 0. -1.
          1    1    5    5  503    0  0.30625349943E+03 -0.14463544547E+03  0.32848786295E+03  0.47182082839E+03  0.00000000000E+00 0. -1.
         -2    1    5    5    0  503  0.10404374078E+00 -0.41359339802E+01 -0.37725854933E+01  0.55990335142E+01  0.00000000000E+00 0.  1.
         -1    1    6    6    0  502 -0.29393342799E+02 -0.27727312078E+02  0.25940751684E+02  0.48017653357E+02  0.00000000000E+00 0.  1.
<mgrwt>
<rscale>  0 0.23345633E+04</rscale>
<asrwt>0</asrwt>
<pdfrwt beam="1">  1        1 0.23794366E+00 0.23345633E+04</pdfrwt>
<pdfrwt beam="2">  1       -1 0.13553469E+00 0.23345633E+04</pdfrwt>
<totfact> 0.24956466E+00</totfact>
</mgrwt>
</event>
<event>
12    1  0.1536832E-007  0.1555686E+04  0.7818608E-02  0.8848244E-01
         -1   -1    0    0    0  501 -0.00000000000E+00  0.00000000000E+00  0.23602472743E+03  0.23602472743E+03  0.00000000000E+00 0.  1.
          1   -1    0    0  501    0  0.00000000000E+00 -0.00000000000E+00 -0.25634603621E+04  0.25634603621E+04  0.00000000000E+00 0. -1.
         23    2    1    2    0    0 -0.51733775462E+02  0.18863939306E+03 -0.16077424466E+04  0.16223107929E+04  0.93783420072E+02 0.  0.
        254    2    1    2    0    0  0.51733775462E+02 -0.18863939306E+03 -0.71969318804E+03  0.11771742967E+04  0.91077979537E+03 0.  0.
        -24    2    4    4    0    0  0.34872959259E+02  0.31778774727E+03 -0.50145424453E+02  0.33363528523E+03  0.81195839503E+02 0.  0.
         24    2    4    4    0    0  0.16860816203E+02 -0.50642714033E+03 -0.66954776359E+03  0.84353901142E+03  0.80691514263E+02 0.  0.
         13    1    3    3    0    0 -0.51478229131E+02  0.46088579827E+02 -0.37093597712E+03  0.37731639824E+03  0.00000000000E+00 0.  1.
        -13    1    3    3    0    0 -0.25554633052E+00  0.14255081323E+03 -0.12368064695E+04  0.12449943947E+04  0.00000000000E+00 0. -1.
          2    1    6    6  502    0  0.35264851899E+02 -0.10235743909E+03 -0.15419488263E+03  0.18840572429E+03  0.00000000000E+00 0. -1.
          3    1    5    5  503    0  0.14229930966E+02  0.16854907504E+03 -0.67210162098E+02  0.18201232793E+03  0.00000000000E+00 0. -1.
         -4    1    5    5    0  503  0.20643028293E+02  0.14923867224E+03  0.17064737645E+02  0.15162295730E+03  0.00000000000E+00 0.  1.
         -1    1    6    6    0  502 -0.18404035696E+02 -0.40406970125E+03 -0.51535288096E+03  0.65513328713E+03  0.00000000000E+00 0.  1.
<mgrwt>
<rscale>  0 0.15556864E+04</rscale>
<asrwt>0</asrwt>
<pdfrwt beam="1">  1        1 0.39437850E+00 0.15556864E+04</pdfrwt>
<pdfrwt beam="2">  1       -1 0.36311498E-01 0.15556864E+04</pdfrwt>
<totfact> 0.85808462E+00</totfact>
</mgrwt>
</event>
<event>
12    1  0.1536832E-007  0.2165142E+04  0.7818608E-02  0.8533079E-01
          1   -1    0    0  501    0  0.00000000000E+00  0.00000000000E+00  0.27386960249E+04  0.27386960249E+04  0.00000000000E+00 0. -1.
         -1   -1    0    0    0  501 -0.00000000000E+00 -0.00000000000E+00 -0.42792614285E+03  0.42792614285E+03  0.00000000000E+00 0.  1.
         23    2    1    2    0    0 -0.28236968326E+03 -0.74742979053E+03  0.15353488080E+04  0.17332674768E+04  0.92391851981E+02 0.  0.
        254    2    1    2    0    0  0.28236968326E+03  0.74742979053E+03  0.77542107408E+03  0.14333546909E+04  0.90268704326E+03 0.  0.
        -24    2    4    4    0    0 -0.84802260981E+02  0.75696587310E+03  0.72312619677E+03  0.10533239659E+04  0.79944507052E+02 0.  0.
         24    2    4    4    0    0  0.36717194424E+03 -0.95360825774E+01  0.52294877308E+02  0.38003072500E+03  0.82355474886E+02 0.  0.
         13    1    3    3    0    0 -0.26618068403E+03 -0.71749714928E+03  0.14210819234E+04  0.16140409378E+04  0.00000000000E+00 0. -1.
        -13    1    3    3    0    0 -0.16188999230E+02 -0.29932641247E+02  0.11426688455E+03  0.11922653904E+03  0.00000000000E+00 0.  1.
          4    1    6    6  502    0  0.35682291117E+03 -0.25119390224E+02  0.49380751528E+02  0.36109836932E+03  0.00000000000E+00 0. -1.
          1    1    5    5  503    0 -0.50320702659E+02  0.51146115481E+03  0.53714321368E+03  0.74340266209E+03  0.00000000000E+00 0. -1.
         -2    1    5    5    0  503 -0.34481558321E+02  0.24550471829E+03  0.18598298310E+03  0.30992130383E+03  0.00000000000E+00 0.  1.
         -3    1    6    6    0  502  0.10349033070E+02  0.15583307647E+02  0.29141257800E+01  0.18932355684E+02  0.00000000000E+00 0.  1.
<mgrwt>
<rscale>  0 0.21651417E+04</rscale>
<asrwt>0</asrwt>
<pdfrwt beam="1">  1        1 0.42133784E+00 0.21651417E+04</pdfrwt>
<pdfrwt beam="2">  1       -1 0.65834793E-01 0.21651417E+04</pdfrwt>
<totfact> 0.19714108E+00</totfact>
</mgrwt>
</event>
<event>
12    1  0.1536832E-007  0.2104873E+04  0.7818608E-02  0.8559100E-01
          2   -1    0    0  501    0  0.00000000000E+00  0.00000000000E+00  0.41178406261E+04  0.41178406261E+04  0.00000000000E+00 0. -1.
         -2   -1    0    0    0  501 -0.00000000000E+00 -0.00000000000E+00 -0.26898136401E+03  0.26898136401E+03  0.00000000000E+00 0.  1.
         23    2    1    2    0    0  0.13747532986E+03  0.77677153125E+03  0.87777009399E+03  0.11836680876E+04  0.91193890619E+02 0.  0.
        254    2    1    2    0    0 -0.13747532986E+03 -0.77677153125E+03  0.29710891681E+04  0.32031539025E+04  0.90030583704E+03 0.  0.
        -24    2    4    4    0    0  0.52117571298E+02 -0.76500746455E+03  0.28724106246E+04  0.29741026581E+04  0.81185976641E+02 0.  0.
         24    2    4    4    0    0 -0.18959290116E+03 -0.11764066691E+02  0.98678543536E+02  0.22905124439E+03  0.81505559108E+02 0.  0.
         13    1    3    3    0    0  0.15119681351E+03  0.71690105783E+03  0.80907004456E+03  0.10915136005E+04  0.00000000000E+00 0.  1.
        -13    1    3    3    0    0 -0.13721483649E+02  0.59870473418E+02  0.68700049437E+02  0.92154487105E+02  0.00000000000E+00 0. -1.
          4    1    6    6  502    0 -0.88434718143E+02 -0.24901433547E+02  0.86733306387E+02  0.12634653617E+03  0.00000000000E+00 0. -1.
          3    1    5    5  503    0  0.71334317089E+02 -0.46546983661E+03  0.17612813249E+04  0.18231463625E+04  0.00000000000E+00 0. -1.
         -4    1    5    5    0  503 -0.19216745792E+02 -0.29953762795E+03  0.11111292997E+04  0.11509562957E+04  0.00000000000E+00 0.  1.
         -3    1    6    6    0  502 -0.10115818302E+03  0.13137366856E+02  0.11945237150E+02  0.10270470821E+03  0.00000000000E+00 0.  1.
<mgrwt>
<rscale>  0 0.21048728E+04</rscale>
<asrwt>0</asrwt>
<pdfrwt beam="1">  1        2 0.63351390E+00 0.21048728E+04</pdfrwt>
<pdfrwt beam="2">  1       -2 0.41381751E-01 0.21048728E+04</pdfrwt>
<totfact> 0.14070675E+00</totfact>
</mgrwt>
</event>
<event>
12    1  0.1536832E-007  0.1212657E+04  0.7818608E-02  0.9101849E-01
          2   -1    0    0  501    0  0.00000000000E+00  0.00000000000E+00  0.24390393990E+04  0.24390393990E+04  0.00000000000E+00 0.  1.
         -2   -1    0    0    0  501 -0.00000000000E+00 -0.00000000000E+00 -0.15072919071E+03  0.15072919071E+03  0.00000000000E+00 0. -1.
         23    2    1    2    0    0 -0.10715037508E+03 -0.42076030923E+02  0.10285160708E+04  0.10389639826E+04  0.91374252000E+02 0.  0.
        254    2    1    2    0    0  0.10715037508E+03  0.42076030923E+02  0.12597941374E+04  0.15508046071E+04  0.89702957888E+03 0.  0.
        -24    2    4    4    0    0  0.14751130958E+03 -0.37385115370E+03  0.91892146625E+03  0.10054056864E+04  0.69997583042E+02 0.  0.
         24    2    4    4    0    0 -0.40360934497E+02  0.41592718462E+03  0.34087267120E+03  0.54539892065E+03  0.81494642351E+02 0.  0.
         11    1    3    3    0    0 -0.11810054065E+03 -0.54239178228E+02  0.94085216031E+03  0.94978545668E+03  0.00000000000E+00 0.  1.
        -11    1    3    3    0    0  0.10950165565E+02  0.12163147305E+02  0.87663910484E+02  0.89178525889E+02  0.00000000000E+00 0. -1.
          4    1    6    6  502    0 -0.37886253191E+02  0.41873521820E+03  0.33184601879E+03  0.53562704500E+03  0.00000000000E+00 0. -1.
          3    1    5    5  503    0  0.14212651913E+03 -0.31000383418E+03  0.81273194398E+03  0.88138274173E+03  0.00000000000E+00 0. -1.
         -4    1    5    5    0  503  0.53847904496E+01 -0.63847319514E+02  0.10618952227E+03  0.12402294472E+03  0.00000000000E+00 0.  1.
         -3    1    6    6    0  502 -0.24746813052E+01 -0.28080335769E+01  0.90266524029E+01  0.97718756508E+01  0.00000000000E+00 0.  1.
<mgrwt>
<rscale>  0 0.12126573E+04</rscale>
<asrwt>0</asrwt>
<pdfrwt beam="1">  1        2 0.37523680E+00 0.12126573E+04</pdfrwt>
<pdfrwt beam="2">  1       -2 0.23189108E-01 0.12126573E+04</pdfrwt>
<totfact> 0.61496743E+01</totfact>
</mgrwt>
</event>
<event>
12    1  0.1536832E-007  0.2116688E+04  0.7818608E-02  0.8553928E-01
         -2   -1    0    0    0  501 -0.00000000000E+00  0.00000000000E+00  0.59639181545E+03  0.59639181545E+03  0.00000000000E+00 0.  1.
          2   -1    0    0  501    0  0.00000000000E+00 -0.00000000000E+00 -0.18781146767E+04  0.18781146767E+04  0.00000000000E+00 0. -1.
         23    2    1    2    0    0 -0.30256338541E+03  0.35294020880E+03  0.33299479919E+03  0.57911093568E+03  0.91501619419E+02 0.  0.
        254    2    1    2    0    0  0.30256338541E+03 -0.35294020880E+03 -0.16147176604E+04  0.18953955565E+04  0.87698335181E+03 0.  0.
        -24    2    4    4    0    0  0.30008684227E+03  0.23989673704E+03 -0.57854970213E+03  0.69902527073E+03  0.79460769802E+02 0.  0.
         24    2    4    4    0    0  0.24765431350E+01 -0.59283694584E+03 -0.10361679583E+04  0.11963702857E+04  0.78714961360E+02 0.  0.
         11    1    3    3    0    0 -0.13116287947E+03  0.15570550951E+03  0.20205848658E+03  0.28683712912E+03  0.00000000000E+00 0.  1.
        -11    1    3    3    0    0 -0.17140050594E+03  0.19723469929E+03  0.13093631261E+03  0.29227380656E+03  0.00000000000E+00 0. -1.
          4    1    6    6  502    0 -0.67094543401E+01 -0.49855087457E+03 -0.92048933178E+03  0.10468517570E+04  0.00000000000E+00 0. -1.
          3    1    5    5  503    0  0.21761395821E+03  0.12978574416E+03 -0.34646110036E+03  0.42922659314E+03  0.00000000000E+00 0. -1.
         -4    1    5    5    0  503  0.82472884064E+02  0.11011099288E+03 -0.23208860177E+03  0.26979867759E+03  0.00000000000E+00 0.  1.
         -3    1    6    6    0  502  0.91859974751E+01 -0.94286071270E+02 -0.11567862653E+03  0.14951852869E+03  0.00000000000E+00 0.  1.
<mgrwt>
<rscale>  0 0.21166882E+04</rscale>
<asrwt>0</asrwt>
<pdfrwt beam="1">  1        2 0.28894071E+00 0.21166882E+04</pdfrwt>
<pdfrwt beam="2">  1       -2 0.91752589E-01 0.21166882E+04</pdfrwt>
<totfact> 0.72627821E+00</totfact>
</mgrwt>
</event>
<event>
12    1  0.1536832E-007  0.1435366E+04  0.7818608E-02  0.8928609E-01
         -2   -1    0    0    0  501 -0.00000000000E+00  0.00000000000E+00  0.61672528867E+03  0.61672528867E+03  0.00000000000E+00 0.  1.
          2   -1    0    0  501    0  0.00000000000E+00 -0.00000000000E+00 -0.83516798586E+03  0.83516798586E+03  0.00000000000E+00 0. -1.
         23    2    1    2    0    0 -0.37777299726E+03  0.22776618129E+02  0.73923671534E+02  0.39637926599E+03  0.91763835475E+02 0.  0.
        254    2    1    2    0    0  0.37777299726E+03 -0.22776618129E+02 -0.29236636873E+03  0.10555140085E+04  0.94095723434E+03 0.  0.
        -24    2    4    4    0    0  0.24963997969E+03  0.36425164603E+03 -0.42589127754E+03  0.61903650395E+03  0.82604066748E+02 0.  0.
         24    2    4    4    0    0  0.12813301758E+03 -0.38702826416E+03  0.13352490881E+03  0.43647750459E+03  0.80465913830E+02 0.  0.
         13    1    3    3    0    0 -0.11320338060E+03 -0.18498219580E+02 -0.11583595734E+02  0.11528820059E+03  0.00000000000E+00 0.  1.
        -13    1    3    3    0    0 -0.26456961667E+03  0.41274837709E+02  0.85507267268E+02  0.28109106540E+03  0.00000000000E+00 0. -1.
          4    1    6    6  502    0 -0.88531294417E+01 -0.58757130139E+02  0.26132228198E+02  0.64912799921E+02  0.00000000000E+00 0. -1.
          3    1    5    5  503    0  0.16301743269E+03  0.20592962258E+03 -0.20125329528E+03  0.33088454433E+03  0.00000000000E+00 0. -1.
         -4    1    5    5    0  503  0.86622546993E+02  0.15832202345E+03 -0.22463798225E+03  0.28815195961E+03  0.00000000000E+00 0.  1.
         -3    1    6    6    0  502  0.13698614702E+03 -0.32827113402E+03  0.10739268061E+03  0.37156470467E+03  0.00000000000E+00 0.  1.
<mgrwt>
<rscale>  0 0.14353665E+04</rscale>
<asrwt>0</asrwt>
<pdfrwt beam="1">  1        2 0.12848738E+00 0.14353665E+04</pdfrwt>
<pdfrwt beam="2">  1       -2 0.94880814E-01 0.14353665E+04</pdfrwt>
<totfact> 0.29509194E+01</totfact>
</mgrwt>
</event>
<event>
12    1  0.1536832E-007  0.1346595E+04  0.7818608E-02  0.8993409E-01
         -1   -1    0    0    0  501 -0.00000000000E+00  0.00000000000E+00  0.27826251715E+03  0.27826251715E+03  0.00000000000E+00 0.  1.
          1   -1    0    0  501    0  0.00000000000E+00 -0.00000000000E+00 -0.16291442395E+04  0.16291442395E+04  0.00000000000E+00 0. -1.
         23    2    1    2    0    0 -0.19802046367E+03 -0.21808917988E+03 -0.70470809476E+02  0.31591772808E+03  0.89793549418E+02 0.  0.
        254    2    1    2    0    0  0.19802046367E+03  0.21808917988E+03 -0.12804109129E+04  0.15914890285E+04  0.89811481884E+03 0.  0.
        -24    2    4    4    0    0  0.31275093358E+03  0.49034636437E+03 -0.56863459395E+03  0.81721780229E+03  0.79037531884E+02 0.  0.
         24    2    4    4    0    0 -0.11473046992E+03 -0.27225718448E+03 -0.71177631890E+03  0.77427122625E+03  0.74721806898E+02 0.  0.
         11    1    3    3    0    0 -0.21010630241E+01 -0.20446905893E+02  0.14254384010E+02  0.25013554125E+02  0.00000000000E+00 0.  1.
        -11    1    3    3    0    0 -0.19591940064E+03 -0.19764227399E+03 -0.84725193486E+02  0.29090417396E+03  0.00000000000E+00 0. -1.
          2    1    6    6  502    0 -0.73488057280E+02 -0.10212861111E+03 -0.23842715986E+03  0.26958905454E+03  0.00000000000E+00 0. -1.
          1    1    5    5  503    0  0.21262966165E+03  0.26541769858E+03 -0.31076273195E+03  0.46068579672E+03  0.00000000000E+00 0. -1.
         -2    1    5    5    0  503  0.10012127193E+03  0.22492866579E+03 -0.25787186200E+03  0.35653200557E+03  0.00000000000E+00 0.  1.
         -1    1    6    6    0  502 -0.41242412635E+02 -0.17012857337E+03 -0.47334915905E+03  0.50468217171E+03  0.00000000000E+00 0.  1.
<mgrwt>
<rscale>  0 0.13465954E+04</rscale>
<asrwt>0</asrwt>
<pdfrwt beam="1">  1        1 0.25063757E+00 0.13465954E+04</pdfrwt>
<pdfrwt beam="2">  1       -1 0.42809619E-01 0.13465954E+04</pdfrwt>
<totfact> 0.28041161E+01</totfact>
</mgrwt>
</event>
<event>
12    1  0.1536832E-007  0.1477145E+04  0.7818608E-02  0.8899795E-01
         -2   -1    0    0    0  501 -0.00000000000E+00  0.00000000000E+00  0.17807408492E+03  0.17807408492E+03  0.00000000000E+00 0.  1.
          2   -1    0    0  501    0  0.00000000000E+00 -0.00000000000E+00 -0.30632716577E+04  0.30632716577E+04  0.00000000000E+00 0. -1.
         23    2    1    2    0    0  0.19163897662E+03  0.20860982791E+02 -0.18237041178E+04  0.18361383746E+04  0.91360513641E+02 0.  0.
        254    2    1    2    0    0 -0.19163897662E+03 -0.20860982791E+02 -0.10614934550E+04  0.14052073680E+04  0.90037698449E+03 0.  0.
        -24    2    4    4    0    0 -0.14429694777E+02  0.34331680934E+03 -0.11235463994E+03  0.37023786514E+03  0.79861530145E+02 0.  0.
         24    2    4    4    0    0 -0.17720928184E+03 -0.36417779213E+03 -0.94913881508E+03  0.10349695029E+04  0.79175676827E+02 0.  0.
         13    1    3    3    0    0  0.15299208053E+03  0.62190066716E+01 -0.16690078240E+04  0.16760168165E+04  0.00000000000E+00 0. -1.
        -13    1    3    3    0    0  0.38646896085E+02  0.14641976119E+02 -0.15469629379E+03  0.16012155806E+03  0.00000000000E+00 0.  1.
          4    1    6    6  502    0 -0.67593142111E+02 -0.12045084273E+03 -0.42079923746E+03  0.44288738594E+03  0.00000000000E+00 0. -1.
          1    1    5    5  503    0 -0.71619937583E+01  0.30728026776E+03 -0.72068819354E+02  0.31569981285E+03  0.00000000000E+00 0. -1.
         -2    1    5    5    0  503 -0.72677010189E+01  0.36036541584E+02 -0.40285820585E+02  0.54538052291E+02  0.00000000000E+00 0.  1.
         -3    1    6    6    0  502 -0.10961613973E+03 -0.24372694941E+03 -0.52833957762E+03  0.59208211697E+03  0.00000000000E+00 0.  1.
<mgrwt>
<rscale>  0 0.14771449E+04</rscale>
<asrwt>0</asrwt>
<pdfrwt beam="1">  1        2 0.47127255E+00 0.14771449E+04</pdfrwt>
<pdfrwt beam="2">  1       -2 0.27396014E-01 0.14771449E+04</pdfrwt>
<totfact> 0.18812881E+01</totfact>
</mgrwt>
</event>
<event>
12    1  0.1536832E-007  0.3018238E+04  0.7818608E-02  0.8238542E-01
          2   -1    0    0  501    0  0.00000000000E+00  0.00000000000E+00  0.12431691203E+04  0.12431691203E+04  0.00000000000E+00 0. -1.
         -2   -1    0    0    0  501 -0.00000000000E+00 -0.00000000000E+00 -0.18319629949E+04  0.18319629949E+04  0.00000000000E+00 0.  1.
         23    2    1    2    0    0  0.86369830300E+03  0.75474261191E+02 -0.13597425288E+04  0.16152346552E+04  0.91717632556E+02 0.  0.
        254    2    1    2    0    0 -0.86369830300E+03 -0.75474261191E+02  0.77094865427E+03  0.14598974600E+04  0.88615328434E+03 0.  0.
        -24    2    4    4    0    0 -0.66982061048E+03  0.33114208127E+03  0.63190041848E+03  0.98189721119E+03  0.80680023863E+02 0.  0.
         24    2    4    4    0    0 -0.19387769252E+03 -0.40661634246E+03  0.13904823579E+03  0.47800024876E+03  0.78894970229E+02 0.  0.
         11    1    3    3    0    0  0.77070485347E+03  0.40388318081E+02 -0.12239922754E+04  0.14469880019E+04  0.00000000000E+00 0.  1.
        -11    1    3    3    0    0  0.92993449525E+02  0.35085943110E+02 -0.13575025342E+03  0.16824665335E+03  0.00000000000E+00 0. -1.
          2    1    6    6  502    0 -0.31640133801E+02 -0.15023784218E+03  0.56162740860E+02  0.16348321244E+03  0.00000000000E+00 0. -1.
          3    1    5    5  503    0 -0.14717163582E+03  0.77470269811E+02  0.18623413724E+03  0.24968837972E+03  0.00000000000E+00 0. -1.
         -4    1    5    5    0  503 -0.52264897466E+03  0.25367181146E+03  0.44566628124E+03  0.73220883147E+03  0.00000000000E+00 0.  1.
         -1    1    6    6    0  502 -0.16223755872E+03 -0.25637850029E+03  0.82885494928E+02  0.31451703632E+03  0.00000000000E+00 0.  1.
<mgrwt>
<rscale>  0 0.30182378E+04</rscale>
<asrwt>0</asrwt>
<pdfrwt beam="1">  1        2 0.19125679E+00 0.30182378E+04</pdfrwt>
<pdfrwt beam="2">  1       -2 0.28184046E+00 0.30182378E+04</pdfrwt>
<totfact> 0.62619403E-01</totfact>
</mgrwt>
</event>
<event>
12    1  0.1536832E-007  0.1659366E+04  0.7818608E-02  0.8784885E-01
         -1   -1    0    0    0  501 -0.00000000000E+00  0.00000000000E+00  0.34871865577E+03  0.34871865577E+03  0.00000000000E+00 0.  1.
          1   -1    0    0  501    0  0.00000000000E+00 -0.00000000000E+00 -0.19740087703E+04  0.19740087703E+04  0.00000000000E+00 0. -1.
         23    2    1    2    0    0  0.82899679482E+02  0.79107343240E+02 -0.13723989392E+04  0.13802044336E+04  0.91406243711E+02 0.  0.
        254    2    1    2    0    0 -0.82899679482E+02 -0.79107343240E+02 -0.25289117534E+03  0.94252299255E+03  0.90070267920E+03 0.  0.
        -24    2    4    4    0    0 -0.61317860783E+02  0.28051111320E+03  0.19919072308E+03  0.35848573215E+03  0.79929414610E+02 0.  0.
         24    2    4    4    0    0 -0.21581818699E+02 -0.35961845644E+03 -0.45208189841E+03  0.58403726040E+03  0.83248240571E+02 0.  0.
         13    1    3    3    0    0  0.33387451419E+02  0.84738043584E+02 -0.10542181059E+04  0.10581451095E+04  0.00000000000E+00 0. -1.
        -13    1    3    3    0    0  0.49512228063E+02 -0.56307003436E+01 -0.31818083333E+03  0.32205932406E+03  0.00000000000E+00 0.  1.
          2    1    6    6  502    0 -0.33001779684E+01 -0.23797182513E+03 -0.23464300165E+03  0.33421373244E+03  0.00000000000E+00 0. -1.
          1    1    5    5  503    0 -0.64370936039E+02  0.26022409331E+03  0.15472573415E+03  0.30951615298E+03  0.00000000000E+00 0. -1.
         -2    1    5    5    0  503  0.30530752560E+01  0.20287019885E+02  0.44464988925E+02  0.48969579174E+02  0.00000000000E+00 0.  1.
         -1    1    6    6    0  502 -0.18281640730E+02 -0.12164663130E+03 -0.21743889677E+03  0.24982352796E+03  0.00000000000E+00 0.  1.
<mgrwt>
<rscale>  0 0.16593658E+04</rscale>
<asrwt>0</asrwt>
<pdfrwt beam="1">  1        1 0.30369366E+00 0.16593658E+04</pdfrwt>
<pdfrwt beam="2">  1       -1 0.53649024E-01 0.16593658E+04</pdfrwt>
<totfact> 0.10393000E+01</totfact>
</mgrwt>
</event>
<event>
12    1  0.1536832E-007  0.1567061E+04  0.7818608E-02  0.8841043E-01
          2   -1    0    0  501    0  0.00000000000E+00  0.00000000000E+00  0.12132615040E+04  0.12132615040E+04  0.00000000000E+00 0.  1.
         -2   -1    0    0    0  501 -0.00000000000E+00 -0.00000000000E+00 -0.50600803891E+03  0.50600803891E+03  0.00000000000E+00 0. -1.
         23    2    1    2    0    0 -0.20921977476E+03  0.42408584473E+03  0.36658537076E+01  0.48202941027E+03  0.93365925422E+02 0.  0.
        254    2    1    2    0    0  0.20921977476E+03 -0.42408584473E+03  0.70358761137E+03  0.12372401326E+04  0.90116918558E+03 0.  0.
        -24    2    4    4    0    0  0.11768546831E+03 -0.31787559027E+03  0.91064992001E+03  0.97491571842E+03  0.79262985541E+02 0.  0.
         24    2    4    4    0    0  0.91534306454E+02 -0.10621025446E+03 -0.20706230864E+03  0.26232441419E+03  0.79247405074E+02 0.  0.
         11    1    3    3    0    0 -0.19628862347E+03  0.38769498512E+03 -0.22897095177E+02  0.43515618134E+03  0.00000000000E+00 0. -1.
        -11    1    3    3    0    0 -0.12931151293E+02  0.36390859610E+02  0.26562948884E+02  0.46873228930E+02  0.00000000000E+00 0.  1.
          2    1    6    6  502    0  0.72202519520E+01  0.12158506295E+02 -0.30694297202E+02  0.33794987710E+02  0.00000000000E+00 0. -1.
          3    1    5    5  503    0  0.24724886174E+02 -0.17897751231E+02  0.48049875192E+02  0.56924862771E+02  0.00000000000E+00 0. -1.
         -4    1    5    5    0  503  0.92960582135E+02 -0.29997783903E+03  0.86260004482E+03  0.91799085565E+03  0.00000000000E+00 0.  1.
         -1    1    6    6    0  502  0.84314054502E+02 -0.11836876076E+03 -0.17636801144E+03  0.22852942648E+03  0.00000000000E+00 0.  1.
<mgrwt>
<rscale>  0 0.15670610E+04</rscale>
<asrwt>0</asrwt>
<pdfrwt beam="1">  1        2 0.18665562E+00 0.15670610E+04</pdfrwt>
<pdfrwt beam="2">  1       -2 0.77847391E-01 0.15670610E+04</pdfrwt>
<totfact> 0.26277862E+01</totfact>
</mgrwt>
</event>
<event>
12    1  0.1536832E-007  0.2359853E+04  0.7818608E-02  0.8454689E-01
          3   -1    0    0  501    0  0.00000000000E+00  0.00000000000E+00  0.88393471331E+03  0.88393471331E+03  0.00000000000E+00 0. -1.
         -3   -1    0    0    0  501 -0.00000000000E+00 -0.00000000000E+00 -0.15750327383E+04  0.15750327383E+04  0.00000000000E+00 0.  1.
         23    2    1    2    0    0 -0.50560583602E+03  0.37984568490E+03  0.51840414132E+03  0.82285111465E+03  0.91766537413E+02 0.  0.
        254    2    1    2    0    0  0.50560583602E+03 -0.37984568490E+03 -0.12095021663E+04  0.16361163370E+04  0.90225338571E+03 0.  0.
        -24    2    4    4    0    0  0.49706818963E+03  0.65612272487E+02 -0.23057126583E+03  0.55770696781E+03  0.80574176191E+02 0.  0.
         24    2    4    4    0    0  0.85376463911E+01 -0.44545795738E+03 -0.97893090050E+03  0.10784093692E+04  0.78456206663E+02 0.  0.
         11    1    3    3    0    0 -0.33859541094E+02  0.26821991278E+02  0.70672994458E+02  0.82828496817E+02  0.00000000000E+00 0.  1.
        -11    1    3    3    0    0 -0.47174629493E+03  0.35302369362E+03  0.44773114686E+03  0.74002261783E+03  0.00000000000E+00 0. -1.
          4    1    6    6  502    0  0.11510885288E+02 -0.41304926925E+03 -0.94501457472E+03  0.10314042591E+04  0.00000000000E+00 0. -1.
          3    1    5    5  503    0  0.25756105021E+03  0.66147545245E+02 -0.14821505686E+03  0.30443537148E+03  0.00000000000E+00 0. -1.
         -4    1    5    5    0  503  0.23950713942E+03 -0.53527275725E+00 -0.82356208972E+02  0.25327159633E+03  0.00000000000E+00 0.  1.
         -3    1    6    6    0  502 -0.29732388971E+01 -0.32408688138E+02 -0.33916325781E+02  0.47005110050E+02  0.00000000000E+00 0.  1.
<mgrwt>
<rscale>  0 0.23598526E+04</rscale>
<asrwt>0</asrwt>
<pdfrwt beam="1">  1        3 0.13598996E+00 0.23598526E+04</pdfrwt>
<pdfrwt beam="2">  1       -3 0.24231273E+00 0.23598526E+04</pdfrwt>
<totfact> 0.79253708E-02</totfact>
</mgrwt>
</event>
<event>
12    1  0.1536832E-007  0.1325673E+04  0.7818608E-02  0.9009450E-01
          1   -1    0    0  501    0  0.00000000000E+00  0.00000000000E+00  0.60399840846E+03  0.60399840846E+03  0.00000000000E+00 0. -1.
         -1   -1    0    0    0  501 -0.00000000000E+00 -0.00000000000E+00 -0.72740659623E+03  0.72740659623E+03  0.00000000000E+00 0.  1.
         23    2    1    2    0    0 -0.11706983073E+03  0.24191078408E+03 -0.22947620191E+03  0.36445750300E+03  0.89127838146E+02 0.  0.
        254    2    1    2    0    0  0.11706983073E+03 -0.24191078408E+03  0.10606801415E+03  0.96694750169E+03  0.92277346877E+03 0.  0.
        -24    2    4    4    0    0  0.52051987006E+01  0.33768514255E+03 -0.55366023504E+02  0.34991083049E+03  0.72896111981E+02 0.  0.
         24    2    4    4    0    0  0.11186463203E+03 -0.57959592663E+03  0.16143403765E+03  0.61703667120E+03  0.78918762181E+02 0.  0.
         13    1    3    3    0    0 -0.11783946430E+03  0.21997209621E+03 -0.23394095041E+03  0.34205588832E+03  0.00000000000E+00 0.  1.
        -13    1    3    3    0    0  0.76963357014E+00  0.21938687866E+02  0.44647484998E+01  0.22401614680E+02  0.00000000000E+00 0. -1.
          4    1    6    6  502    0  0.11253592488E+03 -0.45898531922E+03  0.15032934300E+03  0.49591407422E+03  0.00000000000E+00 0. -1.
          1    1    5    5  503    0  0.12970734045E+02  0.88486486062E+02 -0.45632427620E+02  0.10040127792E+03  0.00000000000E+00 0. -1.
         -2    1    5    5    0  503 -0.77655353443E+01  0.24919865649E+03 -0.97335958840E+01  0.24950955257E+03  0.00000000000E+00 0.  1.
         -3    1    6    6    0  502 -0.67129285350E+00 -0.12061060741E+03  0.11104694656E+02  0.12112259697E+03  0.00000000000E+00 0.  1.
<mgrwt>
<rscale>  0 0.13256733E+04</rscale>
<asrwt>0</asrwt>
<pdfrwt beam="1">  1        1 0.92922833E-01 0.13256733E+04</pdfrwt>
<pdfrwt beam="2">  1       -1 0.11190871E+00 0.13256733E+04</pdfrwt>
<totfact> 0.24380858E+01</totfact>
</mgrwt>
</event>
<event>
12    1  0.1536832E-007  0.1689865E+04  0.7818608E-02  0.8767166E-01
          2   -1    0    0  501    0  0.00000000000E+00  0.00000000000E+00  0.12323180454E+04  0.12323180454E+04  0.00000000000E+00 0. -1.
         -2   -1    0    0    0  501 -0.00000000000E+00 -0.00000000000E+00 -0.57932359806E+03  0.57932359806E+03  0.00000000000E+00 0.  1.
         23    2    1    2    0    0  0.21873788066E+03 -0.40713608510E+03 -0.18140945884E+03  0.50508087885E+03  0.92688997161E+02 0.  0.
        254    2    1    2    0    0 -0.21873788066E+03  0.40713608510E+03  0.83440390615E+03  0.13065607646E+04  0.89289702691E+03 0.  0.
        -24    2    4    4    0    0  0.94236803695E+02 -0.15424770520E+03  0.57394975321E+03  0.60767720654E+03  0.84736877525E+02 0.  0.
         24    2    4    4    0    0 -0.31297468436E+03  0.56138379030E+03  0.26045415294E+03  0.69888355802E+03  0.86584922641E+02 0.  0.
         13    1    3    3    0    0  0.19217088399E+03 -0.39863429136E+03 -0.16272185838E+03  0.47150540834E+03  0.00000000000E+00 0.  1.
        -13    1    3    3    0    0  0.26566996671E+02 -0.85017937463E+01 -0.18687600463E+02  0.33575470512E+02  0.00000000000E+00 0. -1.
          4    1    6    6  502    0 -0.45730633206E+01  0.31334164099E+02  0.30442387482E+02  0.43925865996E+02  0.00000000000E+00 0. -1.
          3    1    5    5  503    0  0.68096084507E+02 -0.72531678069E+02  0.19239850066E+03  0.21659894761E+03  0.00000000000E+00 0. -1.
         -4    1    5    5    0  503  0.26140719188E+02 -0.81716027128E+02  0.38155125255E+03  0.39107825893E+03  0.00000000000E+00 0.  1.
         -3    1    6    6    0  502 -0.30840162104E+03  0.53004962620E+03  0.23001176546E+03  0.65495769203E+03  0.00000000000E+00 0.  1.
<mgrwt>
<rscale>  0 0.16898650E+04</rscale>
<asrwt>0</asrwt>
<pdfrwt beam="1">  1        2 0.18958739E+00 0.16898650E+04</pdfrwt>
<pdfrwt beam="2">  1       -2 0.89126707E-01 0.16898650E+04</pdfrwt>
<totfact> 0.18652813E+01</totfact>
</mgrwt>
</event>
<event>
12    1  0.1536832E-007  0.1784303E+04  0.7818608E-02  0.8714691E-01
         -1   -1    0    0    0  501 -0.00000000000E+00  0.00000000000E+00  0.71956189782E+03  0.71956189782E+03  0.00000000000E+00 0.  1.
          1   -1    0    0  501    0  0.00000000000E+00 -0.00000000000E+00 -0.11061379704E+04  0.11061379704E+04  0.00000000000E+00 0. -1.
         23    2    1    2    0    0 -0.11459417578E+03 -0.52915429000E+03  0.24052158400E+03  0.59900467033E+03  0.88430056825E+02 0.  0.
        254    2    1    2    0    0  0.11459417578E+03  0.52915429000E+03 -0.62709765659E+03  0.12266951979E+04  0.90465106527E+03 0.  0.
        -24    2    4    4    0    0  0.40371465387E+03  0.58117280569E+03 -0.27992963238E+03  0.76482301256E+03  0.76461033386E+02 0.  0.
         24    2    4    4    0    0 -0.28912047809E+03 -0.52018515688E+02 -0.34716802422E+03  0.46187218535E+03  0.80645531379E+02 0.  0.
         11    1    3    3    0    0 -0.61626607298E+02 -0.33391431978E+03  0.19530716331E+03  0.39171609582E+03  0.00000000000E+00 0. -1.
        -11    1    3    3    0    0 -0.52967568481E+02 -0.19523997022E+03  0.45214420691E+02  0.20728857451E+03  0.00000000000E+00 0.  1.
          2    1    6    6  502    0 -0.19600051442E+03 -0.64457192994E+02 -0.27287792389E+03  0.34210129016E+03  0.00000000000E+00 0. -1.
          1    1    5    5  503    0  0.30298167218E+03  0.48171362246E+03 -0.24104161927E+03  0.61801858383E+03  0.00000000000E+00 0. -1.
         -2    1    5    5    0  503  0.10073298169E+03  0.99459183235E+02 -0.38888013104E+02  0.14680442873E+03  0.00000000000E+00 0.  1.
         -1    1    6    6    0  502 -0.93119963671E+02  0.12438677306E+02 -0.74290100323E+02  0.11977089518E+03  0.00000000000E+00 0.  1.
<mgrwt>
<rscale>  0 0.17843035E+04</rscale>
<asrwt>0</asrwt>
<pdfrwt beam="1">  1        1 0.17017507E+00 0.17843035E+04</pdfrwt>
<pdfrwt beam="2">  1       -1 0.11070183E+00 0.17843035E+04</pdfrwt>
<totfact> 0.89118689E+00</totfact>
</mgrwt>
</event>
<event>
12    1  0.1536832E-007  0.3386465E+04  0.7818608E-02  0.8141236E-01
          1   -1    0    0  501    0  0.00000000000E+00  0.00000000000E+00  0.76455270318E+03  0.76455270318E+03  0.00000000000E+00 0. -1.
         -1   -1    0    0    0  501 -0.00000000000E+00 -0.00000000000E+00 -0.37499535692E+04  0.37499535692E+04  0.00000000000E+00 0.  1.
         23    2    1    2    0    0 -0.90092227699E+03  0.90338509617E+03 -0.17027158110E+03  0.12902916283E+04  0.89969404146E+02 0.  0.
        254    2    1    2    0    0  0.90092227699E+03 -0.90338509617E+03 -0.28151292850E+04  0.32242146441E+04  0.91806404946E+03 0.  0.
        -24    2    4    4    0    0  0.52081711423E+03 -0.97416242586E+03 -0.15958898770E+04  0.19424356118E+04  0.77127868707E+02 0.  0.
         24    2    4    4    0    0  0.38010516276E+03  0.70777329690E+02 -0.12192394080E+04  0.12817790323E+04  0.83206901470E+02 0.  0.
         11    1    3    3    0    0 -0.39528245547E+03  0.33390718824E+03 -0.71024416693E+02  0.52228985988E+03  0.00000000000E+00 0.  1.
        -11    1    3    3    0    0 -0.50563982151E+03  0.56947790793E+03 -0.99247164408E+02  0.76800176847E+03  0.00000000000E+00 0. -1.
          2    1    6    6  502    0  0.17678345612E+03 -0.29647393247E+01 -0.47898553592E+03  0.51057646211E+03  0.00000000000E+00 0. -1.
          1    1    5    5  503    0  0.10401879792E+03 -0.21179320632E+03 -0.39655014473E+03  0.46144153459E+03  0.00000000000E+00 0. -1.
         -2    1    5    5    0  503  0.41679831631E+03 -0.76236921954E+03 -0.11993397322E+04  0.14809940772E+04  0.00000000000E+00 0.  1.
         -1    1    6    6    0  502  0.20332170664E+03  0.73742069014E+02 -0.74025387207E+03  0.77120257018E+03  0.00000000000E+00 0.  1.
<mgrwt>
<rscale>  0 0.33864655E+04</rscale>
<asrwt>0</asrwt>
<pdfrwt beam="1">  1        1 0.11762349E+00 0.33864655E+04</pdfrwt>
<pdfrwt beam="2">  1       -1 0.57691594E+00 0.33864655E+04</pdfrwt>
<totfact> 0.10759520E-02</totfact>
</mgrwt>
</event>
<event>
12    1  0.1536832E-007  0.1488375E+04  0.7818608E-02  0.8892220E-01
         -1   -1    0    0    0  501 -0.00000000000E+00  0.00000000000E+00  0.38707718476E+03  0.38707718476E+03  0.00000000000E+00 0.  1.
          1   -1    0    0  501    0  0.00000000000E+00 -0.00000000000E+00 -0.14307618672E+04  0.14307618672E+04  0.00000000000E+00 0. -1.
         23    2    1    2    0    0 -0.13220208459E+03 -0.12405448112E+03 -0.85010991422E+03  0.87426183120E+03  0.93701535610E+02 0.  0.
        254    2    1    2    0    0  0.13220208459E+03  0.12405448112E+03 -0.19357476818E+03  0.94357722072E+03  0.90553844487E+03 0.  0.
        -24    2    4    4    0    0  0.13718378298E+03  0.19296777500E+03 -0.53283354523E+03  0.58853417365E+03  0.80030832389E+02 0.  0.
         24    2    4    4    0    0 -0.49816983938E+01 -0.68913293888E+02  0.33925877705E+03  0.35504304707E+03  0.78645966666E+02 0.  0.
         11    1    3    3    0    0 -0.57390773645E+02 -0.11483800641E+03 -0.55885870465E+03  0.57341478912E+03  0.00000000000E+00 0.  1.
        -11    1    3    3    0    0 -0.74811310946E+02 -0.92164747078E+01 -0.29125120957E+03  0.30084704208E+03  0.00000000000E+00 0. -1.
          4    1    6    6  502    0  0.28850110169E+02 -0.64096378363E+02  0.21716924382E+03  0.22826115534E+03  0.00000000000E+00 0. -1.
          1    1    5    5  503    0  0.13996024262E+03  0.17448496971E+03 -0.43727784559E+03  0.49116778030E+03  0.00000000000E+00 0. -1.
         -4    1    5    5    0  503 -0.27764596325E+01  0.18482805291E+02 -0.95555699642E+02  0.97366393348E+02  0.00000000000E+00 0.  1.
         -3    1    6    6    0  502 -0.33831808563E+02 -0.48169155248E+01  0.12208953324E+03  0.12678189173E+03  0.00000000000E+00 0.  1.
<mgrwt>
<rscale>  0 0.14883753E+04</rscale>
<asrwt>0</asrwt>
<pdfrwt beam="1">  1        1 0.22011721E+00 0.14883753E+04</pdfrwt>
<pdfrwt beam="2">  1       -1 0.59550337E-01 0.14883753E+04</pdfrwt>
<totfact> 0.20234352E+01</totfact>
</mgrwt>
</event>
<event>
12    1  0.1536832E-007  0.1493248E+04  0.7818608E-02  0.8888956E-01
          1   -1    0    0  501    0  0.00000000000E+00  0.00000000000E+00  0.81030423730E+03  0.81030423730E+03  0.00000000000E+00 0. -1.
         -1   -1    0    0    0  501 -0.00000000000E+00 -0.00000000000E+00 -0.68794794154E+03  0.68794794154E+03  0.00000000000E+00 0.  1.
         23    2    1    2    0    0  0.31534488910E+03  0.34254748427E+03 -0.66840758177E+01  0.47595398536E+03  0.98520765619E+02 0.  0.
        254    2    1    2    0    0 -0.31534488910E+03 -0.34254748427E+03  0.12904037159E+03  0.10222981935E+04  0.90092230565E+03 0.  0.
        -24    2    4    4    0    0 -0.31513914868E+03 -0.21814918562E+03  0.49337222528E+03  0.62933838206E+03  0.75821476112E+02 0.  0.
         24    2    4    4    0    0 -0.20574042236E+00 -0.12439829865E+03 -0.36433185369E+03  0.39295981142E+03  0.78770138609E+02 0.  0.
         13    1    3    3    0    0  0.31639473803E+03  0.31760635748E+03 -0.17726277305E+02  0.44865760829E+03  0.00000000000E+00 0.  1.
        -13    1    3    3    0    0 -0.10498489307E+01  0.24941126781E+02  0.11042201487E+02  0.27296377078E+02  0.00000000000E+00 0. -1.
          4    1    6    6  502    0 -0.60227438478E+01  0.10390644692E+02 -0.23350263007E+02  0.26257831652E+02  0.00000000000E+00 0. -1.
          1    1    5    5  503    0 -0.85913929641E+02 -0.10290269842E+03  0.16305336193E+03  0.21108426631E+03  0.00000000000E+00 0. -1.
         -2    1    5    5    0  503 -0.22922521903E+03 -0.11524648720E+03  0.33031886335E+03  0.41825411575E+03  0.00000000000E+00 0.  1.
         -3    1    6    6    0  502  0.58170034254E+01 -0.13478894334E+03 -0.34098159069E+03  0.36670197976E+03  0.00000000000E+00 0.  1.
<mgrwt>
<rscale>  0 0.14932476E+04</rscale>
<asrwt>0</asrwt>
<pdfrwt beam="1">  1        1 0.12466219E+00 0.14932476E+04</pdfrwt>
<pdfrwt beam="2">  1       -1 0.10583814E+00 0.14932476E+04</pdfrwt>
<totfact> 0.17524076E+01</totfact>
</mgrwt>
</event>
<event>
12    1  0.1622681E-007  0.2672075E+04  0.7818608E-02  0.8344123E-01
          1   -1    0    0  501    0  0.00000000000E+00  0.00000000000E+00  0.31871736230E+04  0.31871736230E+04  0.00000000000E+00 0. -1.
         -1   -1    0    0    0  501 -0.00000000000E+00 -0.00000000000E+00 -0.56005604479E+03  0.56005604479E+03  0.00000000000E+00 0.  1.
         23    2    1    2    0    0 -0.31315625423E+03 -0.16640693384E+03  0.27516354366E+04  0.27757787091E+04  0.87702672725E+02 0.  0.
        254    2    1    2    0    0  0.31315625423E+03  0.16640693384E+03 -0.12451785846E+03  0.97145095862E+03  0.89579805801E+03 0.  0.
        -24    2    4    4    0    0  0.42860237506E+03 -0.24977354505E+03  0.37072543719E+02  0.50365806589E+03  0.78805165566E+02 0.  0.
         24    2    4    4    0    0 -0.11544612083E+03  0.41618047889E+03 -0.16159040218E+03  0.46779289273E+03  0.78643083526E+02 0.  0.
         13    1    3    3    0    0 -0.30263408517E+03 -0.17112502136E+03  0.27195772066E+04  0.27417095662E+04  0.00000000000E+00 0. -1.
        -13    1    3    3    0    0 -0.10522169062E+02  0.47180875213E+01  0.32058230026E+02  0.34069142990E+02  0.00000000000E+00 0.  1.
          2    1    6    6  502    0 -0.10073138963E+03  0.40264805868E+03 -0.16650022788E+03  0.44720755573E+03  0.00000000000E+00 0. -1.
          1    1    5    5  503    0  0.36800123987E+03 -0.24295513637E+03  0.38617687806E+02  0.44265498602E+03  0.00000000000E+00 0. -1.
         -2    1    5    5    0  503  0.60601135195E+02 -0.68184086832E+01 -0.15451440872E+01  0.61003079874E+02  0.00000000000E+00 0.  1.
         -1    1    6    6    0  502 -0.14714731197E+02  0.13532420206E+02  0.49098257013E+01  0.20585336996E+02  0.00000000000E+00 0.  1.
<mgrwt>
<rscale>  0 0.26720747E+04</rscale>
<asrwt>0</asrwt>
<pdfrwt beam="1">  1        1 0.49033439E+00 0.26720747E+04</pdfrwt>
<pdfrwt beam="2">  1       -1 0.86162470E-01 0.26720747E+04</pdfrwt>
<totfact> 0.50546307E-01</totfact>
</mgrwt>
</event>
<event>
12    1  0.1536832E-007  0.2260614E+04  0.7818608E-02  0.8493614E-01
         -1   -1    0    0    0  501 -0.00000000000E+00  0.00000000000E+00  0.49060662966E+03  0.49060662966E+03  0.00000000000E+00 0.  1.
          1   -1    0    0  501    0  0.00000000000E+00 -0.00000000000E+00 -0.26041104542E+04  0.26041104542E+04  0.00000000000E+00 0. -1.
         23    2    1    2    0    0  0.56284246932E+03 -0.70171806645E+03 -0.48011728302E+03  0.10239958758E+04  0.94101318936E+02 0.  0.
        254    2    1    2    0    0 -0.56284246932E+03  0.70171806645E+03 -0.16333865415E+04  0.20707212080E+04  0.90040815038E+03 0.  0.
        -24    2    4    4    0    0  0.22704970313E+03  0.23093382735E+03 -0.58912172275E+03  0.67704707930E+03  0.80289121745E+02 0.  0.
         24    2    4    4    0    0 -0.78989217244E+03  0.47078423910E+03 -0.10442648188E+04  0.13936741287E+04  0.79190412716E+02 0.  0.
         11    1    3    3    0    0  0.35942800960E+03 -0.43136530723E+03 -0.24874322735E+03  0.61411539267E+03  0.00000000000E+00 0.  1.
        -11    1    3    3    0    0  0.20341445971E+03 -0.27035275922E+03 -0.23137405567E+03  0.40988048316E+03  0.00000000000E+00 0. -1.
          2    1    6    6  502    0 -0.49692466061E+03  0.33390077695E+03 -0.64840663740E+03  0.88252762823E+03  0.00000000000E+00 0. -1.
          3    1    5    5  503    0  0.19238743976E+03  0.16894333204E+03 -0.51041575348E+03  0.57103328959E+03  0.00000000000E+00 0. -1.
         -4    1    5    5    0  503  0.34662263367E+02  0.61990495310E+02 -0.78705969268E+02  0.10601378971E+03  0.00000000000E+00 0.  1.
         -3    1    6    6    0  502 -0.29296751183E+03  0.13688346214E+03 -0.39585818138E+03  0.51114650049E+03  0.00000000000E+00 0.  1.
<mgrwt>
<rscale>  0 0.22606139E+04</rscale>
<asrwt>0</asrwt>
<pdfrwt beam="1">  1        1 0.40063238E+00 0.22606139E+04</pdfrwt>
<pdfrwt beam="2">  1       -1 0.75477943E-01 0.22606139E+04</pdfrwt>
<totfact> 0.18341317E+00</totfact>
</mgrwt>
</event>
<event>
12    1  0.2210533E-007  0.2641064E+04  0.7818608E-02  0.8354385E-01
         -2   -1    0    0    0  501 -0.00000000000E+00  0.00000000000E+00  0.73461724520E+03  0.73461724520E+03  0.00000000000E+00 0.  1.
          2   -1    0    0  501    0  0.00000000000E+00 -0.00000000000E+00 -0.23737600659E+04  0.23737600659E+04  0.00000000000E+00 0. -1.
         23    2    1    2    0    0 -0.25344523346E+03 -0.85331693287E+03 -0.16056325103E+04  0.18381681277E+04  0.91771637184E+02 0.  0.
        254    2    1    2    0    0  0.25344523346E+03  0.85331693287E+03 -0.33510310380E+02  0.12702091833E+04  0.90549663404E+03 0.  0.
        -24    2    4    4    0    0  0.58229178172E+03  0.55101375851E+03  0.51276625513E+02  0.80712242370E+03  0.78341772910E+02 0.  0.
         24    2    4    4    0    0 -0.32884654825E+03  0.30230317436E+03 -0.84786935893E+02  0.46308675965E+03  0.87938961455E+02 0.  0.
         13    1    3    3    0    0 -0.22062815378E+03 -0.67242661814E+03 -0.13353275053E+04  0.15112689652E+04  0.00000000000E+00 0. -1.
        -13    1    3    3    0    0 -0.32817079688E+02 -0.18089031473E+03 -0.27030500504E+03  0.32689916249E+03  0.00000000000E+00 0.  1.
          2    1    6    6  502    0 -0.43977704202E+02  0.73695142986E+01 -0.11835945624E+01  0.44606603815E+02  0.00000000000E+00 0. -1.
          1    1    5    5  503    0  0.63459835746E+02  0.94175020554E+02 -0.39126584445E+01  0.11362831577E+03  0.00000000000E+00 0. -1.
         -2    1    5    5    0  503  0.51883194597E+03  0.45683873796E+03  0.55189283958E+02  0.69349410792E+03  0.00000000000E+00 0.  1.
         -1    1    6    6    0  502 -0.28486884405E+03  0.29493366006E+03 -0.83603341331E+02  0.41848015583E+03  0.00000000000E+00 0.  1.
<mgrwt>
<rscale>  0 0.26410642E+04</rscale>
<asrwt>0</asrwt>
<pdfrwt beam="1">  1        2 0.36519386E+00 0.26410642E+04</pdfrwt>
<pdfrwt beam="2">  1       -2 0.11301804E+00 0.26410642E+04</pdfrwt>
<totfact> 0.22315557E+00</totfact>
</mgrwt>
</event>
<event>
12    1  0.1536832E-007  0.2357936E+04  0.7818608E-02  0.8455422E-01
          1   -1    0    0  501    0  0.00000000000E+00  0.00000000000E+00  0.19715263448E+04  0.19715263448E+04  0.00000000000E+00 0. -1.
         -1   -1    0    0    0  501 -0.00000000000E+00 -0.00000000000E+00 -0.70502022519E+03  0.70502022519E+03  0.00000000000E+00 0.  1.
         23    2    1    2    0    0 -0.31916738393E+03  0.25876597313E+03  0.15759588699E+04  0.16311047374E+04  0.89602771997E+02 0.  0.
        254    2    1    2    0    0  0.31916738393E+03 -0.25876597313E+03 -0.30945275029E+03  0.10454418327E+04  0.91014283109E+03 0.  0.
        -24    2    4    4    0    0  0.15564606198E+03 -0.33889123175E+03  0.24690655783E+03  0.45447012492E+03  0.80667729512E+02 0.  0.
         24    2    4    4    0    0  0.16352132195E+03  0.80125258612E+02 -0.55635930812E+03  0.59097170774E+03  0.80948130378E+02 0.  0.
         11    1    3    3    0    0 -0.18171288387E+03  0.19332415900E+03  0.90490393075E+03  0.94299784013E+03  0.00000000000E+00 0. -1.
        -11    1    3    3    0    0 -0.13745450006E+03  0.65441814137E+02  0.67105493920E+03  0.68810689725E+03  0.00000000000E+00 0.  1.
          4    1    6    6  502    0  0.10878518055E+03  0.89290529347E+02 -0.44184739460E+03  0.46371988771E+03  0.00000000000E+00 0. -1.
          1    1    5    5  503    0  0.13866830695E+03 -0.29088438525E+03  0.17600816654E+03  0.36718047282E+03  0.00000000000E+00 0. -1.
         -2    1    5    5    0  503  0.16977755031E+02 -0.48006846495E+02  0.70898391286E+02  0.87289652097E+02  0.00000000000E+00 0.  1.
         -3    1    6    6    0  502  0.54736141398E+02 -0.91652707358E+01 -0.11451191352E+03  0.12725182003E+03  0.00000000000E+00 0.  1.
<mgrwt>
<rscale>  0 0.23579363E+04</rscale>
<asrwt>0</asrwt>
<pdfrwt beam="1">  1        1 0.30331174E+00 0.23579363E+04</pdfrwt>
<pdfrwt beam="2">  1       -1 0.10846465E+00 0.23579363E+04</pdfrwt>
<totfact> 0.22103361E+00</totfact>
</mgrwt>
</event>
<event>
12    1  0.1536832E-007  0.1963804E+04  0.7818608E-02  0.8623733E-01
          1   -1    0    0  501    0  0.00000000000E+00  0.00000000000E+00  0.16132788261E+04  0.16132788261E+04  0.00000000000E+00 0. -1.
         -1   -1    0    0    0  501 -0.00000000000E+00 -0.00000000000E+00 -0.59762240774E+03  0.59762240774E+03  0.00000000000E+00 0.  1.
         23    2    1    2    0    0  0.43041945860E+03 -0.61857021287E+03  0.11575092793E+03  0.76773844626E+03  0.90188834983E+02 0.  0.
        254    2    1    2    0    0 -0.43041945860E+03  0.61857021287E+03  0.89990549044E+03  0.14431627876E+04  0.83964213878E+03 0.  0.
        -24    2    4    4    0    0  0.80408562620E+02  0.12525909313E+03 -0.11314594367E+03  0.20322661750E+03  0.79647197917E+02 0.  0.
         24    2    4    4    0    0 -0.51082802122E+03  0.49331111974E+03  0.10130514341E+04  0.12399361701E+04  0.82869594349E+02 0.  0.
         11    1    3    3    0    0  0.50120894474E+02 -0.11172150850E+03 -0.55483416489E+01  0.12257480826E+03  0.00000000000E+00 0. -1.
        -11    1    3    3    0    0  0.38029856412E+03 -0.50684870437E+03  0.12129926958E+03  0.64516363800E+03  0.00000000000E+00 0.  1.
          2    1    6    6  502    0 -0.34021272034E+03  0.33123777681E+03  0.60744285680E+03  0.77100582627E+03  0.00000000000E+00 0. -1.
          1    1    5    5  503    0  0.33423590350E+02  0.95198418931E+02 -0.10706955770E+03  0.14711820263E+03  0.00000000000E+00 0. -1.
         -2    1    5    5    0  503  0.46984972270E+02  0.30060674203E+02 -0.60763859686E+01  0.56108414869E+02  0.00000000000E+00 0.  1.
         -1    1    6    6    0  502 -0.17061530088E+03  0.16207334292E+03  0.40560857731E+03  0.46893034384E+03  0.00000000000E+00 0.  1.
<mgrwt>
<rscale>  0 0.19638040E+04</rscale>
<asrwt>0</asrwt>
<pdfrwt beam="1">  1        1 0.24819674E+00 0.19638040E+04</pdfrwt>
<pdfrwt beam="2">  1       -1 0.91941910E-01 0.19638040E+04</pdfrwt>
<totfact> 0.58573871E+00</totfact>
</mgrwt>
</event>
<event>
12    1  0.1536832E-007  0.1901417E+04  0.7818608E-02  0.8654152E-01
          2   -1    0    0  501    0  0.00000000000E+00  0.00000000000E+00  0.26987407901E+04  0.26987407901E+04  0.00000000000E+00 0. -1.
         -2   -1    0    0    0  501 -0.00000000000E+00 -0.00000000000E+00 -0.33491411168E+03  0.33491411168E+03  0.00000000000E+00 0.  1.
         23    2    1    2    0    0  0.26460112826E+02  0.64136794984E+03  0.35145004636E+03  0.73812904197E+03  0.96251560256E+02 0.  0.
        254    2    1    2    0    0 -0.26460112826E+02 -0.64136794984E+03  0.20123766321E+04  0.22955258599E+04  0.89873593407E+03 0.  0.
        -24    2    4    4    0    0  0.28350197165E+03  0.82360446536E+02  0.68728201970E+03  0.75228114460E+03  0.80085796732E+02 0.  0.
         24    2    4    4    0    0 -0.30996208447E+03 -0.72372839638E+03  0.13250946124E+04  0.15432447153E+04  0.76610924851E+02 0.  0.
         11    1    3    3    0    0  0.23194470070E+02  0.52558827559E+03  0.24319734141E+03  0.57959120571E+03  0.00000000000E+00 0.  1.
        -11    1    3    3    0    0  0.32656427555E+01  0.11577967426E+03  0.10825270495E+03  0.15853783625E+03  0.00000000000E+00 0. -1.
          4    1    6    6  502    0 -0.30551938948E+03 -0.66886170989E+03  0.12159340508E+04  0.14209903941E+04  0.00000000000E+00 0. -1.
          3    1    5    5  503    0  0.26464100170E+03  0.75877406885E+02  0.67468472613E+03  0.72869178692E+03  0.00000000000E+00 0. -1.
         -4    1    5    5    0  503  0.18860969947E+02  0.64830396507E+01  0.12597293575E+02  0.23589357683E+02  0.00000000000E+00 0.  1.
         -3    1    6    6    0  502 -0.44426949937E+01 -0.54866686490E+02  0.10916056160E+03  0.12225432113E+03  0.00000000000E+00 0.  1.
<mgrwt>
<rscale>  0 0.19014167E+04</rscale>
<asrwt>0</asrwt>
<pdfrwt beam="1">  1        2 0.41519088E+00 0.19014167E+04</pdfrwt>
<pdfrwt beam="2">  1       -2 0.51525250E-01 0.19014167E+04</pdfrwt>
<totfact> 0.88776119E+00</totfact>
</mgrwt>
</event>
<event>
12    1  0.1536832E-007  0.2340852E+04  0.7818608E-02  0.8461986E-01
         -2   -1    0    0    0  501 -0.00000000000E+00  0.00000000000E+00  0.40726849949E+03  0.40726849949E+03  0.00000000000E+00 0. -1.
          2   -1    0    0  501    0  0.00000000000E+00 -0.00000000000E+00 -0.33636213708E+04  0.33636213708E+04  0.00000000000E+00 0.  1.
         23    2    1    2    0    0  0.11816252109E+03  0.29048308046E+03 -0.27886546493E+04  0.28076777776E+04  0.90094106287E+02 0.  0.
        254    2    1    2    0    0 -0.11816252109E+03 -0.29048308046E+03 -0.16769822193E+03  0.96321209267E+03  0.89516034340E+03 0.  0.
        -24    2    4    4    0    0  0.33811342572E+03 -0.24035721376E+03  0.84834449273E+02  0.43238570669E+03  0.87568468707E+02 0.  0.
         24    2    4    4    0    0 -0.45627594680E+03 -0.50125866694E+02 -0.25253267120E+03  0.53082638598E+03  0.85460867555E+02 0.  0.
         11    1    3    3    0    0 -0.45319994291E+01  0.76191574904E+02 -0.50946576770E+03  0.51515149574E+03  0.00000000000E+00 0. -1.
        -11    1    3    3    0    0  0.12269452052E+03  0.21429150555E+03 -0.22791888817E+04  0.22925262818E+04  0.00000000000E+00 0.  1.
          4    1    6    6  502    0 -0.35223306280E+03 -0.27092630270E+02 -0.23104838291E+03  0.42212023925E+03  0.00000000000E+00 0. -1.
          1    1    5    5  503    0  0.24723546362E+03 -0.19008242404E+03  0.99835582576E+02  0.32745052443E+03  0.00000000000E+00 0. -1.
         -2    1    5    5    0  503  0.90877962095E+02 -0.50274789719E+02 -0.15001133303E+02  0.10493518226E+03  0.00000000000E+00 0.  1.
         -3    1    6    6    0  502 -0.10404288400E+03 -0.23033236423E+02 -0.21484288293E+02  0.10870614672E+03  0.00000000000E+00 0.  1.
<mgrwt>
<rscale>  0 0.23408520E+04</rscale>
<asrwt>0</asrwt>
<pdfrwt beam="1">  1        2 0.51748020E+00 0.23408520E+04</pdfrwt>
<pdfrwt beam="2">  1       -2 0.62656693E-01 0.23408520E+04</pdfrwt>
<totfact> 0.21580781E+00</totfact>
</mgrwt>
</event>
<event>
12    1  0.1536832E-007  0.2028906E+04  0.7818608E-02  0.8593224E-01
          2   -1    0    0  501    0  0.00000000000E+00  0.00000000000E+00  0.32026337976E+04  0.32026337976E+04  0.00000000000E+00 0. -1.
         -2   -1    0    0    0  501 -0.00000000000E+00 -0.00000000000E+00 -0.32133391501E+03  0.32133391501E+03  0.00000000000E+00 0.  1.
         23    2    1    2    0    0  0.61418303138E+03 -0.52704939410E+03  0.13162483219E+04  0.15478555692E+04  0.91352933702E+02 0.  0.
        254    2    1    2    0    0 -0.61418303138E+03  0.52704939410E+03  0.15650515607E+04  0.19761121434E+04  0.89477983641E+03 0.  0.
        -24    2    4    4    0    0 -0.24817215969E+03  0.51021378501E+03  0.28074895969E+03  0.63800899212E+03  0.79548528593E+02 0.  0.
         24    2    4    4    0    0 -0.36601087169E+03  0.16835609097E+02  0.12843026010E+04  0.13381031512E+04  0.82701127461E+02 0.  0.
         13    1    3    3    0    0  0.18103761119E+03 -0.18200830200E+03  0.34817401356E+03  0.43258153264E+03  0.00000000000E+00 0. -1.
        -13    1    3    3    0    0  0.43314542019E+03 -0.34504109210E+03  0.96807430830E+03  0.11152740366E+04  0.00000000000E+00 0.  1.
          2    1    6    6  502    0 -0.24575950571E+03  0.49146149407E+02  0.82584300739E+03  0.86303519714E+03  0.00000000000E+00 0. -1.
          3    1    5    5  503    0 -0.15631914721E+03  0.31049492887E+03  0.12853755974E+03  0.37062741520E+03  0.00000000000E+00 0. -1.
         -4    1    5    5    0  503 -0.91853012481E+02  0.19971885614E+03  0.15221139995E+03  0.26738157691E+03  0.00000000000E+00 0.  1.
         -1    1    6    6    0  502 -0.12025136597E+03 -0.32310540310E+02  0.45845959362E+03  0.47506795410E+03  0.00000000000E+00 0.  1.
<mgrwt>
<rscale>  0 0.20289060E+04</rscale>
<asrwt>0</asrwt>
<pdfrwt beam="1">  1        2 0.49271287E+00 0.20289060E+04</pdfrwt>
<pdfrwt beam="2">  1       -2 0.49435989E-01 0.20289060E+04</pdfrwt>
<totfact> 0.46519458E+00</totfact>
</mgrwt>
</event>
<event>
12    1  0.1536832E-007  0.1325309E+04  0.7818608E-02  0.9009732E-01
         -1   -1    0    0    0  501 -0.00000000000E+00  0.00000000000E+00  0.15700285894E+04  0.15700285894E+04  0.00000000000E+00 0.  1.
          1   -1    0    0  501    0  0.00000000000E+00 -0.00000000000E+00 -0.27968334431E+03  0.27968334431E+03  0.00000000000E+00 0. -1.
         23    2    1    2    0    0 -0.20805219964E+03 -0.10280790146E+02  0.72208964891E+03  0.75679952800E+03  0.89110336725E+02 0.  0.
        254    2    1    2    0    0  0.20805219964E+03  0.10280790146E+02  0.56825559623E+03  0.10929124058E+04  0.91002840152E+03 0.  0.
        -24    2    4    4    0    0  0.19475978920E+03  0.30243531653E+03  0.67805795194E+03  0.77202023830E+03  0.82789890592E+02 0.  0.
         24    2    4    4    0    0  0.13292410435E+02 -0.29215452639E+03 -0.10980235571E+03  0.32089216745E+03  0.73377587525E+02 0.  0.
         11    1    3    3    0    0 -0.44333121289E+02  0.28916333633E+02  0.25137029755E+03  0.25688247601E+03  0.00000000000E+00 0.  1.
        -11    1    3    3    0    0 -0.16371907835E+03 -0.39197123779E+02  0.47071935136E+03  0.49991705199E+03  0.00000000000E+00 0. -1.
          4    1    6    6  502    0 -0.16969076453E+02 -0.19630177308E+03 -0.96833268363E+02  0.21954274648E+03  0.00000000000E+00 0. -1.
          1    1    5    5  503    0  0.12582758732E+03  0.13735416143E+03  0.40206635031E+03  0.44312086099E+03  0.00000000000E+00 0. -1.
         -2    1    5    5    0  503  0.68932201880E+02  0.16508115511E+03  0.27599160163E+03  0.32889937732E+03  0.00000000000E+00 0.  1.
         -3    1    6    6    0  502  0.30261486888E+02 -0.95852753307E+02 -0.12969087343E+02  0.10134942097E+03  0.00000000000E+00 0.  1.
<mgrwt>
<rscale>  0 0.13253088E+04</rscale>
<asrwt>0</asrwt>
<pdfrwt beam="1">  1        1 0.43028208E-01 0.13253088E+04</pdfrwt>
<pdfrwt beam="2">  1       -1 0.24154285E+00 0.13253088E+04</pdfrwt>
<totfact> 0.74706512E+00</totfact>
</mgrwt>
</event>
<event>
12    1  0.1536832E-007  0.2269714E+04  0.7818608E-02  0.8489959E-01
         -1   -1    0    0    0  501 -0.00000000000E+00  0.00000000000E+00  0.10076002272E+04  0.10076002272E+04  0.00000000000E+00 0.  1.
          1   -1    0    0  501    0  0.00000000000E+00 -0.00000000000E+00 -0.12781860320E+04  0.12781860320E+04  0.00000000000E+00 0. -1.
         23    2    1    2    0    0 -0.13064058670E+03  0.83615496417E+03 -0.55190861664E+03  0.10139882375E+04  0.85714279693E+02 0.  0.
        254    2    1    2    0    0  0.13064058670E+03 -0.83615496417E+03  0.28132281188E+03  0.12717980216E+04  0.90670038952E+03 0.  0.
        -24    2    4    4    0    0  0.30845356481E+03 -0.48596163206E+03 -0.22766961475E+03  0.62396006905E+03  0.78679125656E+02 0.  0.
         24    2    4    4    0    0 -0.17781297811E+03 -0.35019333211E+03  0.50899242663E+03  0.64783795258E+03  0.79799106458E+02 0.  0.
         13    1    3    3    0    0 -0.11012437499E+03  0.80775392000E+03 -0.53487551559E+03  0.97503107151E+03  0.00000000000E+00 0. -1.
        -13    1    3    3    0    0 -0.20516211717E+02  0.28401044168E+02 -0.17033101049E+02  0.38957166021E+02  0.00000000000E+00 0.  1.
          4    1    6    6  502    0 -0.21991852388E+02 -0.58078839871E+01  0.30837413852E+02  0.38318653172E+02  0.00000000000E+00 0. -1.
          3    1    5    5  503    0  0.50525171940E+01  0.21675372757E+01 -0.55009301355E+01  0.77772990294E+01  0.00000000000E+00 0. -1.
         -4    1    5    5    0  503  0.30340104762E+03 -0.48812916933E+03 -0.22216868462E+03  0.61618277002E+03  0.00000000000E+00 0.  1.
         -3    1    6    6    0  502 -0.15582112572E+03 -0.34438544812E+03  0.47815501278E+03  0.60951929940E+03  0.00000000000E+00 0.  1.
<mgrwt>
<rscale>  0 0.22697141E+04</rscale>
<asrwt>0</asrwt>
<pdfrwt beam="1">  1        1 0.19664401E+00 0.22697141E+04</pdfrwt>
<pdfrwt beam="2">  1       -1 0.15501542E+00 0.22697141E+04</pdfrwt>
<totfact> 0.27115032E+00</totfact>
</mgrwt>
</event>
<event>
12    1  0.1536832E-007  0.1551223E+04  0.7818608E-02  0.8851087E-01
         -1   -1    0    0    0  501 -0.00000000000E+00  0.00000000000E+00  0.56031390703E+03  0.56031390703E+03  0.00000000000E+00 0.  1.
          1   -1    0    0  501    0  0.00000000000E+00 -0.00000000000E+00 -0.10736356835E+04  0.10736356835E+04  0.00000000000E+00 0. -1.
         23    2    1    2    0    0 -0.69652260576E+02 -0.29852402175E+03 -0.59887927063E+03  0.67509017342E+03  0.55877835528E+02 0.  0.
        254    2    1    2    0    0  0.69652260576E+02  0.29852402175E+03  0.85557494196E+02  0.95885941706E+03  0.90450166827E+03 0.  0.
        -24    2    4    4    0    0  0.27163748754E+03  0.63303141836E+02 -0.32659749713E+03  0.43683512195E+03  0.79779610385E+02 0.  0.
         24    2    4    4    0    0 -0.20198522697E+03  0.23522087992E+03  0.41215499133E+03  0.52202429511E+03  0.80689116655E+02 0.  0.
         13    1    3    3    0    0 -0.38352145281E+01 -0.13336026184E+03 -0.24027965973E+03  0.27483446507E+03  0.00000000000E+00 0.  1.
        -13    1    3    3    0    0 -0.65817046048E+02 -0.16516375991E+03 -0.35859961089E+03  0.40025570835E+03  0.00000000000E+00 0. -1.
          4    1    6    6  502    0 -0.30373677728E+02  0.83030217390E+02  0.14585327684E+03  0.17055719177E+03  0.00000000000E+00 0. -1.
          3    1    5    5  503    0  0.27139544485E+03  0.71866303117E+02 -0.31053777684E+03  0.41863344808E+03  0.00000000000E+00 0. -1.
         -4    1    5    5    0  503  0.24204269332E+00 -0.85631612813E+01 -0.16059720292E+02  0.18201673870E+02  0.00000000000E+00 0.  1.
         -3    1    6    6    0  502 -0.17161154924E+03  0.15219066252E+03  0.26630171449E+03  0.35146710334E+03  0.00000000000E+00 0.  1.
<mgrwt>
<rscale>  0 0.15512227E+04</rscale>
<asrwt>0</asrwt>
<pdfrwt beam="1">  1        1 0.16517472E+00 0.15512227E+04</pdfrwt>
<pdfrwt beam="2">  1       -1 0.86202140E-01 0.15512227E+04</pdfrwt>
<totfact> 0.16985239E+01</totfact>
</mgrwt>
</event>
<event>
12    1  0.1536832E-007  0.1691604E+04  0.7818608E-02  0.8766167E-01
          1   -1    0    0  501    0  0.00000000000E+00  0.00000000000E+00  0.20577282490E+04  0.20577282490E+04  0.00000000000E+00 0. -1.
         -1   -1    0    0    0  501 -0.00000000000E+00 -0.00000000000E+00 -0.34765573666E+03  0.34765573666E+03  0.00000000000E+00 0.  1.
         23    2    1    2    0    0  0.18018453440E+03  0.92222253624E+02  0.14292564928E+04  0.14464113569E+04  0.91434570703E+02 0.  0.
        254    2    1    2    0    0 -0.18018453440E+03 -0.92222253624E+02  0.28081601950E+03  0.95897262870E+03  0.89431507607E+03 0.  0.
        -24    2    4    4    0    0 -0.71190577234E+00 -0.27076410167E+03  0.52677967995E+03  0.59693255166E+03  0.74282800580E+02 0.  0.
         24    2    4    4    0    0 -0.17947262863E+03  0.17854184804E+03 -0.24596366045E+03  0.36204007703E+03  0.80543647714E+02 0.  0.
         11    1    3    3    0    0  0.11799724430E+03  0.30634036775E+02  0.10568600603E+04  0.10638679340E+04  0.00000000000E+00 0. -1.
        -11    1    3    3    0    0  0.62187290102E+02  0.61588216849E+02  0.37239643249E+03  0.38254342294E+03  0.00000000000E+00 0.  1.
          2    1    6    6  502    0 -0.28183782317E+02  0.20191323979E+02 -0.80206742512E+02  0.87379269247E+02  0.00000000000E+00 0. -1.
          1    1    5    5  503    0 -0.32433325730E+02 -0.76386884532E+02  0.13579233011E+03  0.15914280902E+03  0.00000000000E+00 0. -1.
         -2    1    5    5    0  503  0.31721419958E+02 -0.19437721714E+03  0.39098734984E+03  0.43778974264E+03  0.00000000000E+00 0.  1.
         -1    1    6    6    0  502 -0.15128884631E+03  0.15835052407E+03 -0.16575691794E+03  0.27466080779E+03  0.00000000000E+00 0.  1.
<mgrwt>
<rscale>  0 0.16916040E+04</rscale>
<asrwt>0</asrwt>
<pdfrwt beam="1">  1        1 0.31657357E+00 0.16916040E+04</pdfrwt>
<pdfrwt beam="2">  1       -1 0.53485499E-01 0.16916040E+04</pdfrwt>
<totfact> 0.91480243E+00</totfact>
</mgrwt>
</event>
<event>
12    1  0.1536832E-007  0.1561483E+04  0.7818608E-02  0.8844566E-01
         -2   -1    0    0    0  501 -0.00000000000E+00  0.00000000000E+00  0.18483110126E+04  0.18483110126E+04  0.00000000000E+00 0.  1.
          2   -1    0    0  501    0  0.00000000000E+00 -0.00000000000E+00 -0.32979134152E+03  0.32979134152E+03  0.00000000000E+00 0. -1.
         23    2    1    2    0    0 -0.32055882816E+03  0.25788123247E+03  0.84468178177E+02  0.43225278949E+03  0.10221011950E+03 0.  0.
        254    2    1    2    0    0  0.32055882816E+03 -0.25788123247E+03  0.14340514929E+04  0.17458495646E+04  0.90676696325E+03 0.  0.
        -24    2    4    4    0    0  0.45524824106E+03 -0.42575754818E+03  0.13702682989E+04  0.15073921750E+04  0.77945542245E+02 0.  0.
         24    2    4    4    0    0 -0.13468941290E+03  0.16787631570E+03  0.63783193981E+02  0.23845738958E+03  0.80435909189E+02 0.  0.
         13    1    3    3    0    0 -0.12733740196E+03  0.15214807925E+03  0.73970063447E+02  0.21174376554E+03  0.00000000000E+00 0.  1.
        -13    1    3    3    0    0 -0.19322142620E+03  0.10573315322E+03  0.10498114730E+02  0.22050902396E+03  0.00000000000E+00 0. -1.
          4    1    6    6  502    0 -0.13194577878E+03  0.16818219984E+03  0.43699379309E+02  0.21818473052E+03  0.00000000000E+00 0. -1.
          1    1    5    5  503    0  0.18018144338E+03 -0.18650051977E+03  0.48449531008E+03  0.54953025567E+03  0.00000000000E+00 0. -1.
         -2    1    5    5    0  503  0.27506679768E+03 -0.23925702841E+03  0.88577298884E+03  0.95786191938E+03  0.00000000000E+00 0.  1.
         -3    1    6    6    0  502 -0.27436341196E+01 -0.30588413648E+00  0.20083814672E+02  0.20272659053E+02  0.00000000000E+00 0.  1.
<mgrwt>
<rscale>  0 0.15614826E+04</rscale>
<asrwt>0</asrwt>
<pdfrwt beam="1">  1        2 0.50737131E-01 0.15614826E+04</pdfrwt>
<pdfrwt beam="2">  1       -2 0.28435553E+00 0.15614826E+04</pdfrwt>
<totfact> 0.37713296E+00</totfact>
</mgrwt>
</event>
<event>
12    1  0.1536832E-007  0.2169792E+04  0.7818608E-02  0.8531108E-01
         -2   -1    0    0    0  501 -0.00000000000E+00  0.00000000000E+00  0.95630346567E+03  0.95630346567E+03  0.00000000000E+00 0.  1.
          2   -1    0    0  501    0  0.00000000000E+00 -0.00000000000E+00 -0.12307802353E+04  0.12307802353E+04  0.00000000000E+00 0. -1.
         23    2    1    2    0    0  0.46295934831E+03  0.69477926565E+03 -0.43878978405E+03  0.94763699943E+03  0.91814061704E+02 0.  0.
        254    2    1    2    0    0 -0.46295934831E+03 -0.69477926565E+03  0.16431301438E+03  0.12394467016E+04  0.90121017149E+03 0.  0.
        -24    2    4    4    0    0 -0.22229513103E+03 -0.70677065735E+03 -0.22277544543E+03  0.77758826833E+03  0.77940545256E+02 0.  0.
         24    2    4    4    0    0 -0.24066421729E+03  0.11991391699E+02  0.38708845981E+03  0.46185843325E+03  0.73570902450E+02 0.  0.
         13    1    3    3    0    0  0.36887010771E+03  0.51297411649E+03 -0.36712992837E+03  0.73074755207E+03  0.00000000000E+00 0. -1.
        -13    1    3    3    0    0  0.94089240599E+02  0.18180514916E+03 -0.71659855685E+02  0.21688944736E+03  0.00000000000E+00 0.  1.
          2    1    6    6  502    0 -0.22927077036E+02  0.18356757901E+01  0.92973059774E+02  0.95775834169E+02  0.00000000000E+00 0. -1.
          1    1    5    5  503    0 -0.64730796203E+02 -0.11832464461E+03 -0.55649894621E+02  0.14590307834E+03  0.00000000000E+00 0. -1.
         -2    1    5    5    0  503 -0.15756433482E+03 -0.58844601274E+03 -0.16712555080E+03  0.63168518999E+03  0.00000000000E+00 0.  1.
         -1    1    6    6    0  502 -0.21773714025E+03  0.10155715909E+02  0.29411540003E+03  0.36608259908E+03  0.00000000000E+00 0.  1.
<mgrwt>
<rscale>  0 0.21697921E+04</rscale>
<asrwt>0</asrwt>
<pdfrwt beam="1">  1        2 0.18935080E+00 0.21697921E+04</pdfrwt>
<pdfrwt beam="2">  1       -2 0.14712361E+00 0.21697921E+04</pdfrwt>
<totfact> 0.52476058E+00</totfact>
</mgrwt>
</event>
<event>
12    1  0.1536832E-007  0.2102076E+04  0.7818608E-02  0.8560329E-01
          2   -1    0    0  501    0  0.00000000000E+00  0.00000000000E+00  0.12689413062E+04  0.12689413062E+04  0.00000000000E+00 0. -1.
         -2   -1    0    0    0  501 -0.00000000000E+00 -0.00000000000E+00 -0.87055344145E+03  0.87055344145E+03  0.00000000000E+00 0.  1.
         23    2    1    2    0    0 -0.32430985223E+03  0.50004517047E+03  0.79169059491E+03  0.99509794937E+03  0.90685599788E+02 0.  0.
        254    2    1    2    0    0  0.32430985223E+03 -0.50004517047E+03 -0.39330273021E+03  0.11443967982E+04  0.89427900650E+03 0.  0.
        -24    2    4    4    0    0 -0.29863301036E+03 -0.13626562070E+03 -0.20188979831E+03  0.39375835547E+03  0.80846506285E+02 0.  0.
         24    2    4    4    0    0  0.62294286259E+03 -0.36377954977E+03 -0.19141293190E+03  0.75063844277E+03  0.80161027814E+02 0.  0.
         11    1    3    3    0    0 -0.26698802355E+03  0.35503416777E+03  0.54286384526E+03  0.70145065364E+03  0.00000000000E+00 0. -1.
        -11    1    3    3    0    0 -0.57321828674E+02  0.14501100269E+03  0.24882674965E+03  0.29364729572E+03  0.00000000000E+00 0.  1.
          4    1    6    6  502    0  0.53350107010E+02 -0.18433763201E+02  0.36327143056E+01  0.56561772929E+02  0.00000000000E+00 0. -1.
          1    1    5    5  503    0 -0.91572429823E+02 -0.81519955199E+02 -0.57191588973E+02  0.13528448118E+03  0.00000000000E+00 0. -1.
         -2    1    5    5    0  503 -0.20706058054E+03 -0.54745665498E+02 -0.14469820934E+03  0.25847387429E+03  0.00000000000E+00 0.  1.
         -3    1    6    6    0  502  0.56959275558E+03 -0.34534578657E+03 -0.19504564621E+03  0.69407666984E+03  0.00000000000E+00 0.  1.
<mgrwt>
<rscale>  0 0.21020763E+04</rscale>
<asrwt>0</asrwt>
<pdfrwt beam="1">  1        2 0.19522174E+00 0.21020763E+04</pdfrwt>
<pdfrwt beam="2">  1       -2 0.13393130E+00 0.21020763E+04</pdfrwt>
<totfact> 0.63959199E+00</totfact>
</mgrwt>
</event>
<event>
12    1  0.1536832E-007  0.1415450E+04  0.7818608E-02  0.8942710E-01
         -1   -1    0    0    0  501 -0.00000000000E+00  0.00000000000E+00  0.44123067547E+03  0.44123067547E+03  0.00000000000E+00 0.  1.
          1   -1    0    0  501    0  0.00000000000E+00 -0.00000000000E+00 -0.11351772275E+04  0.11351772275E+04  0.00000000000E+00 0. -1.
         23    2    1    2    0    0 -0.27346581758E+03 -0.24038949001E+03 -0.44099786460E+03  0.57909523185E+03  0.91112626335E+02 0.  0.
        254    2    1    2    0    0  0.27346581758E+03  0.24038949001E+03 -0.25294868747E+03  0.99731267116E+03  0.89335259852E+03 0.  0.
        -24    2    4    4    0    0 -0.31731491880E+03  0.25420864139E+02 -0.51238858706E+02  0.33227859243E+03  0.80303576035E+02 0.  0.
         24    2    4    4    0    0  0.59078073638E+03  0.21496862587E+03 -0.20170982877E+03  0.66503407873E+03  0.79687403463E+02 0.  0.
         13    1    3    3    0    0 -0.20182419093E+03 -0.19655470821E+03 -0.38904954985E+03  0.48033978558E+03  0.00000000000E+00 0. -1.
        -13    1    3    3    0    0 -0.71641626646E+02 -0.43834781791E+02 -0.51948314747E+02  0.98755446271E+02  0.00000000000E+00 0.  1.
          2    1    6    6  502    0  0.38364914249E+02 -0.24345569236E+01 -0.24128534602E+02  0.45387001386E+02  0.00000000000E+00 0. -1.
          1    1    5    5  503    0 -0.23999965208E+02  0.23938296641E+02  0.28402260470E+01  0.34016279339E+02  0.00000000000E+00 0. -1.
         -2    1    5    5    0  503 -0.29331495359E+03  0.14825674977E+01 -0.54079084753E+02  0.29826231309E+03  0.00000000000E+00 0.  1.
         -1    1    6    6    0  502  0.55241582213E+03  0.21740318279E+03 -0.17758129417E+03  0.61964707734E+03  0.00000000000E+00 0.  1.
<mgrwt>
<rscale>  0 0.14154505E+04</rscale>
<asrwt>0</asrwt>
<pdfrwt beam="1">  1        1 0.17464265E+00 0.14154505E+04</pdfrwt>
<pdfrwt beam="2">  1       -1 0.67881644E-01 0.14154505E+04</pdfrwt>
<totfact> 0.25534811E+01</totfact>
</mgrwt>
</event>
<event>
12    1  0.1536832E-007  0.1702764E+04  0.7818608E-02  0.8759790E-01
          1   -1    0    0  501    0  0.00000000000E+00  0.00000000000E+00  0.14670118295E+04  0.14670118295E+04  0.00000000000E+00 0. -1.
         -1   -1    0    0    0  501 -0.00000000000E+00 -0.00000000000E+00 -0.49410029270E+03  0.49410029270E+03  0.00000000000E+00 0.  1.
         23    2    1    2    0    0  0.72207095542E+02  0.23914563205E+03 -0.28425484210E+03  0.38915090347E+03  0.90736500057E+02 0.  0.
        254    2    1    2    0    0 -0.72207095542E+02 -0.23914563205E+03  0.12571663789E+04  0.15719612187E+04  0.91004959809E+03 0.  0.
        -24    2    4    4    0    0 -0.40258286684E+03 -0.30222492680E+03  0.10543020392E+04  0.11711183283E+04  0.80947378035E+02 0.  0.
         24    2    4    4    0    0  0.33037577130E+03  0.63079294745E+02  0.20286433971E+03  0.40084289043E+03  0.79962083487E+02 0.  0.
         13    1    3    3    0    0 -0.13336644973E+02  0.42718861723E+02 -0.20165925526E+02  0.49085963354E+02  0.00000000000E+00 0. -1.
        -13    1    3    3    0    0  0.85543740515E+02  0.19642677033E+03 -0.26408891657E+03  0.34006494012E+03  0.00000000000E+00 0.  1.
          2    1    6    6  502    0  0.48399294046E+01 -0.29598669432E+01  0.21812250786E+02  0.22537968260E+02  0.00000000000E+00 0. -1.
          1    1    5    5  503    0 -0.18038142244E+03 -0.11499116200E+03  0.36484098344E+03  0.42292950725E+03  0.00000000000E+00 0. -1.
         -2    1    5    5    0  503 -0.22220144440E+03 -0.18723376479E+03  0.68946105572E+03  0.74818882104E+03  0.00000000000E+00 0.  1.
         -1    1    6    6    0  502  0.32553584189E+03  0.66039161689E+02  0.18105208893E+03  0.37830492217E+03  0.00000000000E+00 0.  1.
<mgrwt>
<rscale>  0 0.17027636E+04</rscale>
<asrwt>0</asrwt>
<pdfrwt beam="1">  1        1 0.22569413E+00 0.17027636E+04</pdfrwt>
<pdfrwt beam="2">  1       -1 0.76015430E-01 0.17027636E+04</pdfrwt>
<totfact> 0.11403971E+01</totfact>
</mgrwt>
</event>
<event>
12    1  0.1536832E-007  0.2305388E+04  0.7818608E-02  0.8475800E-01
          2   -1    0    0  501    0  0.00000000000E+00  0.00000000000E+00  0.19556186618E+04  0.19556186618E+04  0.00000000000E+00 0.  1.
         -2   -1    0    0    0  501 -0.00000000000E+00 -0.00000000000E+00 -0.67942845886E+03  0.67942845886E+03  0.00000000000E+00 0. -1.
         23    2    1    2    0    0  0.24425337457E+03  0.20708404479E+03  0.16015830592E+04  0.16357920530E+04  0.90575010629E+02 0.  0.
        254    2    1    2    0    0 -0.24425337457E+03 -0.20708404479E+03 -0.32539285626E+03  0.99925506767E+03  0.88886819426E+03 0.  0.
        -24    2    4    4    0    0 -0.25703674198E+03  0.22204014293E+03 -0.42607442948E+03  0.55093378119E+03  0.81356622353E+02 0.  0.
         24    2    4    4    0    0  0.12783367403E+02 -0.42912418772E+03  0.10068157322E+03  0.44832128648E+03  0.80896314862E+02 0.  0.
         11    1    3    3    0    0  0.16511492127E+03  0.18634034662E+03  0.11230624672E+04  0.11503281998E+04  0.00000000000E+00 0.  1.
        -11    1    3    3    0    0  0.79138453303E+02  0.20743698169E+02  0.47852059198E+03  0.48546385319E+03  0.00000000000E+00 0. -1.
          4    1    6    6  502    0 -0.32143445670E+02 -0.20518935230E+03  0.34577270126E+02  0.21055037166E+03  0.00000000000E+00 0. -1.
          3    1    5    5  503    0 -0.12050744447E+03  0.14500150391E+03 -0.27340892493E+03  0.33211431848E+03  0.00000000000E+00 0. -1.
         -4    1    5    5    0  503 -0.13652929751E+03  0.77038639014E+02 -0.15266550455E+03  0.21881946270E+03  0.00000000000E+00 0.  1.
         -3    1    6    6    0  502  0.44926813073E+02 -0.22393483541E+03  0.66104303095E+02  0.23777091482E+03  0.00000000000E+00 0.  1.
<mgrwt>
<rscale>  0 0.23053876E+04</rscale>
<asrwt>0</asrwt>
<pdfrwt beam="1">  1        2 0.30086441E+00 0.23053876E+04</pdfrwt>
<pdfrwt beam="2">  1       -2 0.10452746E+00 0.23053876E+04</pdfrwt>
<totfact> 0.47620928E+00</totfact>
</mgrwt>
</event>
<event>
12    1  0.1536832E-007  0.1643875E+04  0.7818608E-02  0.8794038E-01
          1   -1    0    0  501    0  0.00000000000E+00  0.00000000000E+00  0.68838629370E+03  0.68838629370E+03  0.00000000000E+00 0. -1.
         -1   -1    0    0    0  501 -0.00000000000E+00 -0.00000000000E+00 -0.98139832256E+03  0.98139832256E+03  0.00000000000E+00 0.  1.
         23    2    1    2    0    0  0.46015592087E+03 -0.18472807343E+03  0.18646093619E+03  0.53783144387E+03  0.92881907155E+02 0.  0.
        254    2    1    2    0    0 -0.46015592087E+03  0.18472807343E+03 -0.47947296504E+03  0.11319531724E+04  0.89752756373E+03 0.  0.
        -24    2    4    4    0    0 -0.38572622912E+03 -0.29305831764E+02 -0.70119766867E+03  0.80499107960E+03  0.81785769467E+02 0.  0.
         24    2    4    4    0    0 -0.74429691746E+02  0.21403390519E+03  0.22172470363E+03  0.32696209278E+03  0.79950449235E+02 0.  0.
         13    1    3    3    0    0  0.34985284217E+03 -0.16283446748E+03  0.17826863667E+03  0.42507855956E+03  0.00000000000E+00 0. -1.
        -13    1    3    3    0    0  0.11030307869E+03 -0.21893605946E+02  0.81922995195E+01  0.11275288432E+03  0.00000000000E+00 0.  1.
          4    1    6    6  502    0 -0.84410860547E+02  0.12587345693E+03  0.14169336653E+03  0.20747609659E+03  0.00000000000E+00 0. -1.
          1    1    5    5  503    0 -0.13366067693E+03 -0.14568107893E+02 -0.32711156191E+03  0.35366563342E+03  0.00000000000E+00 0. -1.
         -2    1    5    5    0  503 -0.25206555218E+03 -0.14737723871E+02 -0.37408610676E+03  0.45132544618E+03  0.00000000000E+00 0.  1.
         -3    1    6    6    0  502  0.99811688011E+01  0.88160448261E+02  0.80031337103E+02  0.11948599619E+03  0.00000000000E+00 0.  1.
<mgrwt>
<rscale>  0 0.16438749E+04</rscale>
<asrwt>0</asrwt>
<pdfrwt beam="1">  1        1 0.10590558E+00 0.16438749E+04</pdfrwt>
<pdfrwt beam="2">  1       -1 0.15098436E+00 0.16438749E+04</pdfrwt>
<totfact> 0.91590152E+00</totfact>
</mgrwt>
</event>
<event>
12    1  0.1595221E-007  0.1379664E+04  0.7818608E-02  0.8968672E-01
         -2   -1    0    0    0  501 -0.00000000000E+00  0.00000000000E+00  0.17910793715E+03  0.17910793715E+03  0.00000000000E+00 0. -1.
          2   -1    0    0  501    0  0.00000000000E+00 -0.00000000000E+00 -0.26568784900E+04  0.26568784900E+04  0.00000000000E+00 0.  1.
         23    2    1    2    0    0  0.81631588551E+02  0.37619792821E+03 -0.59093349762E+03  0.71107962140E+03  0.90792245966E+02 0.  0.
        254    2    1    2    0    0 -0.81631588551E+02 -0.37619792821E+03 -0.18868370553E+04  0.21249068058E+04  0.89826848028E+03 0.  0.
        -24    2    4    4    0    0  0.40145088433E+03 -0.13654323068E+03 -0.78956218537E+03  0.89977144219E+03  0.79833183856E+02 0.  0.
         24    2    4    4    0    0 -0.48308247288E+03 -0.23965469753E+03 -0.10972748699E+04  0.12251353636E+04  0.78367527395E+02 0.  0.
         13    1    3    3    0    0  0.12907535044E+02  0.97021299466E+02 -0.22758265908E+03  0.24773696480E+03  0.00000000000E+00 0.  1.
        -13    1    3    3    0    0  0.68724053507E+02  0.27917662874E+03 -0.36335083854E+03  0.46334265661E+03  0.00000000000E+00 0. -1.
          2    1    6    6  502    0 -0.84304264412E+00 -0.56795975246E+01 -0.26511218721E+01  0.63243178385E+01  0.00000000000E+00 0. -1.
          3    1    5    5  503    0 -0.37498662730E+01 -0.81003246272E-01 -0.47856974665E+01  0.60803748924E+01  0.00000000000E+00 0. -1.
         -2    1    5    5    0  503  0.40520075060E+03 -0.13646222743E+03 -0.78477648790E+03  0.89369106729E+03  0.00000000000E+00 0.  1.
         -1    1    6    6    0  502 -0.48223943023E+03 -0.23397510000E+03 -0.10946237480E+04  0.12188110457E+04  0.00000000000E+00 0.  1.
<mgrwt>
<rscale>  0 0.13796638E+04</rscale>
<asrwt>0</asrwt>
<pdfrwt beam="1">  1        2 0.40875051E+00 0.13796638E+04</pdfrwt>
<pdfrwt beam="2">  1       -2 0.27555069E-01 0.13796638E+04</pdfrwt>
<totfact> 0.33145918E+01</totfact>
</mgrwt>
</event>
<event>
12    1  0.1536832E-007  0.1541706E+04  0.7818608E-02  0.8857183E-01
         -1   -1    0    0    0  501 -0.00000000000E+00  0.00000000000E+00  0.10936756925E+04  0.10936756925E+04  0.00000000000E+00 0. -1.
          1   -1    0    0  501    0  0.00000000000E+00 -0.00000000000E+00 -0.54331857848E+03  0.54331857848E+03  0.00000000000E+00 0.  1.
         23    2    1    2    0    0  0.53338701596E+02 -0.24901061042E+03  0.64434365049E+03  0.69889226292E+03  0.91762487203E+02 0.  0.
        254    2    1    2    0    0 -0.53338701596E+02  0.24901061042E+03 -0.93986536423E+02  0.93810200811E+03  0.89797027089E+03 0.  0.
        -24    2    4    4    0    0  0.52453576810E+02 -0.79549579364E+02 -0.43106186436E+03  0.44862968475E+03  0.79842030526E+02 0.  0.
         24    2    4    4    0    0 -0.10579227841E+03  0.32856018978E+03  0.33707532794E+03  0.48947232335E+03  0.82580712905E+02 0.  0.
         11    1    3    3    0    0  0.39286495540E+02 -0.21351926719E+03  0.61022519965E+03  0.64769491312E+03  0.00000000000E+00 0. -1.
        -11    1    3    3    0    0  0.14052206056E+02 -0.35491343224E+02  0.34118450836E+02  0.51197349798E+02  0.00000000000E+00 0.  1.
          2    1    6    6  502    0 -0.10401612617E+03  0.19221482728E+03  0.20840267191E+03  0.30198935079E+03  0.00000000000E+00 0. -1.
          3    1    5    5  503    0  0.41582687371E+02 -0.93162098747E+02 -0.40202568345E+03  0.41476854592E+03  0.00000000000E+00 0. -1.
         -4    1    5    5    0  503  0.10870889439E+02  0.13612519383E+02 -0.29036180912E+02  0.33861138833E+02  0.00000000000E+00 0.  1.
         -1    1    6    6    0  502 -0.17761522343E+01  0.13634536250E+03  0.12867265603E+03  0.18748297256E+03  0.00000000000E+00 0.  1.
<mgrwt>
<rscale>  0 0.15417060E+04</rscale>
<asrwt>0</asrwt>
<pdfrwt beam="1">  1        1 0.83587474E-01 0.15417060E+04</pdfrwt>
<pdfrwt beam="2">  1       -1 0.16825780E+00 0.15417060E+04</pdfrwt>
<totfact> 0.96431197E+00</totfact>
</mgrwt>
</event>
<event>
12    1  0.1536832E-007  0.2371123E+04  0.7818608E-02  0.8450395E-01
         -2   -1    0    0    0  501 -0.00000000000E+00  0.00000000000E+00  0.82289517244E+03  0.82289517244E+03  0.00000000000E+00 0.  1.
          2   -1    0    0  501    0  0.00000000000E+00 -0.00000000000E+00 -0.17080616624E+04  0.17080616624E+04  0.00000000000E+00 0. -1.
         23    2    1    2    0    0  0.71278081079E+03  0.71345333054E+03 -0.29117487960E+03  0.10535681135E+04  0.90281892425E+02 0.  0.
        254    2    1    2    0    0 -0.71278081079E+03 -0.71345333054E+03 -0.59399161033E+03  0.14773887213E+04  0.90154271209E+03 0.  0.
        -24    2    4    4    0    0 -0.35331686850E+03 -0.67167822362E+03 -0.75517386095E+03  0.10732966037E+04  0.75455904386E+02 0.  0.
         24    2    4    4    0    0 -0.35946394229E+03 -0.41775106925E+02  0.16118225063E+03  0.40409211768E+03  0.79694644056E+02 0.  0.
         11    1    3    3    0    0  0.61164617158E+03  0.57664557396E+03 -0.21837214780E+03  0.86851456643E+03  0.00000000000E+00 0.  1.
        -11    1    3    3    0    0  0.10113463921E+03  0.13680775658E+03 -0.72802731802E+02  0.18505354703E+03  0.00000000000E+00 0. -1.
          4    1    6    6  502    0 -0.17466965583E+03 -0.23860814706E+02  0.35332645677E+02  0.17979772800E+03  0.00000000000E+00 0. -1.
          3    1    5    5  503    0 -0.18267382456E+02 -0.69146771146E+02 -0.93594019268E+02  0.11779139894E+03  0.00000000000E+00 0. -1.
         -4    1    5    5    0  503 -0.33504948604E+03 -0.60253145247E+03 -0.66157984169E+03  0.95550520472E+03  0.00000000000E+00 0.  1.
         -3    1    6    6    0  502 -0.18479428646E+03 -0.17914292219E+02  0.12584960495E+03  0.22429438968E+03  0.00000000000E+00 0.  1.
<mgrwt>
<rscale>  0 0.23711227E+04</rscale>
<asrwt>0</asrwt>
<pdfrwt beam="1">  1        2 0.26277872E+00 0.23711227E+04</pdfrwt>
<pdfrwt beam="2">  1       -2 0.12659926E+00 0.23711227E+04</pdfrwt>
<totfact> 0.40633102E+00</totfact>
</mgrwt>
</event>
<event>
12    1  0.1536832E-007  0.1580362E+04  0.7818608E-02  0.8832704E-01
          2   -1    0    0  501    0  0.00000000000E+00  0.00000000000E+00  0.30676108576E+04  0.30676108576E+04  0.00000000000E+00 0. -1.
         -2   -1    0    0    0  501 -0.00000000000E+00 -0.00000000000E+00 -0.20354150702E+03  0.20354150702E+03  0.00000000000E+00 0.  1.
         23    2    1    2    0    0  0.35806114376E+03  0.33971029468E+03  0.60787336242E+03  0.79005611745E+03  0.10520350278E+03 0.  0.
        254    2    1    2    0    0 -0.35806114376E+03 -0.33971029468E+03  0.22561959882E+04  0.24810962472E+04  0.90653592523E+03 0.  0.
        -24    2    4    4    0    0  0.21036916765E+03 -0.25353358821E+03  0.34669963417E+03  0.48532473486E+03  0.82492392909E+02 0.  0.
         24    2    4    4    0    0 -0.56843031140E+03 -0.86176706478E+02  0.19094963540E+04  0.19957715123E+04  0.79925964223E+02 0.  0.
         13    1    3    3    0    0  0.26510437304E+03  0.30811221749E+03  0.48745141715E+03  0.63468287455E+03  0.00000000000E+00 0.  1.
        -13    1    3    3    0    0  0.92956770720E+02  0.31598077191E+02  0.12042194527E+03  0.15537324290E+03  0.00000000000E+00 0. -1.
          4    1    6    6  502    0 -0.48788019145E+02 -0.28262220731E+02  0.15071708018E+03  0.16091818477E+03  0.00000000000E+00 0. -1.
          1    1    5    5  503    0  0.99947826342E+02 -0.69672880765E+02  0.15904540630E+03  0.20034799617E+03  0.00000000000E+00 0. -1.
         -2    1    5    5    0  503  0.11042134131E+03 -0.18386070744E+03  0.18765422787E+03  0.28497673869E+03  0.00000000000E+00 0.  1.
         -3    1    6    6    0  502 -0.51964229226E+03 -0.57914485747E+02  0.17587792739E+04  0.18348533276E+04  0.00000000000E+00 0.  1.
<mgrwt>
<rscale>  0 0.15803622E+04</rscale>
<asrwt>0</asrwt>
<pdfrwt beam="1">  1        2 0.47194010E+00 0.15803622E+04</pdfrwt>
<pdfrwt beam="2">  1       -2 0.31314080E-01 0.15803622E+04</pdfrwt>
<totfact> 0.14440905E+01</totfact>
</mgrwt>
</event>
<event>
12    1  0.1536832E-007  0.1651148E+04  0.7818608E-02  0.8789728E-01
         -2   -1    0    0    0  501 -0.00000000000E+00  0.00000000000E+00  0.42097899706E+03  0.42097899706E+03  0.00000000000E+00 0.  1.
          2   -1    0    0  501    0  0.00000000000E+00 -0.00000000000E+00 -0.16190179681E+04  0.16190179681E+04  0.00000000000E+00 0. -1.
         23    2    1    2    0    0 -0.27157577215E+03  0.56875550940E+02 -0.10535392750E+04  0.10931044483E+04  0.89129695419E+02 0.  0.
        254    2    1    2    0    0  0.27157577215E+03 -0.56875550940E+02 -0.14449969608E+03  0.94689251689E+03  0.89372090054E+03 0.  0.
        -24    2    4    4    0    0  0.23275232760E+03 -0.17824322500E+03  0.33011163705E+03  0.44861303955E+03  0.79596941343E+02 0.  0.
         24    2    4    4    0    0  0.38823444551E+02  0.12136767406E+03 -0.47461133313E+03  0.49827947734E+03  0.82396285402E+02 0.  0.
         11    1    3    3    0    0 -0.11118859562E+03  0.68492342091E+02 -0.46400057765E+03  0.48202763487E+03  0.00000000000E+00 0.  1.
        -11    1    3    3    0    0 -0.16038717654E+03 -0.11616791151E+02 -0.58953869734E+03  0.61107681341E+03  0.00000000000E+00 0. -1.
          4    1    6    6  502    0 -0.48163571268E+01  0.76496260976E+02 -0.35608435615E+03  0.36424022833E+03  0.00000000000E+00 0. -1.
          3    1    5    5  503    0  0.19395976713E+03 -0.11430846635E+03  0.27666837409E+03  0.35669623767E+03  0.00000000000E+00 0. -1.
         -4    1    5    5    0  503  0.38792560472E+02 -0.63934758652E+02  0.53443262965E+02  0.91916801882E+02  0.00000000000E+00 0.  1.
         -3    1    6    6    0  502  0.43639801678E+02  0.44871413089E+02 -0.11852697698E+03  0.13403924901E+03  0.00000000000E+00 0.  1.
<mgrwt>
<rscale>  0 0.16511482E+04</rscale>
<asrwt>0</asrwt>
<pdfrwt beam="1">  1        2 0.24907969E+00 0.16511482E+04</pdfrwt>
<pdfrwt beam="2">  1       -2 0.64765998E-01 0.16511482E+04</pdfrwt>
<totfact> 0.22866159E+01</totfact>
</mgrwt>
</event>
<event>
12    1  0.1536832E-007  0.2156165E+04  0.7818608E-02  0.8536898E-01
         -1   -1    0    0    0  501 -0.00000000000E+00  0.00000000000E+00  0.87415932109E+03  0.87415932109E+03  0.00000000000E+00 0.  1.
          1   -1    0    0  501    0  0.00000000000E+00 -0.00000000000E+00 -0.13295768906E+04  0.13295768906E+04  0.00000000000E+00 0. -1.
         23    2    1    2    0    0  0.67899858836E+03  0.43559095449E+03  0.17320818988E+03  0.82986005093E+03  0.88814776135E+02 0.  0.
        254    2    1    2    0    0 -0.67899858836E+03 -0.43559095449E+03 -0.62862575934E+03  0.13738761607E+04  0.91738039931E+03 0.  0.
        -24    2    4    4    0    0 -0.22676390381E+02  0.57692186678E+02 -0.53407101228E+03  0.54346497665E+03  0.79244732348E+02 0.  0.
         24    2    4    4    0    0 -0.65632219797E+03 -0.49328314117E+03 -0.94554747064E+02  0.83041118406E+03  0.80963260187E+02 0.  0.
         11    1    3    3    0    0  0.93816157900E+02  0.31363083350E+02  0.37595515966E+02  0.10582314161E+03  0.00000000000E+00 0. -1.
        -11    1    3    3    0    0  0.58518243046E+03  0.40422787114E+03  0.13561267391E+03  0.72403690931E+03  0.00000000000E+00 0.  1.
          4    1    6    6  502    0 -0.55007595078E+03 -0.37378615564E+03 -0.80011897872E+02  0.66985188331E+03  0.00000000000E+00 0. -1.
          1    1    5    5  503    0  0.23804362259E+01  0.56492662298E+02 -0.48566165407E+03  0.48894205137E+03  0.00000000000E+00 0. -1.
         -2    1    5    5    0  503 -0.25056826607E+02  0.11995243801E+01 -0.48409358215E+02  0.54522925281E+02  0.00000000000E+00 0.  1.
         -3    1    6    6    0  502 -0.10624624720E+03 -0.11949698553E+03 -0.14542849192E+02  0.16055930075E+03  0.00000000000E+00 0.  1.
<mgrwt>
<rscale>  0 0.21561651E+04</rscale>
<asrwt>0</asrwt>
<pdfrwt beam="1">  1        1 0.20455029E+00 0.21561651E+04</pdfrwt>
<pdfrwt beam="2">  1       -1 0.13448605E+00 0.21561651E+04</pdfrwt>
<totfact> 0.36685255E+00</totfact>
</mgrwt>
</event>
<event>
12    1  0.1536832E-007  0.1484404E+04  0.7818608E-02  0.8894891E-01
          2   -1    0    0  501    0  0.00000000000E+00  0.00000000000E+00  0.16422817437E+04  0.16422817437E+04  0.00000000000E+00 0. -1.
         -2   -1    0    0    0  501 -0.00000000000E+00 -0.00000000000E+00 -0.33542574393E+03  0.33542574393E+03  0.00000000000E+00 0.  1.
         23    2    1    2    0    0  0.42413895176E+03  0.17613065882E+03  0.52332510369E+03  0.70215529966E+03  0.90758147334E+02 0.  0.
        254    2    1    2    0    0 -0.42413895176E+03 -0.17613065882E+03  0.78353089605E+03  0.12755521879E+04  0.89565443095E+03 0.  0.
        -24    2    4    4    0    0  0.26014907321E+03 -0.54169227760E+02  0.92427784766E+02  0.29208996960E+03  0.78497193700E+02 0.  0.
         24    2    4    4    0    0 -0.68428802497E+03 -0.12196143106E+03  0.69110311128E+03  0.98346221833E+03  0.80310227668E+02 0.  0.
         11    1    3    3    0    0  0.39985526185E+03  0.15050893385E+03  0.50770645272E+03  0.66355332245E+03  0.00000000000E+00 0. -1.
        -11    1    3    3    0    0  0.24283689909E+02  0.25621724977E+02  0.15618650970E+02  0.38601977210E+02  0.00000000000E+00 0.  1.
          4    1    6    6  502    0 -0.49673741443E+02  0.11940678141E+02  0.48534223620E+02  0.70467235264E+02  0.00000000000E+00 0. -1.
          3    1    5    5  503    0  0.11705207122E+03  0.75510591238E+01  0.15558366467E+02  0.11832273086E+03  0.00000000000E+00 0. -1.
         -4    1    5    5    0  503  0.14309700198E+03 -0.61720286884E+02  0.76869418298E+02  0.17376723874E+03  0.00000000000E+00 0.  1.
         -3    1    6    6    0  502 -0.63461428353E+03 -0.13390210921E+03  0.64256888766E+03  0.91299498306E+03  0.00000000000E+00 0.  1.
<mgrwt>
<rscale>  0 0.14844037E+04</rscale>
<asrwt>0</asrwt>
<pdfrwt beam="1">  1        2 0.25265872E+00 0.14844037E+04</pdfrwt>
<pdfrwt beam="2">  1       -2 0.51603962E-01 0.14844037E+04</pdfrwt>
<totfact> 0.36231430E+01</totfact>
</mgrwt>
</event>
<event>
12    1  0.1536832E-007  0.1011533E+04  0.7818608E-02  0.9295986E-01
         -1   -1    0    0    0  501 -0.00000000000E+00  0.00000000000E+00  0.14869694616E+03  0.14869694616E+03  0.00000000000E+00 0.  1.
          1   -1    0    0  501    0  0.00000000000E+00 -0.00000000000E+00 -0.17202741477E+04  0.17202741477E+04  0.00000000000E+00 0. -1.
         23    2    1    2    0    0 -0.34985389899E+02 -0.31656038770E+02 -0.19504848104E+03  0.22394851095E+03  0.99412993644E+02 0.  0.
        254    2    1    2    0    0  0.34985389899E+02  0.31656038770E+02 -0.13765287205E+04  0.16450225829E+04  0.89946756342E+03 0.  0.
        -24    2    4    4    0    0 -0.53496670959E+02  0.14559212502E+03 -0.14522733898E+04  0.14626891158E+04  0.79388224381E+02 0.  0.
         24    2    4    4    0    0  0.88482060857E+02 -0.11393608625E+03  0.75744669242E+02  0.18233346714E+03  0.81839669351E+02 0.  0.
         11    1    3    3    0    0  0.25620618992E+02  0.16183192458E+02 -0.35329738660E+02  0.46545700869E+02  0.00000000000E+00 0.  1.
        -11    1    3    3    0    0 -0.60606008891E+02 -0.47839231228E+02 -0.15971874238E+03  0.17740281008E+03  0.00000000000E+00 0. -1.
          2    1    6    6  502    0  0.10007801302E+03 -0.99140948860E+02  0.81407228748E+02  0.16270117800E+03  0.00000000000E+00 0. -1.
          3    1    5    5  503    0  0.13438915262E+02  0.60378275648E+02 -0.68753374254E+03  0.69031064582E+03  0.00000000000E+00 0. -1.
         -4    1    5    5    0  503 -0.66935586220E+02  0.85213849369E+02 -0.76473964721E+03  0.77237846995E+03  0.00000000000E+00 0.  1.
         -1    1    6    6    0  502 -0.11595952161E+02 -0.14795137387E+02 -0.56625595066E+01  0.19632289143E+02  0.00000000000E+00 0.  1.
<mgrwt>
<rscale>  0 0.10115325E+04</rscale>
<asrwt>0</asrwt>
<pdfrwt beam="1">  1        1 0.26465756E+00 0.10115325E+04</pdfrwt>
<pdfrwt beam="2">  1       -1 0.22876453E-01 0.10115325E+04</pdfrwt>
<totfact> 0.75522171E+01</totfact>
</mgrwt>
</event>
<event>
12    1  0.1536832E-007  0.1581826E+04  0.7818608E-02  0.8831791E-01
          1   -1    0    0  501    0  0.00000000000E+00  0.00000000000E+00  0.27223100513E+04  0.27223100513E+04  0.00000000000E+00 0. -1.
         -1   -1    0    0    0  501 -0.00000000000E+00 -0.00000000000E+00 -0.22978408561E+03  0.22978408561E+03  0.00000000000E+00 0.  1.
         23    2    1    2    0    0  0.14178994416E+03  0.43475046097E+03  0.13034275520E+04  0.13844909467E+04  0.93698700091E+02 0.  0.
        254    2    1    2    0    0 -0.14178994416E+03 -0.43475046097E+03  0.11890984136E+04  0.15676031902E+04  0.91340701396E+03 0.  0.
        -24    2    4    4    0    0 -0.44432606158E+03 -0.34859081984E+03  0.35283915494E+03  0.67076765530E+03  0.80576482070E+02 0.  0.
         24    2    4    4    0    0  0.30253611741E+03 -0.86159641134E+02  0.83625925869E+03  0.89683553494E+03  0.77671377480E+02 0.  0.
         11    1    3    3    0    0  0.58025059294E+02  0.31360442129E+03  0.92303791733E+03  0.97658263213E+03  0.00000000000E+00 0. -1.
        -11    1    3    3    0    0  0.83764884870E+02  0.12114603968E+03  0.38038963471E+03  0.40790831453E+03  0.00000000000E+00 0.  1.
          4    1    6    6  502    0  0.23997777453E+03 -0.37343306589E+02  0.66867655692E+03  0.71141562576E+03  0.00000000000E+00 0. -1.
          1    1    5    5  503    0 -0.44069042787E+03 -0.33975661280E+03  0.33232376570E+03  0.64813709538E+03  0.00000000000E+00 0. -1.
         -2    1    5    5    0  503 -0.36356337080E+01 -0.88342070318E+01  0.20515389245E+02  0.22630559919E+02  0.00000000000E+00 0.  1.
         -3    1    6    6    0  502  0.62558342888E+02 -0.48816334545E+02  0.16758270178E+03  0.18541990917E+03  0.00000000000E+00 0.  1.
<mgrwt>
<rscale>  0 0.15818262E+04</rscale>
<asrwt>0</asrwt>
<pdfrwt beam="1">  1        1 0.41881691E+00 0.15818262E+04</pdfrwt>
<pdfrwt beam="2">  1       -1 0.35351400E-01 0.15818262E+04</pdfrwt>
<totfact> 0.69543346E+00</totfact>
</mgrwt>
</event>
<event>
12    1  0.1536832E-007  0.1198870E+04  0.7818608E-02  0.9113846E-01
         -2   -1    0    0    0  501 -0.00000000000E+00  0.00000000000E+00  0.22100929860E+03  0.22100929860E+03  0.00000000000E+00 0.  1.
          2   -1    0    0  501    0  0.00000000000E+00 -0.00000000000E+00 -0.16258254668E+04  0.16258254668E+04  0.00000000000E+00 0. -1.
         23    2    1    2    0    0  0.13055234545E+03 -0.11855947637E+03 -0.61687825149E+03  0.64832285261E+03  0.93185190468E+02 0.  0.
        254    2    1    2    0    0 -0.13055234545E+03  0.11855947637E+03 -0.78793791676E+03  0.11985119128E+04  0.88571122843E+03 0.  0.
        -24    2    4    4    0    0 -0.26188524290E+03 -0.33069664498E+03 -0.36223175029E+03  0.56188710624E+03  0.81000788834E+02 0.  0.
         24    2    4    4    0    0  0.13133289745E+03  0.44925612136E+03 -0.42570616647E+03  0.63662480658E+03  0.70611696293E+02 0.  0.
         11    1    3    3    0    0  0.73277253984E+02 -0.79760043177E+02 -0.21726734487E+03  0.24276803658E+03  0.00000000000E+00 0.  1.
        -11    1    3    3    0    0  0.57275091466E+02 -0.38799433197E+02 -0.39961090662E+03  0.40555481603E+03  0.00000000000E+00 0. -1.
          4    1    6    6  502    0  0.13853125608E+03  0.42525777406E+03 -0.41185443337E+03  0.60799601775E+03  0.00000000000E+00 0. -1.
          3    1    5    5  503    0 -0.24379391851E+03 -0.26085595313E+03 -0.30962857044E+03  0.47260041750E+03  0.00000000000E+00 0. -1.
         -2    1    5    5    0  503 -0.18091324388E+02 -0.69840691852E+02 -0.52603179848E+02  0.89286688742E+02  0.00000000000E+00 0.  1.
         -3    1    6    6    0  502 -0.71983586346E+01  0.23998347304E+02 -0.13851733095E+02  0.28628788833E+02  0.00000000000E+00 0.  1.
<mgrwt>
<rscale>  0 0.11988704E+04</rscale>
<asrwt>0</asrwt>
<pdfrwt beam="1">  1        2 0.25012700E+00 0.11988704E+04</pdfrwt>
<pdfrwt beam="2">  1       -2 0.34001430E-01 0.11988704E+04</pdfrwt>
<totfact> 0.86154859E+01</totfact>
</mgrwt>
</event>
<event>
12    1  0.1536832E-007  0.1423407E+04  0.7818608E-02  0.8937048E-01
         -1   -1    0    0    0  501 -0.00000000000E+00  0.00000000000E+00  0.39510271127E+03  0.39510271127E+03  0.00000000000E+00 0.  1.
          1   -1    0    0  501    0  0.00000000000E+00 -0.00000000000E+00 -0.12820004498E+04  0.12820004498E+04  0.00000000000E+00 0. -1.
         23    2    1    2    0    0  0.12081491370E+02  0.17582664005E+03  0.18124777397E+03  0.26715275488E+03  0.86364744462E+02 0.  0.
        254    2    1    2    0    0 -0.12081491370E+02 -0.17582664005E+03 -0.10681455125E+04  0.14099504062E+04  0.90330744615E+03 0.  0.
        -24    2    4    4    0    0 -0.31639284803E+03 -0.15212276419E+03 -0.10327093573E+04  0.10935871138E+04  0.78729849301E+02 0.  0.
         24    2    4    4    0    0  0.30431135666E+03 -0.23703875853E+02 -0.35436155276E+02  0.31636329245E+03  0.75251154026E+02 0.  0.
         13    1    3    3    0    0 -0.10475151153E+01  0.15632136010E+03  0.18620354508E+03  0.24312388840E+03  0.00000000000E+00 0.  1.
        -13    1    3    3    0    0  0.13129006486E+02  0.19505279941E+02 -0.49557711048E+01  0.24028866476E+02  0.00000000000E+00 0. -1.
          4    1    6    6  502    0  0.17211924822E+03 -0.44699336744E+02 -0.40638725136E+02  0.18241319112E+03  0.00000000000E+00 0. -1.
          3    1    5    5  503    0 -0.19708692947E+03 -0.13287829428E+03 -0.64060611881E+03  0.68328332214E+03  0.00000000000E+00 0. -1.
         -4    1    5    5    0  503 -0.11930591856E+03 -0.19244469909E+02 -0.39210323845E+03  0.41030379163E+03  0.00000000000E+00 0.  1.
         -3    1    6    6    0  502  0.13219210845E+03  0.20995460891E+02  0.52025698604E+01  0.13395010133E+03  0.00000000000E+00 0.  1.
<mgrwt>
<rscale>  0 0.14234070E+04</rscale>
<asrwt>0</asrwt>
<pdfrwt beam="1">  1        1 0.19723084E+00 0.14234070E+04</pdfrwt>
<pdfrwt beam="2">  1       -1 0.60785033E-01 0.14234070E+04</pdfrwt>
<totfact> 0.24892331E+01</totfact>
</mgrwt>
</event>
<event>
12    1  0.1536832E-007  0.2143405E+04  0.7818608E-02  0.8542361E-01
          2   -1    0    0  501    0  0.00000000000E+00  0.00000000000E+00  0.29171911083E+04  0.29171911083E+04  0.00000000000E+00 0. -1.
         -2   -1    0    0    0  501 -0.00000000000E+00 -0.00000000000E+00 -0.39371643910E+03  0.39371643910E+03  0.00000000000E+00 0.  1.
         23    2    1    2    0    0 -0.23038479252E+03  0.29284484382E+02 -0.26713713907E+03  0.36573552748E+03  0.92008104745E+02 0.  0.
        254    2    1    2    0    0  0.23038479252E+03 -0.29284484382E+02  0.27906118083E+04  0.29451720200E+04  0.91246327536E+03 0.  0.
        -24    2    4    4    0    0 -0.20793447268E+03 -0.32338367880E+03  0.94145447259E+03  0.10202893087E+04  0.82704297452E+02 0.  0.
         24    2    4    4    0    0  0.43831926521E+03  0.29409919442E+03  0.18491573357E+04  0.19248827113E+04  0.84690528034E+02 0.  0.
         13    1    3    3    0    0 -0.23712241645E+03  0.23546188060E+02 -0.26547093269E+03  0.35672998116E+03  0.00000000000E+00 0.  1.
        -13    1    3    3    0    0  0.67376239224E+01  0.57382963225E+01 -0.16662063743E+01  0.90055463180E+01  0.00000000000E+00 0. -1.
          2    1    6    6  502    0  0.29856126873E+03  0.15709345564E+03  0.10990698034E+04  0.11496832684E+04  0.00000000000E+00 0. -1.
          3    1    5    5  503    0 -0.30795345243E+02 -0.11841199432E+03  0.29366588038E+03  0.31813425309E+03  0.00000000000E+00 0. -1.
         -4    1    5    5    0  503 -0.17713912744E+03 -0.20497168449E+03  0.64778859221E+03  0.70215505560E+03  0.00000000000E+00 0.  1.
         -1    1    6    6    0  502  0.13975799648E+03  0.13700573878E+03  0.75008753236E+03  0.77519944288E+03  0.00000000000E+00 0.  1.
<mgrwt>
<rscale>  0 0.21434049E+04</rscale>
<asrwt>0</asrwt>
<pdfrwt beam="1">  1        2 0.44879862E+00 0.21434049E+04</pdfrwt>
<pdfrwt beam="2">  1       -2 0.60571762E-01 0.21434049E+04</pdfrwt>
<totfact> 0.45758103E+00</totfact>
</mgrwt>
</event>
<event>
12    1  0.1536832E-007  0.1642979E+04  0.7818608E-02  0.8794571E-01
          1   -1    0    0  501    0  0.00000000000E+00  0.00000000000E+00  0.37946268966E+03  0.37946268966E+03  0.00000000000E+00 0. -1.
         -1   -1    0    0    0  501 -0.00000000000E+00 -0.00000000000E+00 -0.17784228088E+04  0.17784228088E+04  0.00000000000E+00 0.  1.
         23    2    1    2    0    0  0.16772188863E+03  0.52913825707E+03 -0.69876185243E+03  0.89631620659E+03  0.83646211922E+02 0.  0.
        254    2    1    2    0    0 -0.16772188863E+03 -0.52913825707E+03 -0.70019826667E+03  0.12615692918E+04  0.89059617023E+03 0.  0.
        -24    2    4    4    0    0 -0.10366145204E+03 -0.25189060041E+03 -0.87448630218E+03  0.91954866390E+03  0.81540673130E+02 0.  0.
         24    2    4    4    0    0 -0.64060436585E+02 -0.27724765665E+03  0.17428803550E+03  0.34202062793E+03  0.75045239396E+02 0.  0.
         11    1    3    3    0    0  0.18979013703E+02  0.23645450631E+02 -0.17328242620E+02  0.34922461096E+02  0.00000000000E+00 0. -1.
        -11    1    3    3    0    0  0.14874287492E+03  0.50549280643E+03 -0.68143360981E+03  0.86139374549E+03  0.00000000000E+00 0.  1.
          2    1    6    6  502    0  0.98934554320E+01 -0.91878503154E+02  0.35803076940E+02  0.99102977355E+02  0.00000000000E+00 0. -1.
          1    1    5    5  503    0 -0.32878609649E+02 -0.13677085425E+02 -0.12187659943E+03  0.12697232425E+03  0.00000000000E+00 0. -1.
         -2    1    5    5    0  503 -0.70782842394E+02 -0.23821351499E+03 -0.75260970275E+03  0.79257633965E+03  0.00000000000E+00 0.  1.
         -1    1    6    6    0  502 -0.73953892017E+02 -0.18536915350E+03  0.13848495856E+03  0.24291765058E+03  0.00000000000E+00 0.  1.
<mgrwt>
<rscale>  0 0.16429791E+04</rscale>
<asrwt>0</asrwt>
<pdfrwt beam="1">  1        1 0.58378876E-01 0.16429791E+04</pdfrwt>
<pdfrwt beam="2">  1       -1 0.27360351E+00 0.16429791E+04</pdfrwt>
<totfact> 0.30155996E+00</totfact>
</mgrwt>
</event>
<event>
12    1  0.1536832E-007  0.1360317E+04  0.7818608E-02  0.8983055E-01
         -2   -1    0    0    0  501 -0.00000000000E+00  0.00000000000E+00  0.59946181648E+03  0.59946181648E+03  0.00000000000E+00 0.  1.
          2   -1    0    0  501    0  0.00000000000E+00 -0.00000000000E+00 -0.77171783644E+03  0.77171783644E+03  0.00000000000E+00 0. -1.
         23    2    1    2    0    0 -0.28755495481E+03 -0.17158287146E+03 -0.25746118787E+03  0.43220723519E+03  0.91587646975E+02 0.  0.
        254    2    1    2    0    0  0.28755495481E+03  0.17158287146E+03  0.85205167910E+02  0.93897241773E+03  0.87308690678E+03 0.  0.
        -24    2    4    4    0    0  0.46229555956E+03 -0.19525322796E+03  0.12351942313E+03  0.52289092028E+03  0.79478671335E+02 0.  0.
         24    2    4    4    0    0 -0.17474060475E+03  0.36683609942E+03 -0.38314255223E+02  0.41608149745E+03  0.80949537227E+02 0.  0.
         11    1    3    3    0    0 -0.54819542562E+02  0.20520675501E+01 -0.58589915118E+02  0.80263138373E+02  0.00000000000E+00 0. -1.
        -11    1    3    3    0    0 -0.23273541225E+03 -0.17363493901E+03 -0.19887127275E+03  0.35194409682E+03  0.00000000000E+00 0.  1.
          4    1    6    6  502    0 -0.27262287995E+02  0.14632669908E+03 -0.77687138991E+01  0.14904726809E+03  0.00000000000E+00 0. -1.
          1    1    5    5  503    0  0.37068395020E+03 -0.18366290175E+03  0.11888559577E+03  0.43043284877E+03  0.00000000000E+00 0. -1.
         -2    1    5    5    0  503  0.91611609359E+02 -0.11590326211E+02  0.46338273621E+01  0.92458071508E+02  0.00000000000E+00 0.  1.
         -3    1    6    6    0  502 -0.14747831675E+03  0.22050940034E+03 -0.30545541324E+02  0.26703422935E+03  0.00000000000E+00 0.  1.
<mgrwt>
<rscale>  0 0.13603167E+04</rscale>
<asrwt>0</asrwt>
<pdfrwt beam="1">  1        2 0.11872582E+00 0.13603167E+04</pdfrwt>
<pdfrwt beam="2">  1       -2 0.92224895E-01 0.13603167E+04</pdfrwt>
<totfact> 0.35227718E+01</totfact>
</mgrwt>
</event>
<event>
12    1  0.1536832E-007  0.1324388E+04  0.7818608E-02  0.9010445E-01
         -1   -1    0    0    0  501 -0.00000000000E+00  0.00000000000E+00  0.14341692823E+03  0.14341692823E+03  0.00000000000E+00 0.  1.
          1   -1    0    0  501    0  0.00000000000E+00 -0.00000000000E+00 -0.30575268815E+04  0.30575268815E+04  0.00000000000E+00 0. -1.
         23    2    1    2    0    0 -0.28469078896E+03  0.18784141288E+03 -0.76920043224E+03  0.84703029230E+03  0.97251063787E+02 0.  0.
        254    2    1    2    0    0  0.28469078896E+03 -0.18784141288E+03 -0.21449095210E+04  0.23539135174E+04  0.90771072065E+03 0.  0.
        -24    2    4    4    0    0 -0.26142614495E+03 -0.25262962332E+03 -0.12106491505E+04  0.12666027514E+04  0.80285791634E+02 0.  0.
         24    2    4    4    0    0  0.54611693391E+03  0.64788210444E+02 -0.93426037051E+03  0.10873107660E+04  0.83432873009E+02 0.  0.
         13    1    3    3    0    0 -0.27022817067E+03  0.19638017916E+03 -0.75265195044E+03  0.82345212217E+03  0.00000000000E+00 0.  1.
        -13    1    3    3    0    0 -0.14462618286E+02 -0.85387662777E+01 -0.16548481796E+02  0.23578170137E+02  0.00000000000E+00 0. -1.
          2    1    6    6  502    0  0.15735714792E+03  0.46666782359E+02 -0.33005681935E+03  0.36861438466E+03  0.00000000000E+00 0. -1.
          3    1    5    5  503    0 -0.20072771787E+03 -0.23307081715E+03 -0.96675881361E+03  0.10145128024E+04  0.00000000000E+00 0. -1.
         -4    1    5    5    0  503 -0.60698427084E+02 -0.19558806178E+02 -0.24389033689E+03  0.25208994898E+03  0.00000000000E+00 0.  1.
         -1    1    6    6    0  502  0.38875978600E+03  0.18121428085E+02 -0.60420355116E+03  0.71869638137E+03  0.00000000000E+00 0.  1.
<mgrwt>
<rscale>  0 0.13243883E+04</rscale>
<asrwt>0</asrwt>
<pdfrwt beam="1">  1        1 0.47038870E+00 0.13243883E+04</pdfrwt>
<pdfrwt beam="2">  1       -1 0.22064145E-01 0.13243883E+04</pdfrwt>
<totfact> 0.93164672E+00</totfact>
</mgrwt>
</event>
<event>
12    1  0.1536832E-007  0.1997698E+04  0.7818608E-02  0.8607697E-01
         -2   -1    0    0    0  501 -0.00000000000E+00  0.00000000000E+00  0.37457179746E+03  0.37457179746E+03  0.00000000000E+00 0.  1.
          2   -1    0    0  501    0  0.00000000000E+00 -0.00000000000E+00 -0.26635743042E+04  0.26635743042E+04  0.00000000000E+00 0. -1.
         23    2    1    2    0    0 -0.32055901671E+03 -0.31551393713E+03 -0.19142774826E+04  0.19685314906E+04  0.91382828934E+02 0.  0.
        254    2    1    2    0    0  0.32055901671E+03  0.31551393713E+03 -0.37472502413E+03  0.10696146110E+04  0.89518123568E+03 0.  0.
        -24    2    4    4    0    0  0.25354103414E+03 -0.13759136741E+03 -0.50421431960E+03  0.58682873608E+03  0.83195222360E+02 0.  0.
         24    2    4    4    0    0  0.67017982566E+02  0.45310530455E+03  0.12948929547E+03  0.48278587495E+03  0.80739683017E+02 0.  0.
         11    1    3    3    0    0 -0.42503945181E+02 -0.56799606387E+02 -0.46189042601E+03  0.46730669402E+03  0.00000000000E+00 0.  1.
        -11    1    3    3    0    0 -0.27805507153E+03 -0.25871433075E+03 -0.14523870566E+04  0.15012247966E+04  0.00000000000E+00 0. -1.
          4    1    6    6  502    0  0.49620501379E+02  0.25886317683E+03  0.11393397607E+03  0.28714680806E+03  0.00000000000E+00 0. -1.
          3    1    5    5  503    0  0.23242490809E+03 -0.11021262098E+03 -0.38754932445E+03  0.46514797496E+03  0.00000000000E+00 0. -1.
         -4    1    5    5    0  503  0.21116126056E+02 -0.27378746434E+02 -0.11666499515E+03  0.12168076113E+03  0.00000000000E+00 0.  1.
         -3    1    6    6    0  502  0.17397481187E+02  0.19424212772E+03  0.15555319397E+02  0.19563906689E+03  0.00000000000E+00 0.  1.
<mgrwt>
<rscale>  0 0.19976985E+04</rscale>
<asrwt>0</asrwt>
<pdfrwt beam="1">  1        2 0.40978065E+00 0.19976985E+04</pdfrwt>
<pdfrwt beam="2">  1       -2 0.57626431E-01 0.19976985E+04</pdfrwt>
<totfact> 0.73219721E+00</totfact>
</mgrwt>
</event>
<event>
12    1  0.1536832E-007  0.2111890E+04  0.7818608E-02  0.8556024E-01
         -2   -1    0    0    0  501 -0.00000000000E+00  0.00000000000E+00  0.12177320478E+04  0.12177320478E+04  0.00000000000E+00 0.  1.
          2   -1    0    0  501    0  0.00000000000E+00 -0.00000000000E+00 -0.91565250354E+03  0.91565250354E+03  0.00000000000E+00 0. -1.
         23    2    1    2    0    0 -0.19905801683E+03  0.52293459052E+03 -0.54085736984E+03  0.78306245804E+03  0.87036995900E+02 0.  0.
        254    2    1    2    0    0  0.19905801683E+03 -0.52293459052E+03  0.84293691414E+03  0.13503220933E+04  0.89428319594E+03 0.  0.
        -24    2    4    4    0    0  0.14138929684E+02 -0.74571287899E+03  0.54322825683E+03  0.92602765373E+03  0.78375182522E+02 0.  0.
         24    2    4    4    0    0  0.18491908715E+03  0.22277828847E+03  0.29970865731E+03  0.42429443962E+03  0.79845210346E+02 0.  0.
         13    1    3    3    0    0 -0.35641623891E+02  0.43998778603E+02 -0.83969612732E+02  0.10127740979E+03  0.00000000000E+00 0. -1.
        -13    1    3    3    0    0 -0.16341639294E+03  0.47893581192E+03 -0.45688775710E+03  0.68178504824E+03  0.00000000000E+00 0.  1.
          2    1    6    6  502    0  0.89277466541E+02  0.61541777964E+02  0.14603068635E+03  0.18188682696E+03  0.00000000000E+00 0. -1.
          3    1    5    5  503    0  0.20959988345E+02 -0.55229324435E+03  0.44149380008E+03  0.70737820462E+03  0.00000000000E+00 0. -1.
         -2    1    5    5    0  503 -0.68210586612E+01 -0.19341963464E+03  0.10173445674E+03  0.21864944911E+03  0.00000000000E+00 0.  1.
         -1    1    6    6    0  502  0.95641620608E+02  0.16123651051E+03  0.15367797096E+03  0.24240761265E+03  0.00000000000E+00 0.  1.
<mgrwt>
<rscale>  0 0.21118896E+04</rscale>
<asrwt>0</asrwt>
<pdfrwt beam="1">  1        2 0.14086962E+00 0.21118896E+04</pdfrwt>
<pdfrwt beam="2">  1       -2 0.18734339E+00 0.21118896E+04</pdfrwt>
<totfact> 0.42542055E+00</totfact>
</mgrwt>
</event>
<event>
12    1  0.1536832E-007  0.2549264E+04  0.7818608E-02  0.8385642E-01
          2   -1    0    0  501    0  0.00000000000E+00  0.00000000000E+00  0.29028198202E+04  0.29028198202E+04  0.00000000000E+00 0. -1.
         -2   -1    0    0    0  501 -0.00000000000E+00 -0.00000000000E+00 -0.55969274084E+03  0.55969274084E+03  0.00000000000E+00 0.  1.
         23    2    1    2    0    0 -0.86271987669E+03 -0.56297297874E+02  0.75595524178E+02  0.87191156589E+03  0.84024544500E+02 0.  0.
        254    2    1    2    0    0  0.86271987669E+03  0.56297297874E+02  0.22675315551E+04  0.25906009951E+04  0.90667479885E+03 0.  0.
        -24    2    4    4    0    0  0.15861153417E+03 -0.35278621344E+03  0.10670802046E+04  0.11377831401E+04  0.79212243888E+02 0.  0.
         24    2    4    4    0    0  0.70410834252E+03  0.40908351132E+03  0.12004513505E+04  0.14528178550E+04  0.80488494095E+02 0.  0.
         13    1    3    3    0    0 -0.80120390551E+03 -0.67783200835E+02  0.54653621368E+02  0.80592138503E+03  0.00000000000E+00 0.  1.
        -13    1    3    3    0    0 -0.61515971179E+02  0.11485902961E+02  0.20941902810E+02  0.65990180862E+02  0.00000000000E+00 0. -1.
          4    1    6    6  502    0  0.39342409955E+02  0.39636949314E+02  0.10976951690E+03  0.12315948933E+03  0.00000000000E+00 0. -1.
          3    1    5    5  503    0  0.16313860254E+02 -0.79774849832E+02  0.15407967156E+03  0.17427195383E+03  0.00000000000E+00 0. -1.
         -4    1    5    5    0  503  0.14229767392E+03 -0.27301136361E+03  0.91300053304E+03  0.96351118623E+03  0.00000000000E+00 0.  1.
         -3    1    6    6    0  502  0.66476593256E+03  0.36944656201E+03  0.10906818336E+04  0.13296583657E+04  0.00000000000E+00 0.  1.
<mgrwt>
<rscale>  0 0.25492643E+04</rscale>
<asrwt>0</asrwt>
<pdfrwt beam="1">  1        2 0.44658766E+00 0.25492643E+04</pdfrwt>
<pdfrwt beam="2">  1       -2 0.86106577E-01 0.25492643E+04</pdfrwt>
<totfact> 0.20792530E+00</totfact>
</mgrwt>
</event>
<event>
12    1  0.1560469E-007  0.1600071E+04  0.7818608E-02  0.8820504E-01
          1   -1    0    0  501    0  0.00000000000E+00  0.00000000000E+00  0.50010649705E+03  0.50010649705E+03  0.00000000000E+00 0. -1.
         -1   -1    0    0    0  501 -0.00000000000E+00 -0.00000000000E+00 -0.12798416467E+04  0.12798416467E+04  0.00000000000E+00 0.  1.
         23    2    1    2    0    0 -0.11095931558E+03  0.24923933121E+03  0.25421828818E+03  0.38338829554E+03  0.89036134113E+02 0.  0.
        254    2    1    2    0    0  0.11095931558E+03 -0.24923933121E+03 -0.10339534378E+04  0.13965598482E+04  0.89826916018E+03 0.  0.
        -24    2    4    4    0    0  0.21198821684E+03  0.25328490685E+03 -0.14994986953E+03  0.37157533771E+03  0.80566867300E+02 0.  0.
         24    2    4    4    0    0 -0.10102890126E+03 -0.50252423806E+03 -0.88400356831E+03  0.10249845105E+04  0.79959297820E+02 0.  0.
         11    1    3    3    0    0 -0.10339837257E+03  0.16987599796E+03  0.13647427669E+03  0.24119350392E+03  0.00000000000E+00 0. -1.
        -11    1    3    3    0    0 -0.75609430094E+01  0.79363333251E+02  0.11774401149E+03  0.14219479163E+03  0.00000000000E+00 0.  1.
          2    1    6    6  502    0 -0.82499084160E+02 -0.48270718918E+03 -0.85469619283E+03  0.98504716202E+03  0.00000000000E+00 0. -1.
          3    1    5    5  503    0  0.21700728918E+03  0.24534439588E+03 -0.15324362800E+03  0.36162085901E+03  0.00000000000E+00 0. -1.
         -4    1    5    5    0  503 -0.50190723352E+01  0.79405109609E+01  0.32937584642E+01  0.99544787029E+01  0.00000000000E+00 0.  1.
         -1    1    6    6    0  502 -0.18529817097E+02 -0.19817048873E+02 -0.29307375485E+02  0.39937348504E+02  0.00000000000E+00 0.  1.
<mgrwt>
<rscale>  0 0.16000714E+04</rscale>
<asrwt>0</asrwt>
<pdfrwt beam="1">  1        1 0.76939462E-01 0.16000714E+04</pdfrwt>
<pdfrwt beam="2">  1       -1 0.19689871E+00 0.16000714E+04</pdfrwt>
<totfact> 0.67219435E+00</totfact>
</mgrwt>
</event>
<event>
12    1  0.1536832E-007  0.2302849E+04  0.7818608E-02  0.8476798E-01
         -1   -1    0    0    0  501 -0.00000000000E+00  0.00000000000E+00  0.11432766226E+04  0.11432766226E+04  0.00000000000E+00 0.  1.
          1   -1    0    0  501    0  0.00000000000E+00 -0.00000000000E+00 -0.11596309353E+04  0.11596309353E+04  0.00000000000E+00 0. -1.
         23    2    1    2    0    0 -0.27623549695E+03 -0.30871547341E+02 -0.93632615687E+03  0.98483855026E+03  0.12625844857E+03 0.  0.
        254    2    1    2    0    0  0.27623549695E+03  0.30871547341E+02  0.91997184417E+03  0.13180690077E+04  0.90205244454E+03 0.  0.
        -24    2    4    4    0    0  0.22253751977E+03 -0.32998198571E+03  0.10143163349E+03  0.41831319531E+03  0.79287417001E+02 0.  0.
         24    2    4    4    0    0  0.53697977181E+02  0.36085353305E+03  0.81854021068E+03  0.89975581237E+03  0.80334925845E+02 0.  0.
         13    1    3    3    0    0 -0.78665649306E+02 -0.58291861884E+02 -0.42151759293E+03  0.43273930569E+03  0.00000000000E+00 0.  1.
        -13    1    3    3    0    0 -0.19756984765E+03  0.27420314543E+02 -0.51480856394E+03  0.55209924457E+03  0.00000000000E+00 0. -1.
          4    1    6    6  502    0  0.69760694669E+02  0.32866732056E+03  0.76137829227E+03  0.83221731902E+03  0.00000000000E+00 0. -1.
          3    1    5    5  503    0  0.16991022440E+03 -0.19942924085E+03  0.90269900836E+02  0.27711037775E+03  0.00000000000E+00 0. -1.
         -4    1    5    5    0  503  0.52627295374E+02 -0.13055274486E+03  0.11161732653E+02  0.14120281756E+03  0.00000000000E+00 0.  1.
         -3    1    6    6    0  502 -0.16062717488E+02  0.32186212488E+02  0.57161918409E+02  0.67538493348E+02  0.00000000000E+00 0.  1.
<mgrwt>
<rscale>  0 0.23028495E+04</rscale>
<asrwt>0</asrwt>
<pdfrwt beam="1">  1        1 0.17840476E+00 0.23028495E+04</pdfrwt>
<pdfrwt beam="2">  1       -1 0.17588871E+00 0.23028495E+04</pdfrwt>
<totfact> 0.23044191E+00</totfact>
</mgrwt>
</event>
<event>
12    1  0.1536832E-007  0.1298579E+04  0.7818608E-02  0.9030693E-01
         -1   -1    0    0    0  501 -0.00000000000E+00  0.00000000000E+00  0.13522350244E+03  0.13522350244E+03  0.00000000000E+00 0.  1.
          1   -1    0    0  501    0  0.00000000000E+00 -0.00000000000E+00 -0.31176306402E+04  0.31176306402E+04  0.00000000000E+00 0. -1.
         23    2    1    2    0    0 -0.23641342396E+03 -0.53576698113E+02 -0.13353636820E+04  0.13603302987E+04  0.92415305648E+02 0.  0.
        254    2    1    2    0    0  0.23641342396E+03  0.53576698113E+02 -0.16470434558E+04  0.18925238440E+04  0.90007365539E+03 0.  0.
        -24    2    4    4    0    0  0.39501712502E+03 -0.41059930427E+02 -0.16423093486E+04  0.16911281593E+04  0.70781409500E+02 0.  0.
         24    2    4    4    0    0 -0.15860370105E+03  0.94636628540E+02 -0.47341072157E+01  0.20139568464E+03  0.80165981387E+02 0.  0.
         11    1    3    3    0    0 -0.12970274483E+03 -0.70121895070E+02 -0.65012374711E+03  0.66663390908E+03  0.00000000000E+00 0. -1.
        -11    1    3    3    0    0 -0.10671067914E+03  0.16545196957E+02 -0.68523993493E+03  0.69369638964E+03  0.00000000000E+00 0.  1.
          4    1    6    6  502    0 -0.32209471574E+02  0.60985701389E+02  0.10313834719E+02  0.69735794392E+02  0.00000000000E+00 0. -1.
          1    1    5    5  503    0  0.17454179681E+03  0.16977165537E+02 -0.70060235877E+03  0.72221653823E+03  0.00000000000E+00 0. -1.
         -2    1    5    5    0  503  0.22047532820E+03 -0.58037095964E+02 -0.94170698979E+03  0.96891162109E+03  0.00000000000E+00 0.  1.
         -3    1    6    6    0  502 -0.12639422948E+03  0.33650927151E+02 -0.15047941935E+02  0.13165989025E+03  0.00000000000E+00 0.  1.
<mgrwt>
<rscale>  0 0.12985791E+04</rscale>
<asrwt>0</asrwt>
<pdfrwt beam="1">  1        1 0.47963547E+00 0.12985791E+04</pdfrwt>
<pdfrwt beam="2">  1       -1 0.20803616E-01 0.12985791E+04</pdfrwt>
<totfact> 0.93213987E+00</totfact>
</mgrwt>
</event>
<event>
12    1  0.1536832E-007  0.2434598E+04  0.7818608E-02  0.8426663E-01
         -1   -1    0    0    0  501 -0.00000000000E+00  0.00000000000E+00  0.91952897080E+03  0.91952897080E+03  0.00000000000E+00 0.  1.
          1   -1    0    0  501    0  0.00000000000E+00 -0.00000000000E+00 -0.16114954604E+04  0.16114954604E+04  0.00000000000E+00 0. -1.
         23    2    1    2    0    0  0.19068191976E+03  0.25451334737E+02  0.78030799375E+03  0.80873019796E+03  0.90313913768E+02 0.  0.
        254    2    1    2    0    0 -0.19068191976E+03 -0.25451334737E+02 -0.14722744834E+04  0.17222942333E+04  0.87275306162E+03 0.  0.
        -24    2    4    4    0    0 -0.47652076207E+03  0.10836466069E+03 -0.11988467777E+04  0.12970689706E+04  0.79620234310E+02 0.  0.
         24    2    4    4    0    0  0.28583884231E+03 -0.13381599543E+03 -0.27342770567E+03  0.42522526266E+03  0.80269853426E+02 0.  0.
         11    1    3    3    0    0  0.16268587414E+02 -0.25641022770E+02  0.13037809768E+03  0.13386776064E+03  0.00000000000E+00 0. -1.
        -11    1    3    3    0    0  0.17441333235E+03  0.51092357506E+02  0.64992989607E+03  0.67486243732E+03  0.00000000000E+00 0.  1.
          4    1    6    6  502    0  0.29529305957E+01 -0.18479256446E+02 -0.73593588127E+01  0.20108776194E+02  0.00000000000E+00 0. -1.
          3    1    5    5  503    0 -0.32998176818E+02  0.25067766503E+02 -0.14156907917E+03  0.14750958195E+03  0.00000000000E+00 0. -1.
         -4    1    5    5    0  503 -0.44352258526E+03  0.83296894191E+02 -0.10572776985E+04  0.11495593887E+04  0.00000000000E+00 0.  1.
         -3    1    6    6    0  502  0.28288591172E+03 -0.11533673899E+03 -0.26606834686E+03  0.40511648647E+03  0.00000000000E+00 0.  1.
<mgrwt>
<rscale>  0 0.24345979E+04</rscale>
<asrwt>0</asrwt>
<pdfrwt beam="1">  1        1 0.24792238E+00 0.24345979E+04</pdfrwt>
<pdfrwt beam="2">  1       -1 0.14146600E+00 0.24345979E+04</pdfrwt>
<totfact> 0.19967211E+00</totfact>
</mgrwt>
</event>
<event>
12    1  0.1536832E-007  0.1161780E+04  0.7818608E-02  0.9146984E-01
         -1   -1    0    0    0  501 -0.00000000000E+00  0.00000000000E+00  0.19404275973E+03  0.19404275973E+03  0.00000000000E+00 0.  1.
          1   -1    0    0  501    0  0.00000000000E+00 -0.00000000000E+00 -0.17389629656E+04  0.17389629656E+04  0.00000000000E+00 0. -1.
         23    2    1    2    0    0  0.37681207572E+02  0.14336411968E+03 -0.58081455461E+03  0.60617958575E+03  0.90194229929E+02 0.  0.
        254    2    1    2    0    0 -0.37681207572E+02 -0.14336411968E+03 -0.96410565121E+03  0.13268261395E+04  0.89944135642E+03 0.  0.
        -24    2    4    4    0    0  0.12742026467E+03 -0.20125003855E+03  0.81086208979E+02  0.26408065376E+03  0.80163062191E+02 0.  0.
         24    2    4    4    0    0 -0.16510147224E+03  0.57885918869E+02 -0.10451918602E+04  0.10627454858E+04  0.79954156755E+02 0.  0.
         13    1    3    3    0    0  0.49159164804E+02  0.14597427423E+03 -0.46673426289E+03  0.49149362598E+03  0.00000000000E+00 0. -1.
        -13    1    3    3    0    0 -0.11477957233E+02 -0.26101545495E+01 -0.11408029172E+03  0.11468595977E+03  0.00000000000E+00 0.  1.
          2    1    6    6  502    0 -0.62929840695E+02  0.26437372531E+02 -0.21184783344E+03  0.22257269385E+03  0.00000000000E+00 0. -1.
          1    1    5    5  503    0 -0.74455170634E+00  0.57807108480E+01  0.79214386020E+01  0.98346410548E+01  0.00000000000E+00 0. -1.
         -2    1    5    5    0  503  0.12816481638E+03 -0.20703074940E+03  0.73164770377E+02  0.25424601271E+03  0.00000000000E+00 0.  1.
         -1    1    6    6    0  502 -0.10217163155E+03  0.31448546337E+02 -0.83334402675E+03  0.84017279192E+03  0.00000000000E+00 0.  1.
<mgrwt>
<rscale>  0 0.11617800E+04</rscale>
<asrwt>0</asrwt>
<pdfrwt beam="1">  1        1 0.26753276E+00 0.11617800E+04</pdfrwt>
<pdfrwt beam="2">  1       -1 0.29852733E-01 0.11617800E+04</pdfrwt>
<totfact> 0.45817967E+01</totfact>
</mgrwt>
</event>
<event>
12    1  0.1536832E-007  0.1396850E+04  0.7818608E-02  0.8956102E-01
         -3   -1    0    0    0  501 -0.00000000000E+00  0.00000000000E+00  0.36214024632E+03  0.36214024632E+03  0.00000000000E+00 0.  1.
          3   -1    0    0  501    0  0.00000000000E+00 -0.00000000000E+00 -0.13469843939E+04  0.13469843939E+04  0.00000000000E+00 0. -1.
         23    2    1    2    0    0  0.30772830243E+02  0.35030907259E+03 -0.52518168785E+03  0.63882862841E+03  0.92859021151E+02 0.  0.
        254    2    1    2    0    0 -0.30772830243E+02 -0.35030907259E+03 -0.45966245976E+03  0.10702960118E+04  0.90032247702E+03 0.  0.
        -24    2    4    4    0    0 -0.30014755550E+03 -0.17426820436E+03 -0.60986893726E+03  0.70625374038E+03  0.79976640563E+02 0.  0.
         24    2    4    4    0    0  0.26937472526E+03 -0.17604086823E+03  0.15020647750E+03  0.36404227146E+03  0.80072839525E+02 0.  0.
         13    1    3    3    0    0 -0.40766132950E+01  0.42713586395E+02 -0.22435340961E+02  0.48419146654E+02  0.00000000000E+00 0.  1.
        -13    1    3    3    0    0  0.34849443538E+02  0.30759548620E+03 -0.50274634689E+03  0.59040948176E+03  0.00000000000E+00 0. -1.
          4    1    6    6  502    0  0.53560520262E+02 -0.22720912756E+02  0.61949650486E+02  0.84986636612E+02  0.00000000000E+00 0. -1.
          1    1    5    5  503    0 -0.37298115659E+02 -0.24409633134E+01 -0.35007329892E+02  0.51211530730E+02  0.00000000000E+00 0. -1.
         -2    1    5    5    0  503 -0.26284943985E+03 -0.17182724105E+03 -0.57486160737E+03  0.65504220965E+03  0.00000000000E+00 0.  1.
         -3    1    6    6    0  502  0.21581420500E+03 -0.15331995547E+03  0.88256827016E+02  0.27905563485E+03  0.00000000000E+00 0.  1.
<mgrwt>
<rscale>  0 0.13968497E+04</rscale>
<asrwt>0</asrwt>
<pdfrwt beam="1">  1        3 0.20722837E+00 0.13968497E+04</pdfrwt>
<pdfrwt beam="2">  1       -3 0.55713885E-01 0.13968497E+04</pdfrwt>
<totfact> 0.10752100E+00</totfact>
</mgrwt>
</event>
<event>
12    1  0.1536832E-007  0.1295716E+04  0.7818608E-02  0.9032970E-01
         -2   -1    0    0    0  501 -0.00000000000E+00  0.00000000000E+00  0.57976016735E+03  0.57976016735E+03  0.00000000000E+00 0.  1.
          2   -1    0    0  501    0  0.00000000000E+00 -0.00000000000E+00 -0.72395410846E+03  0.72395410846E+03  0.00000000000E+00 0. -1.
         23    2    1    2    0    0 -0.16915136452E+03  0.18343145240E+03 -0.24057833951E+03  0.35803015364E+03  0.89712717179E+02 0.  0.
        254    2    1    2    0    0  0.16915136452E+03 -0.18343145240E+03  0.96384398404E+02  0.94568412217E+03  0.90706627367E+03 0.  0.
        -24    2    4    4    0    0  0.78861173011E+01 -0.37685012813E+03  0.39141478882E+03  0.54926038655E+03  0.80020156300E+02 0.  0.
         24    2    4    4    0    0  0.16126524721E+03  0.19341867573E+03 -0.29503039041E+03  0.39642373562E+03  0.81802095433E+02 0.  0.
         13    1    3    3    0    0 -0.34569125402E+02  0.15066238120E+01 -0.12643115521E+02  0.36839417971E+02  0.00000000000E+00 0.  1.
        -13    1    3    3    0    0 -0.13458223911E+03  0.18192482859E+03 -0.22793522399E+03  0.32119073567E+03  0.00000000000E+00 0. -1.
          4    1    6    6  502    0  0.14231699809E+03  0.19261408502E+03 -0.24359526133E+03  0.34160352024E+03  0.00000000000E+00 0. -1.
          3    1    5    5  503    0 -0.21502973606E+02 -0.27054099805E+03  0.24253473501E+03  0.36397514639E+03  0.00000000000E+00 0. -1.
         -4    1    5    5    0  503  0.29389090908E+02 -0.10630913008E+03  0.14888005380E+03  0.18528524016E+03  0.00000000000E+00 0.  1.
         -3    1    6    6    0  502  0.18948249122E+02  0.80459070272E+00 -0.51435129081E+02  0.54820215383E+02  0.00000000000E+00 0.  1.
<mgrwt>
<rscale>  0 0.12957156E+04</rscale>
<asrwt>0</asrwt>
<pdfrwt beam="1">  1        2 0.11137755E+00 0.12957156E+04</pdfrwt>
<pdfrwt beam="2">  1       -2 0.89193872E-01 0.12957156E+04</pdfrwt>
<totfact> 0.41540096E+01</totfact>
</mgrwt>
</event>
<event>
12    1  0.1536832E-007  0.3972981E+04  0.7818608E-02  0.8010019E-01
          2   -1    0    0  501    0  0.00000000000E+00  0.00000000000E+00  0.31833954496E+04  0.31833954496E+04  0.00000000000E+00 0. -1.
         -2   -1    0    0    0  501 -0.00000000000E+00 -0.00000000000E+00 -0.12396025158E+04  0.12396025158E+04  0.00000000000E+00 0.  1.
         23    2    1    2    0    0  0.68175551620E+03 -0.15420220873E+04  0.18611650459E+04  0.25131213922E+04  0.96026569903E+02 0.  0.
        254    2    1    2    0    0 -0.68175551620E+03  0.15420220873E+04  0.82627887852E+02  0.19098765732E+04  0.89340833624E+03 0.  0.
        -24    2    4    4    0    0 -0.33507003058E+03  0.40318854581E+03  0.41255844044E+03  0.67173734984E+03  0.78699882675E+02 0.  0.
         24    2    4    4    0    0 -0.34668548562E+03  0.11388335415E+04 -0.32993055258E+03  0.12381392233E+04  0.83677390122E+02 0.  0.
         13    1    3    3    0    0  0.51451410367E+03 -0.11315098434E+04  0.13107624427E+04  0.18064156415E+04  0.00000000000E+00 0. -1.
        -13    1    3    3    0    0  0.16724141252E+03 -0.41051224395E+03  0.55040260321E+03  0.70670575073E+03  0.00000000000E+00 0.  1.
          4    1    6    6  502    0 -0.27510351349E+03  0.99879135325E+03 -0.28075182377E+03  0.10733534819E+04  0.00000000000E+00 0. -1.
          1    1    5    5  503    0 -0.28745302975E+03  0.36973568051E+03  0.34004707823E+03  0.57876224235E+03  0.00000000000E+00 0. -1.
         -2    1    5    5    0  503 -0.47617000828E+02  0.33452865303E+02  0.72511362206E+02  0.92975107496E+02  0.00000000000E+00 0.  1.
         -3    1    6    6    0  502 -0.71581972125E+02  0.14004218827E+03 -0.49178728818E+02  0.16478574148E+03  0.00000000000E+00 0.  1.
<mgrwt>
<rscale>  0 0.39729813E+04</rscale>
<asrwt>0</asrwt>
<pdfrwt beam="1">  1        2 0.48975314E+00 0.39729813E+04</pdfrwt>
<pdfrwt beam="2">  1       -2 0.19070808E+00 0.39729813E+04</pdfrwt>
<totfact> 0.16099126E-01</totfact>
</mgrwt>
</event>
<event>
12    1  0.1536832E-007  0.2143931E+04  0.7818608E-02  0.8542135E-01
         -2   -1    0    0    0  501 -0.00000000000E+00  0.00000000000E+00  0.14850629798E+04  0.14850629798E+04  0.00000000000E+00 0. -1.
          2   -1    0    0  501    0  0.00000000000E+00 -0.00000000000E+00 -0.77377871976E+03  0.77377871976E+03  0.00000000000E+00 0.  1.
         23    2    1    2    0    0 -0.26580424366E+03 -0.10926425667E+03  0.11631876579E+04  0.12017064305E+04  0.92207612999E+02 0.  0.
        254    2    1    2    0    0  0.26580424366E+03  0.10926425667E+03 -0.45190339783E+03  0.10571352691E+04  0.91144265997E+03 0.  0.
        -24    2    4    4    0    0 -0.30547537280E+03 -0.10517129603E+03 -0.95791929783E+02  0.34621256131E+03  0.79440788677E+02 0.  0.
         24    2    4    4    0    0  0.57127961646E+03  0.21443555270E+03 -0.35611146805E+03  0.71092270776E+03  0.79074093688E+02 0.  0.
         11    1    3    3    0    0 -0.15828871328E+03 -0.11006954307E+03  0.80250771793E+03  0.82534190394E+03  0.00000000000E+00 0. -1.
        -11    1    3    3    0    0 -0.10751553039E+03  0.80528640444E+00  0.36067993999E+03  0.37636452658E+03  0.00000000000E+00 0.  1.
          4    1    6    6  502    0  0.45312125521E+03  0.20288932470E+03 -0.28205178718E+03  0.57099576237E+03  0.00000000000E+00 0. -1.
          1    1    5    5  503    0 -0.26010012711E+03 -0.11482298148E+03 -0.68733572139E+02  0.29250760184E+03  0.00000000000E+00 0. -1.
         -2    1    5    5    0  503 -0.45375245692E+02  0.96516854481E+01 -0.27058357644E+02  0.53704959473E+02  0.00000000000E+00 0.  1.
         -3    1    6    6    0  502  0.11815836126E+03  0.11546227994E+02 -0.74059680870E+02  0.13992694539E+03  0.00000000000E+00 0.  1.
<mgrwt>
<rscale>  0 0.21439311E+04</rscale>
<asrwt>0</asrwt>
<pdfrwt beam="1">  1        2 0.11904288E+00 0.21439311E+04</pdfrwt>
<pdfrwt beam="2">  1       -2 0.22847123E+00 0.21439311E+04</pdfrwt>
<totfact> 0.28883289E+00</totfact>
</mgrwt>
</event>
<event>
12    1  0.1536832E-007  0.2633241E+04  0.7818608E-02  0.8356997E-01
         -1   -1    0    0    0  501 -0.00000000000E+00  0.00000000000E+00  0.12613753192E+04  0.12613753192E+04  0.00000000000E+00 0.  1.
          1   -1    0    0  501    0  0.00000000000E+00 -0.00000000000E+00 -0.13742851968E+04  0.13742851968E+04  0.00000000000E+00 0. -1.
         23    2    1    2    0    0 -0.16846084800E+03 -0.90945238366E+03  0.64074628108E+03  0.11289880090E+04  0.92603630438E+02 0.  0.
        254    2    1    2    0    0  0.16846084800E+03  0.90945238366E+03 -0.75365615867E+03  0.15066725069E+04  0.92009876761E+03 0.  0.
        -24    2    4    4    0    0  0.36309197032E+03  0.53421096613E+03 -0.84528033152E+03  0.10667695537E+04  0.79254694330E+02 0.  0.
         24    2    4    4    0    0 -0.19463112232E+03  0.37524141754E+03  0.91624172850E+02  0.43990295324E+03  0.80201147171E+02 0.  0.
         13    1    3    3    0    0 -0.12132501821E+03 -0.72322805379E+03  0.46294470036E+03  0.86723490095E+03  0.00000000000E+00 0.  1.
        -13    1    3    3    0    0 -0.47135829785E+02 -0.18622432987E+03  0.17780158072E+03  0.26175310808E+03  0.00000000000E+00 0. -1.
          4    1    6    6  502    0 -0.17289349262E+03  0.30370086043E+03  0.46433340348E+02  0.35253712927E+03  0.00000000000E+00 0. -1.
          1    1    5    5  503    0  0.26924091876E+03  0.43117283689E+03 -0.70371194388E+03  0.86810782024E+03  0.00000000000E+00 0. -1.
         -2    1    5    5    0  503  0.93851051558E+02  0.10303812923E+03 -0.14156838764E+03  0.19866173344E+03  0.00000000000E+00 0.  1.
         -3    1    6    6    0  502 -0.21737629703E+02  0.71540557100E+02  0.45190832502E+02  0.87365823968E+02  0.00000000000E+00 0.  1.
<mgrwt>
<rscale>  0 0.26332409E+04</rscale>
<asrwt>0</asrwt>
<pdfrwt beam="1">  1        1 0.21142849E+00 0.26332409E+04</pdfrwt>
<pdfrwt beam="2">  1       -1 0.19405774E+00 0.26332409E+04</pdfrwt>
<totfact> 0.11643135E+00</totfact>
</mgrwt>
</event>
<event>
12    1  0.1536832E-007  0.2471125E+04  0.7818608E-02  0.8413345E-01
          1   -1    0    0  501    0  0.00000000000E+00  0.00000000000E+00  0.18412591256E+04  0.18412591256E+04  0.00000000000E+00 0. -1.
         -1   -1    0    0    0  501 -0.00000000000E+00 -0.00000000000E+00 -0.82911444678E+03  0.82911444678E+03  0.00000000000E+00 0.  1.
         23    2    1    2    0    0 -0.53773260301E+03  0.12924055938E+03 -0.54914760118E+03  0.78467033935E+03  0.91021860246E+02 0.  0.
        254    2    1    2    0    0  0.53773260301E+03 -0.12924055938E+03  0.15612922800E+04  0.18857032330E+04  0.90132326329E+03 0.  0.
        -24    2    4    4    0    0  0.51671677709E+03 -0.47061280845E+03  0.96658986692E+03  0.11951072993E+04  0.74248521293E+02 0.  0.
         24    2    4    4    0    0  0.21015825919E+02  0.34137224907E+03  0.59470241304E+03  0.69059593365E+03  0.79215567463E+02 0.  0.
         13    1    3    3    0    0 -0.25257953206E+03  0.87893719565E+02 -0.21271194641E+03  0.34171347368E+03  0.00000000000E+00 0. -1.
        -13    1    3    3    0    0 -0.28515307095E+03  0.41346839814E+02 -0.33643565477E+03  0.44295686566E+03  0.00000000000E+00 0.  1.
          4    1    6    6  502    0 -0.16985042103E+02  0.26018085757E+03  0.46091524073E+03  0.52955210267E+03  0.00000000000E+00 0. -1.
          3    1    5    5  503    0  0.51405733281E+03 -0.45442975462E+03  0.94907801094E+03  0.11711150303E+04  0.00000000000E+00 0. -1.
         -4    1    5    5    0  503  0.26594442821E+01 -0.16183053825E+02  0.17511855983E+02  0.23992269067E+02  0.00000000000E+00 0.  1.
         -3    1    6    6    0  502  0.38000868022E+02  0.81191391500E+02  0.13378717231E+03  0.16104383098E+03  0.00000000000E+00 0.  1.
<mgrwt>
<rscale>  0 0.24711249E+04</rscale>
<asrwt>0</asrwt>
<pdfrwt beam="1">  1        1 0.28327063E+00 0.24711249E+04</pdfrwt>
<pdfrwt beam="2">  1       -1 0.12755607E+00 0.24711249E+04</pdfrwt>
<totfact> 0.18094091E+00</totfact>
</mgrwt>
</event>
<event>
12    1  0.1536832E-007  0.1800753E+04  0.7818608E-02  0.8705899E-01
         -1   -1    0    0    0  501 -0.00000000000E+00  0.00000000000E+00  0.55384537298E+03  0.55384537298E+03  0.00000000000E+00 0.  1.
          1   -1    0    0  501    0  0.00000000000E+00 -0.00000000000E+00 -0.14637267509E+04  0.14637267509E+04  0.00000000000E+00 0. -1.
         23    2    1    2    0    0 -0.43536365727E+03  0.22970972220E+03 -0.84091814137E+03  0.97831771751E+03  0.87488086923E+02 0.  0.
        254    2    1    2    0    0  0.43536365727E+03 -0.22970972220E+03 -0.68963236578E+02  0.10392544064E+04  0.91268051512E+03 0.  0.
        -24    2    4    4    0    0 -0.17005966769E+03 -0.21630741780E+03 -0.27139818020E+03  0.39507598977E+03  0.81968749570E+02 0.  0.
         24    2    4    4    0    0  0.60542332497E+03 -0.13402304405E+02  0.20243494362E+03  0.64417841664E+03  0.85257855245E+02 0.  0.
         11    1    3    3    0    0 -0.30154492305E+03  0.18438920328E+03 -0.53315626382E+03  0.63967516800E+03  0.00000000000E+00 0. -1.
        -11    1    3    3    0    0 -0.13381873422E+03  0.45320518926E+02 -0.30776187755E+03  0.33864254951E+03  0.00000000000E+00 0.  1.
          4    1    6    6  502    0  0.18014850712E+03  0.26367734124E+02  0.86633571654E+02  0.20162866303E+03  0.00000000000E+00 0. -1.
          1    1    5    5  503    0 -0.39186427660E+02 -0.97275277405E+02 -0.65630857257E+02  0.12371525828E+03  0.00000000000E+00 0. -1.
         -2    1    5    5    0  503 -0.13087324003E+03 -0.11903214039E+03 -0.20576732294E+03  0.27136073149E+03  0.00000000000E+00 0.  1.
         -3    1    6    6    0  502  0.42527481785E+03 -0.39770038529E+02  0.11580137197E+03  0.44254975360E+03  0.00000000000E+00 0.  1.
<mgrwt>
<rscale>  0 0.18007535E+04</rscale>
<asrwt>0</asrwt>
<pdfrwt beam="1">  1        1 0.22518873E+00 0.18007535E+04</pdfrwt>
<pdfrwt beam="2">  1       -1 0.85206982E-01 0.18007535E+04</pdfrwt>
<totfact> 0.89084543E+00</totfact>
</mgrwt>
</event>
<event>
12    1  0.1536832E-007  0.2381771E+04  0.7818608E-02  0.8446360E-01
          1   -1    0    0  501    0  0.00000000000E+00  0.00000000000E+00  0.13878667573E+04  0.13878667573E+04  0.00000000000E+00 0. -1.
         -1   -1    0    0    0  501 -0.00000000000E+00 -0.00000000000E+00 -0.10218615762E+04  0.10218615762E+04  0.00000000000E+00 0.  1.
         23    2    1    2    0    0  0.73193292456E+03 -0.70904459467E+03  0.15090750608E+03  0.10338742017E+04  0.87479976147E+02 0.  0.
        254    2    1    2    0    0 -0.73193292456E+03  0.70904459467E+03  0.21509767509E+03  0.13758541318E+04  0.89902032177E+03 0.  0.
        -24    2    4    4    0    0 -0.81142086515E+03  0.59351113047E+03 -0.10795741360E+03  0.10141235968E+04  0.78310816861E+02 0.  0.
         24    2    4    4    0    0  0.79487940589E+02  0.11553346420E+03  0.32305508870E+03  0.36173053503E+03  0.82571639152E+02 0.  0.
         11    1    3    3    0    0  0.23733884476E+03 -0.22736230661E+03  0.90180971198E+02  0.34081659769E+03  0.00000000000E+00 0. -1.
        -11    1    3    3    0    0  0.49459407981E+03 -0.48168228806E+03  0.60726534887E+02  0.69305760399E+03  0.00000000000E+00 0.  1.
          4    1    6    6  502    0  0.39554307367E+02  0.56136339634E+01  0.13015065634E+03  0.13614422302E+03  0.00000000000E+00 0. -1.
          1    1    5    5  503    0 -0.80836881047E+03  0.58332064634E+03 -0.10234633467E+03  0.10020967430E+04  0.00000000000E+00 0. -1.
         -2    1    5    5    0  503 -0.30520546807E+01  0.10190484126E+02 -0.56110789361E+01  0.12026853758E+02  0.00000000000E+00 0.  1.
         -1    1    6    6    0  502  0.39933633221E+02  0.10991983024E+03  0.19290443236E+03  0.22558631201E+03  0.00000000000E+00 0.  1.
<mgrwt>
<rscale>  0 0.23817705E+04</rscale>
<asrwt>0</asrwt>
<pdfrwt beam="1">  1        1 0.21351796E+00 0.23817705E+04</pdfrwt>
<pdfrwt beam="2">  1       -1 0.15720947E+00 0.23817705E+04</pdfrwt>
<totfact> 0.21584329E+00</totfact>
</mgrwt>
</event>
<event>
12    1  0.1536832E-007  0.2411497E+04  0.7818608E-02  0.8435212E-01
         -2   -1    0    0    0  501 -0.00000000000E+00  0.00000000000E+00  0.62016747088E+03  0.62016747088E+03  0.00000000000E+00 0.  1.
          2   -1    0    0  501    0  0.00000000000E+00 -0.00000000000E+00 -0.23442528043E+04  0.23442528043E+04  0.00000000000E+00 0. -1.
         23    2    1    2    0    0 -0.49119034036E+03 -0.74722803982E+03 -0.10410463470E+03  0.90503588250E+03  0.92921900998E+02 0.  0.
        254    2    1    2    0    0  0.49119034036E+03  0.74722803982E+03 -0.16199806988E+04  0.20593843927E+04  0.90394077166E+03 0.  0.
        -24    2    4    4    0    0  0.41371502900E+03  0.87695963572E+03 -0.92209610517E+03  0.13404892642E+04  0.80199203583E+02 0.  0.
         24    2    4    4    0    0  0.77475311368E+02 -0.12973159589E+03 -0.69788459359E+03  0.71889512857E+03  0.83274180035E+02 0.  0.
         11    1    3    3    0    0 -0.42593748638E+03 -0.69517784537E+03 -0.87961246131E+02  0.82001960941E+03  0.00000000000E+00 0.  1.
        -11    1    3    3    0    0 -0.65252853988E+02 -0.52050194453E+02 -0.16143388569E+02  0.85016273093E+02  0.00000000000E+00 0. -1.
          2    1    6    6  502    0  0.74169909472E+00  0.72672670129E+01 -0.11495533626E+03  0.11518720685E+03  0.00000000000E+00 0. -1.
          1    1    5    5  503    0  0.49134024197E+02  0.63591135182E+02 -0.96074733003E+02  0.12525310028E+03  0.00000000000E+00 0. -1.
         -2    1    5    5    0  503  0.36458100480E+03  0.81336850054E+03 -0.82602137216E+03  0.12152361639E+04  0.00000000000E+00 0.  1.
         -1    1    6    6    0  502  0.76733612273E+02 -0.13699886291E+03 -0.58292925733E+03  0.60370792171E+03  0.00000000000E+00 0.  1.
<mgrwt>
<rscale>  0 0.24114969E+04</rscale>
<asrwt>0</asrwt>
<pdfrwt beam="1">  1        2 0.36065427E+00 0.24114969E+04</pdfrwt>
<pdfrwt beam="2">  1       -2 0.95410382E-01 0.24114969E+04</pdfrwt>
<totfact> 0.35457039E+00</totfact>
</mgrwt>
</event>
<event>
12    1  0.1536832E-007  0.1727527E+04  0.7818608E-02  0.8745819E-01
         -1   -1    0    0    0  501 -0.00000000000E+00  0.00000000000E+00  0.17889863228E+03  0.17889863228E+03  0.00000000000E+00 0.  1.
          1   -1    0    0  501    0  0.00000000000E+00 -0.00000000000E+00 -0.41704479537E+04  0.41704479537E+04  0.00000000000E+00 0. -1.
         23    2    1    2    0    0 -0.30396473849E+03 -0.55507825180E+03 -0.17121414111E+04  0.18276730710E+04  0.91946805549E+02 0.  0.
        254    2    1    2    0    0  0.30396473849E+03  0.55507825180E+03 -0.22794079104E+04  0.25216735150E+04  0.87328716159E+03 0.  0.
        -24    2    4    4    0    0 -0.26320133519E+03  0.37920725606E+03 -0.82802672550E+03  0.95138809558E+03  0.80236926538E+02 0.  0.
         24    2    4    4    0    0  0.56716607368E+03  0.17587099573E+03 -0.14513811849E+04  0.15702854194E+04  0.81737337869E+02 0.  0.
         11    1    3    3    0    0 -0.18237781684E+03 -0.34419411246E+03 -0.11766444839E+04  0.12394448340E+04  0.00000000000E+00 0. -1.
        -11    1    3    3    0    0 -0.12158692165E+03 -0.21088413934E+03 -0.53549692723E+03  0.58822823701E+03  0.00000000000E+00 0.  1.
          4    1    6    6  502    0  0.12398987466E+03  0.28913520052E+02 -0.23320347171E+03  0.26569407197E+03  0.00000000000E+00 0. -1.
          1    1    5    5  503    0 -0.47108420446E+02  0.97413036865E+02 -0.25833665865E+03  0.28008272391E+03  0.00000000000E+00 0. -1.
         -2    1    5    5    0  503 -0.21609291474E+03  0.28179421920E+03 -0.56969006685E+03  0.67130537168E+03  0.00000000000E+00 0.  1.
         -3    1    6    6    0  502  0.44317619902E+03  0.14695747568E+03 -0.12181777131E+04  0.13045913475E+04  0.00000000000E+00 0.  1.
<mgrwt>
<rscale>  0 0.17275271E+04</rscale>
<asrwt>0</asrwt>
<pdfrwt beam="1">  1        1 0.64160722E+00 0.17275271E+04</pdfrwt>
<pdfrwt beam="2">  1       -1 0.27522873E-01 0.17275271E+04</pdfrwt>
<totfact> 0.77065925E-01</totfact>
</mgrwt>
</event>
<event>
12    1  0.2511874E-007  0.2333616E+04  0.7818608E-02  0.8464784E-01
         -1   -1    0    0    0  501 -0.00000000000E+00  0.00000000000E+00  0.69031579224E+03  0.69031579224E+03  0.00000000000E+00 0.  1.
          1   -1    0    0  501    0  0.00000000000E+00 -0.00000000000E+00 -0.19721996826E+04  0.19721996826E+04  0.00000000000E+00 0. -1.
         23    2    1    2    0    0 -0.51578557440E+03 -0.38427746043E+03  0.31836675143E+03  0.72330313676E+03  0.90033959578E+02 0.  0.
        254    2    1    2    0    0  0.51578557440E+03  0.38427746043E+03 -0.16002506418E+04  0.19392123380E+04  0.88658809502E+03 0.  0.
        -24    2    4    4    0    0  0.56775547091E+03  0.28479987300E+03 -0.45510532999E+03  0.78579391313E+03  0.83029935125E+02 0.  0.
         24    2    4    4    0    0 -0.51969896509E+02  0.99477587428E+02 -0.11451453118E+04  0.11534184249E+04  0.80122514433E+02 0.  0.
         11    1    3    3    0    0 -0.23806154981E+02 -0.46073203565E+02  0.34100551576E+02  0.62067066304E+02  0.00000000000E+00 0. -1.
        -11    1    3    3    0    0 -0.49197941942E+03 -0.33820425687E+03  0.28426619985E+03  0.66123607046E+03  0.00000000000E+00 0.  1.
          4    1    6    6  502    0 -0.30995006128E+01  0.23097241815E+02 -0.58126086097E+02  0.62623728478E+02  0.00000000000E+00 0. -1.
          1    1    5    5  503    0  0.43458338021E+02 -0.62420018868E+00 -0.35540816451E+02  0.56144157340E+02  0.00000000000E+00 0. -1.
         -2    1    5    5    0  503  0.52429713289E+03  0.28542407319E+03 -0.41956451353E+03  0.72964975579E+03  0.00000000000E+00 0.  1.
         -3    1    6    6    0  502 -0.48870395896E+02  0.76380345613E+02 -0.10870192257E+04  0.10907946964E+04  0.00000000000E+00 0.  1.
<mgrwt>
<rscale>  0 0.23336157E+04</rscale>
<asrwt>0</asrwt>
<pdfrwt beam="1">  1        1 0.30341533E+00 0.23336157E+04</pdfrwt>
<pdfrwt beam="2">  1       -1 0.10620243E+00 0.23336157E+04</pdfrwt>
<totfact> 0.23249745E+00</totfact>
</mgrwt>
</event>
<event>
12    1  0.1536832E-007  0.1868598E+04  0.7818608E-02  0.8670647E-01
          2   -1    0    0  501    0  0.00000000000E+00  0.00000000000E+00  0.11460351115E+04  0.11460351115E+04  0.00000000000E+00 0. -1.
         -2   -1    0    0    0  501 -0.00000000000E+00 -0.00000000000E+00 -0.76168252764E+03  0.76168252764E+03  0.00000000000E+00 0.  1.
         23    2    1    2    0    0  0.60363497343E+03  0.21548071411E+03 -0.17739040379E+03  0.67140930004E+03  0.92282032518E+02 0.  0.
        254    2    1    2    0    0 -0.60363497343E+03 -0.21548071411E+03  0.56174298768E+03  0.12363083391E+04  0.89559812743E+03 0.  0.
        -24    2    4    4    0    0 -0.41575277176E+03  0.24556716704E+03  0.11113209032E+02  0.48976170751E+03  0.81175279327E+02 0.  0.
         24    2    4    4    0    0 -0.18788220167E+03 -0.46104788115E+03  0.55062977864E+03  0.74654663160E+03  0.79207636067E+02 0.  0.
         11    1    3    3    0    0  0.13645013689E+03  0.91060879272E+02 -0.48111854146E+02  0.17095459660E+03  0.00000000000E+00 0. -1.
        -11    1    3    3    0    0  0.46718483654E+03  0.12441983484E+03 -0.12927854964E+03  0.50045470344E+03  0.00000000000E+00 0.  1.
          4    1    6    6  502    0  0.71346161663E+01 -0.13728751042E+02  0.10909673612E+02  0.18931516879E+02  0.00000000000E+00 0. -1.
          1    1    5    5  503    0 -0.19571705648E+03  0.10257911094E+03  0.43958493424E+02  0.22529977661E+03  0.00000000000E+00 0. -1.
         -2    1    5    5    0  503 -0.22003571529E+03  0.14298805610E+03 -0.32845284392E+02  0.26446193090E+03  0.00000000000E+00 0.  1.
         -3    1    6    6    0  502 -0.19501681783E+03 -0.44731913011E+03  0.53972010503E+03  0.72761511472E+03  0.00000000000E+00 0.  1.
<mgrwt>
<rscale>  0 0.18685983E+04</rscale>
<asrwt>0</asrwt>
<pdfrwt beam="1">  1        2 0.17631309E+00 0.18685983E+04</pdfrwt>
<pdfrwt beam="2">  1       -2 0.11718193E+00 0.18685983E+04</pdfrwt>
<totfact> 0.10795852E+01</totfact>
</mgrwt>
</event>
<event>
12    1  0.1536832E-007  0.1428847E+04  0.7818608E-02  0.8933199E-01
         -2   -1    0    0    0  501 -0.00000000000E+00  0.00000000000E+00  0.56999115790E+03  0.56999115790E+03  0.00000000000E+00 0.  1.
          2   -1    0    0  501    0  0.00000000000E+00 -0.00000000000E+00 -0.89545361328E+03  0.89545361328E+03  0.00000000000E+00 0. -1.
         23    2    1    2    0    0  0.33104037134E+03  0.10058575387E+03 -0.34823708537E+03  0.49950549182E+03  0.92365834553E+02 0.  0.
        254    2    1    2    0    0 -0.33104037134E+03 -0.10058575387E+03  0.22774629987E+02  0.96593927936E+03  0.90156241398E+03 0.  0.
        -24    2    4    4    0    0 -0.16211826798E+02  0.37798005493E+03  0.45330635725E+01  0.38737729386E+03  0.83119635967E+02 0.  0.
         24    2    4    4    0    0 -0.31482854454E+03 -0.47856580880E+03  0.18241566415E+02  0.57856198550E+03  0.79113655644E+02 0.  0.
         13    1    3    3    0    0  0.29373627546E+02 -0.87345391193E+00 -0.73134501304E+02  0.78817689626E+02  0.00000000000E+00 0.  1.
        -13    1    3    3    0    0  0.30166674379E+03  0.10145920779E+03 -0.27510258406E+03  0.42068780219E+03  0.00000000000E+00 0. -1.
          2    1    6    6  502    0  0.30027133111E+01 -0.18267522003E+02 -0.31865140393E+01  0.18784901360E+02  0.00000000000E+00 0. -1.
          3    1    5    5  503    0 -0.26652309696E+02  0.40712328928E+02 -0.98260323641E+01  0.49642625342E+02  0.00000000000E+00 0. -1.
         -4    1    5    5    0  503  0.10440482898E+02  0.33726772600E+03  0.14359095937E+02  0.33773466852E+03  0.00000000000E+00 0.  1.
         -1    1    6    6    0  502 -0.31783125785E+03 -0.46029828680E+03  0.21428080454E+02  0.55977708414E+03  0.00000000000E+00 0.  1.
<mgrwt>
<rscale>  0 0.14288466E+04</rscale>
<asrwt>0</asrwt>
<pdfrwt beam="1">  1        2 0.13776209E+00 0.14288466E+04</pdfrwt>
<pdfrwt beam="2">  1       -2 0.87690947E-01 0.14288466E+04</pdfrwt>
<totfact> 0.32191081E+01</totfact>
</mgrwt>
</event>
<event>
12    1  0.1536832E-007  0.1581511E+04  0.7818608E-02  0.8831988E-01
         -1   -1    0    0    0  501 -0.00000000000E+00  0.00000000000E+00  0.10439926982E+04  0.10439926982E+04  0.00000000000E+00 0.  1.
          1   -1    0    0  501    0  0.00000000000E+00 -0.00000000000E+00 -0.59894518791E+03  0.59894518791E+03  0.00000000000E+00 0. -1.
         23    2    1    2    0    0  0.46987637207E+03 -0.34433724958E+03 -0.28240409345E+02  0.59041724339E+03  0.91886093077E+02 0.  0.
        254    2    1    2    0    0 -0.46987637207E+03  0.34433724958E+03  0.47328791962E+03  0.10525206427E+04  0.73786604609E+03 0.  0.
        -24    2    4    4    0    0 -0.65584050283E+03  0.32549091754E+03  0.37983760136E+03  0.82905906946E+03  0.83613603544E+02 0.  0.
         24    2    4    4    0    0  0.18596413076E+03  0.18846332033E+02  0.93450318253E+02  0.22346157323E+03  0.79147145055E+02 0.  0.
         13    1    3    3    0    0  0.21267311303E+03 -0.18693874385E+03  0.24830777500E+02  0.28424024076E+03  0.00000000000E+00 0. -1.
        -13    1    3    3    0    0  0.25720325904E+03 -0.15739850572E+03 -0.53071186846E+02  0.30617700263E+03  0.00000000000E+00 0.  1.
          2    1    6    6  502    0  0.17331191710E+03  0.56490367698E+01  0.10415088019E+03  0.20227787341E+03  0.00000000000E+00 0. -1.
          1    1    5    5  503    0 -0.20621877135E+03  0.14490086080E+03  0.11777331749E+03  0.27819596587E+03  0.00000000000E+00 0. -1.
         -2    1    5    5    0  503 -0.44962173148E+03  0.18059005675E+03  0.26206428388E+03  0.55086310359E+03  0.00000000000E+00 0.  1.
         -1    1    6    6    0  502  0.12652213654E+02  0.13197295263E+02 -0.10700561933E+02  0.21183699825E+02  0.00000000000E+00 0.  1.
<mgrwt>
<rscale>  0 0.15815112E+04</rscale>
<asrwt>0</asrwt>
<pdfrwt beam="1">  1        1 0.92145414E-01 0.15815112E+04</pdfrwt>
<pdfrwt beam="2">  1       -1 0.16061426E+00 0.15815112E+04</pdfrwt>
<totfact> 0.95398739E+00</totfact>
</mgrwt>
</event>
<event>
12    1  0.1536832E-007  0.2530015E+04  0.7818608E-02  0.8392370E-01
         -1   -1    0    0    0  501 -0.00000000000E+00  0.00000000000E+00  0.11718841454E+04  0.11718841454E+04  0.00000000000E+00 0. -1.
          1   -1    0    0  501    0  0.00000000000E+00 -0.00000000000E+00 -0.13655305417E+04  0.13655305417E+04  0.00000000000E+00 0.  1.
         23    2    1    2    0    0  0.82498534264E+02  0.10587067271E+04  0.20894104631E+03  0.10860074709E+04  0.89944003466E+02 0.  0.
        254    2    1    2    0    0 -0.82498534264E+02 -0.10587067271E+04 -0.40258744264E+03  0.14514072162E+04  0.90379218633E+03 0.  0.
        -24    2    4    4    0    0 -0.10334224742E+03 -0.23927690401E+03 -0.55044954962E+03  0.61462573559E+03  0.82686342760E+02 0.  0.
         24    2    4    4    0    0  0.20843713158E+02 -0.81942982310E+03  0.14786210698E+03  0.83678148061E+03  0.80251780276E+02 0.  0.
         11    1    3    3    0    0  0.60711790368E+02  0.97848161661E+03  0.21116311000E+03  0.10028469746E+04  0.00000000000E+00 0. -1.
        -11    1    3    3    0    0  0.21786743897E+02  0.80225110507E+02 -0.22220636904E+01  0.83160496226E+02  0.00000000000E+00 0.  1.
          2    1    6    6  502    0  0.28173417995E+02 -0.76287815583E+03  0.15601344447E+03  0.77917714095E+03  0.00000000000E+00 0. -1.
          3    1    5    5  503    0 -0.58957230850E+02 -0.17936013319E+03 -0.31088064659E+03  0.36372075672E+03  0.00000000000E+00 0. -1.
         -4    1    5    5    0  503 -0.44385016572E+02 -0.59916770824E+02 -0.23956890303E+03  0.25090497887E+03  0.00000000000E+00 0.  1.
         -3    1    6    6    0  502 -0.73297048376E+01 -0.56551667272E+02 -0.81513374912E+01  0.57604339655E+02  0.00000000000E+00 0.  1.
<mgrwt>
<rscale>  0 0.25300147E+04</rscale>
<asrwt>0</asrwt>
<pdfrwt beam="1">  1        1 0.21008162E+00 0.25300147E+04</pdfrwt>
<pdfrwt beam="2">  1       -1 0.18028987E+00 0.25300147E+04</pdfrwt>
<totfact> 0.14912351E+00</totfact>
</mgrwt>
</event>
<event>
12    1  0.1536832E-007  0.1316768E+04  0.7818608E-02  0.9016372E-01
          1   -1    0    0  501    0  0.00000000000E+00  0.00000000000E+00  0.88265717433E+03  0.88265717433E+03  0.00000000000E+00 0. -1.
         -1   -1    0    0    0  501 -0.00000000000E+00 -0.00000000000E+00 -0.49109632220E+03  0.49109632220E+03  0.00000000000E+00 0.  1.
         23    2    1    2    0    0  0.12017642728E+03  0.22424270645E+03  0.35033202254E+03  0.44207077109E+03  0.89257355811E+02 0.  0.
        254    2    1    2    0    0 -0.12017642728E+03 -0.22424270645E+03  0.41228829596E+02  0.93168272544E+03  0.89532436548E+03 0.  0.
        -24    2    4    4    0    0  0.25364871724E+03  0.12839715666E+03 -0.20194139578E+03  0.35743022919E+03  0.78438127304E+02 0.  0.
         24    2    4    4    0    0 -0.37382514452E+03 -0.35263986311E+03  0.24317022537E+03  0.57425249625E+03  0.80833527775E+02 0.  0.
         11    1    3    3    0    0  0.10470500903E+03  0.20997660877E+03  0.26394622671E+03  0.35315849946E+03  0.00000000000E+00 0. -1.
        -11    1    3    3    0    0  0.15471418255E+02  0.14266097682E+02  0.86385795830E+02  0.88912271634E+02  0.00000000000E+00 0.  1.
          2    1    6    6  502    0 -0.62577131678E+02 -0.87966161375E+02  0.23912897219E+02  0.11057020218E+03  0.00000000000E+00 0. -1.
          3    1    5    5  503    0  0.17204948962E+03  0.50639998424E+02 -0.99397062925E+02  0.20504929270E+03  0.00000000000E+00 0. -1.
         -4    1    5    5    0  503  0.81599227615E+02  0.77757158239E+02 -0.10254433285E+03  0.15238093649E+03  0.00000000000E+00 0.  1.
         -1    1    6    6    0  502 -0.31124801284E+03 -0.26467370174E+03  0.21925732815E+03  0.46368229407E+03  0.00000000000E+00 0.  1.
<mgrwt>
<rscale>  0 0.13167683E+04</rscale>
<asrwt>0</asrwt>
<pdfrwt beam="1">  1        1 0.13579341E+00 0.13167683E+04</pdfrwt>
<pdfrwt beam="2">  1       -1 0.75553280E-01 0.13167683E+04</pdfrwt>
<totfact> 0.32500131E+01</totfact>
</mgrwt>
</event>
<event>
12    1  0.1571770E-007  0.2493304E+04  0.7818608E-02  0.8405375E-01
          2   -1    0    0  501    0  0.00000000000E+00  0.00000000000E+00  0.14325704024E+04  0.14325704024E+04  0.00000000000E+00 0. -1.
         -2   -1    0    0    0  501 -0.00000000000E+00 -0.00000000000E+00 -0.10848621785E+04  0.10848621785E+04  0.00000000000E+00 0.  1.
         23    2    1    2    0    0 -0.61839526182E+03  0.23100042981E+03 -0.71145652870E+03  0.97479062299E+03  0.90953108979E+02 0.  0.
        254    2    1    2    0    0  0.61839526182E+03 -0.23100042981E+03  0.10591647526E+04  0.15426419579E+04  0.90671954800E+03 0.  0.
        -24    2    4    4    0    0  0.66445694077E+03 -0.45136077777E+03  0.10168552359E+04  0.12983042382E+04  0.79810690566E+02 0.  0.
         24    2    4    4    0    0 -0.46061678945E+02  0.22036034796E+03  0.42309516686E+02  0.24433771968E+03  0.85032140019E+02 0.  0.
         13    1    3    3    0    0 -0.55830265995E+03  0.22726246830E+03 -0.61546829637E+03  0.86148204476E+03  0.00000000000E+00 0.  1.
        -13    1    3    3    0    0 -0.60092601871E+02  0.37379615090E+01 -0.95988232331E+02  0.11330857824E+03  0.00000000000E+00 0. -1.
          2    1    6    6  502    0 -0.21401370611E+02  0.11812380705E+02 -0.12282225239E+02  0.27356974591E+02  0.00000000000E+00 0. -1.
          1    1    5    5  503    0  0.60141103386E+02 -0.43183023025E+02  0.60391386251E+02  0.95544991116E+02  0.00000000000E+00 0. -1.
         -2    1    5    5    0  503  0.60431583738E+03 -0.40817775474E+03  0.95646384968E+03  0.12027592471E+04  0.00000000000E+00 0.  1.
         -1    1    6    6    0  502 -0.24660308335E+02  0.20854796726E+03  0.54591741925E+02  0.21698074509E+03  0.00000000000E+00 0.  1.
<mgrwt>
<rscale>  0 0.24933042E+04</rscale>
<asrwt>0</asrwt>
<pdfrwt beam="1">  1        2 0.22039545E+00 0.24933042E+04</pdfrwt>
<pdfrwt beam="2">  1       -2 0.16690187E+00 0.24933042E+04</pdfrwt>
<totfact> 0.27753193E+00</totfact>
</mgrwt>
</event>
<event>
12    1  0.1536832E-007  0.2466905E+04  0.7818608E-02  0.8414872E-01
          1   -1    0    0  501    0  0.00000000000E+00  0.00000000000E+00  0.12084956958E+04  0.12084956958E+04  0.00000000000E+00 0. -1.
         -1   -1    0    0    0  501 -0.00000000000E+00 -0.00000000000E+00 -0.12589243633E+04  0.12589243633E+04  0.00000000000E+00 0.  1.
         23    2    1    2    0    0  0.27525831304E+03 -0.16963398531E+03  0.99246284462E+03  0.10479486809E+04  0.93118805982E+02 0.  0.
        254    2    1    2    0    0 -0.27525831304E+03  0.16963398531E+03 -0.10428915121E+04  0.14194713782E+04  0.90704655863E+03 0.  0.
        -24    2    4    4    0    0  0.30412586839E+02  0.45320781162E+03 -0.26154096758E+03  0.53023199423E+03  0.80125177209E+02 0.  0.
         24    2    4    4    0    0 -0.30567089988E+03 -0.28357382631E+03 -0.78135054452E+03  0.88923938393E+03  0.79932437130E+02 0.  0.
         11    1    3    3    0    0  0.57251738650E+02 -0.14030788751E+02  0.99174731932E+02  0.11537006572E+03  0.00000000000E+00 0.  1.
        -11    1    3    3    0    0  0.21800657439E+03 -0.15560319656E+03  0.89328811269E+03  0.93257861520E+03  0.00000000000E+00 0. -1.
          4    1    6    6  502    0 -0.13326371495E+03 -0.16681549600E+03 -0.34442886318E+03  0.40523804019E+03  0.00000000000E+00 0. -1.
          1    1    5    5  503    0 -0.78384428589E+01  0.18034556755E+03 -0.14295836559E+03  0.23026736463E+03  0.00000000000E+00 0. -1.
         -2    1    5    5    0  503  0.38251029698E+02  0.27286224407E+03 -0.11858260199E+03  0.29996462960E+03  0.00000000000E+00 0.  1.
         -3    1    6    6    0  502 -0.17240718493E+03 -0.11675833031E+03 -0.43692168135E+03  0.48400134374E+03  0.00000000000E+00 0.  1.
<mgrwt>
<rscale>  0 0.24669047E+04</rscale>
<asrwt>0</asrwt>
<pdfrwt beam="1">  1        1 0.18592242E+00 0.24669047E+04</pdfrwt>
<pdfrwt beam="2">  1       -1 0.19368067E+00 0.24669047E+04</pdfrwt>
<totfact> 0.15627854E+00</totfact>
</mgrwt>
</event>
<event>
12    1  0.1536832E-007  0.1379666E+04  0.7818608E-02  0.8968670E-01
         -1   -1    0    0    0  501 -0.00000000000E+00  0.00000000000E+00  0.39895271518E+03  0.39895271518E+03  0.00000000000E+00 0.  1.
          1   -1    0    0  501    0  0.00000000000E+00 -0.00000000000E+00 -0.11927965603E+04  0.11927965603E+04  0.00000000000E+00 0. -1.
         23    2    1    2    0    0 -0.25685708720E+03  0.21476980846E+03 -0.45619675036E+03  0.57328509022E+03  0.91862319609E+02 0.  0.
        254    2    1    2    0    0  0.25685708720E+03 -0.21476980846E+03 -0.33764709472E+03  0.10184641852E+04  0.90064538090E+03 0.  0.
        -24    2    4    4    0    0 -0.32903607390E+03 -0.23407661964E+02 -0.12997287811E+03  0.36345870563E+03  0.79978904004E+02 0.  0.
         24    2    4    4    0    0  0.58589316111E+03 -0.19136214649E+03 -0.20767421661E+03  0.65500547959E+03  0.77545668524E+02 0.  0.
         11    1    3    3    0    0 -0.30654353293E+02  0.23057510126E+02 -0.13911747054E+02  0.40802878025E+02  0.00000000000E+00 0.  1.
        -11    1    3    3    0    0 -0.22620273391E+03  0.19171229833E+03 -0.44228500330E+03  0.53248221220E+03  0.00000000000E+00 0. -1.
          2    1    6    6  502    0  0.47251492786E+03 -0.16157006423E+03 -0.13584421730E+03  0.51752187788E+03  0.00000000000E+00 0. -1.
          1    1    5    5  503    0 -0.33308768672E+03 -0.26249243109E+02 -0.12591452170E+03  0.35705867387E+03  0.00000000000E+00 0. -1.
         -2    1    5    5    0  503  0.40516128179E+01  0.28415811451E+01 -0.40583564043E+01  0.64000317604E+01  0.00000000000E+00 0.  1.
         -1    1    6    6    0  502  0.11337823325E+03 -0.29792082262E+02 -0.71829999309E+02  0.13748360171E+03  0.00000000000E+00 0.  1.
<mgrwt>
<rscale>  0 0.13796658E+04</rscale>
<asrwt>0</asrwt>
<pdfrwt beam="1">  1        1 0.18350716E+00 0.13796658E+04</pdfrwt>
<pdfrwt beam="2">  1       -1 0.61377342E-01 0.13796658E+04</pdfrwt>
<totfact> 0.28438728E+01</totfact>
</mgrwt>
</event>
<event>
12    1  0.1536832E-007  0.1777402E+04  0.7818608E-02  0.8718410E-01
         -2   -1    0    0    0  501 -0.00000000000E+00  0.00000000000E+00  0.34594770817E+03  0.34594770817E+03  0.00000000000E+00 0.  1.
          2   -1    0    0  501    0  0.00000000000E+00 -0.00000000000E+00 -0.22829745369E+04  0.22829745369E+04  0.00000000000E+00 0. -1.
         23    2    1    2    0    0 -0.44407645844E+03 -0.34453591273E+03 -0.21181377247E+03  0.60769321562E+03  0.92287994850E+02 0.  0.
        254    2    1    2    0    0  0.44407645844E+03  0.34453591273E+03 -0.17252130563E+04  0.20212290294E+04  0.89056038757E+03 0.  0.
        -24    2    4    4    0    0  0.47600022205E+03 -0.11142877879E+03 -0.47028547269E+03  0.68329775249E+03  0.82065879648E+02 0.  0.
         24    2    4    4    0    0 -0.31923763612E+02  0.45596469152E+03 -0.12549275836E+04  0.13379312770E+04  0.79334325910E+02 0.  0.
         11    1    3    3    0    0 -0.35594764466E+03 -0.29977469495E+03 -0.14153509441E+03  0.48641111872E+03  0.00000000000E+00 0.  1.
        -11    1    3    3    0    0 -0.88128813785E+02 -0.44761217783E+02 -0.70278678062E+02  0.12128209689E+03  0.00000000000E+00 0. -1.
          2    1    6    6  502    0 -0.29270608306E+02  0.22208521131E+03 -0.72160775064E+03  0.75557683618E+03  0.00000000000E+00 0. -1.
          1    1    5    5  503    0  0.25169838523E+03 -0.18521585529E+02 -0.22363103694E+03  0.33720315381E+03  0.00000000000E+00 0. -1.
         -4    1    5    5    0  503  0.22430183682E+03 -0.92907193256E+02 -0.24665443575E+03  0.34609459868E+03  0.00000000000E+00 0.  1.
         -1    1    6    6    0  502 -0.26531553059E+01  0.23387948021E+03 -0.53331983293E+03  0.58235444077E+03  0.00000000000E+00 0.  1.
<mgrwt>
<rscale>  0 0.17774024E+04</rscale>
<asrwt>0</asrwt>
<pdfrwt beam="1">  1        2 0.35122686E+00 0.17774024E+04</pdfrwt>
<pdfrwt beam="2">  1       -2 0.53222723E-01 0.17774024E+04</pdfrwt>
<totfact> 0.14599571E+01</totfact>
</mgrwt>
</event>
<event>
12    1  0.1536832E-007  0.1985397E+04  0.7818608E-02  0.8613479E-01
          1   -1    0    0  501    0  0.00000000000E+00  0.00000000000E+00  0.44503587923E+03  0.44503587923E+03  0.00000000000E+00 0. -1.
         -1   -1    0    0    0  501 -0.00000000000E+00 -0.00000000000E+00 -0.22143156776E+04  0.22143156776E+04  0.00000000000E+00 0.  1.
         23    2    1    2    0    0 -0.59592267668E+02  0.76713398192E+03 -0.91256723121E+03  0.11971916504E+04  0.91886406922E+02 0.  0.
        254    2    1    2    0    0  0.59592267668E+02 -0.76713398192E+03 -0.85671256713E+03  0.14621599064E+04  0.90106014481E+03 0.  0.
        -24    2    4    4    0    0  0.29704632292E+03 -0.30905154684E+03 -0.83244636589E+03  0.93950361960E+03  0.77140926882E+02 0.  0.
         24    2    4    4    0    0 -0.23745405525E+03 -0.45808243508E+03 -0.24266201239E+02  0.52265628678E+03  0.79729542211E+02 0.  0.
         11    1    3    3    0    0 -0.16373899781E+02  0.23849589693E+02 -0.49711743940E+02  0.57516649834E+02  0.00000000000E+00 0. -1.
        -11    1    3    3    0    0 -0.43218367887E+02  0.74328439223E+03 -0.86285548727E+03  0.11396750006E+04  0.00000000000E+00 0.  1.
          2    1    6    6  502    0 -0.24136091993E+02 -0.68933036659E+02 -0.29693781936E+02  0.78841836390E+02  0.00000000000E+00 0. -1.
          3    1    5    5  503    0  0.32935806866E+01 -0.18889725080E+02 -0.68283410684E+02  0.70924562473E+02  0.00000000000E+00 0. -1.
         -4    1    5    5    0  503  0.29375274223E+03 -0.29016182176E+03 -0.76416295521E+03  0.86857905713E+03  0.00000000000E+00 0.  1.
         -1    1    6    6    0  502 -0.21331796326E+03 -0.38914939842E+03  0.54275806977E+01  0.44381445039E+03  0.00000000000E+00 0.  1.
<mgrwt>
<rscale>  0 0.19853966E+04</rscale>
<asrwt>0</asrwt>
<pdfrwt beam="1">  1        1 0.68467059E-01 0.19853966E+04</pdfrwt>
<pdfrwt beam="2">  1       -1 0.34066395E+00 0.19853966E+04</pdfrwt>
<totfact> 0.86606875E-01</totfact>
</mgrwt>
</event>
<event>
12    1  0.1536832E-007  0.1448926E+04  0.7818608E-02  0.8919146E-01
          1   -1    0    0  501    0  0.00000000000E+00  0.00000000000E+00  0.93180820586E+03  0.93180820586E+03  0.00000000000E+00 0. -1.
         -1   -1    0    0    0  501 -0.00000000000E+00 -0.00000000000E+00 -0.56325576412E+03  0.56325576412E+03  0.00000000000E+00 0.  1.
         23    2    1    2    0    0 -0.24951781181E+03 -0.23998534072E+03  0.38975485525E+03  0.52929675370E+03  0.91619343621E+02 0.  0.
        254    2    1    2    0    0  0.24951781181E+03  0.23998534072E+03 -0.21202413502E+02  0.96576721628E+03  0.90133493859E+03 0.  0.
        -24    2    4    4    0    0  0.69882772191E+02 -0.30688428813E+03  0.15363093868E+03  0.35897374917E+03  0.78728134273E+02 0.  0.
         24    2    4    4    0    0  0.17963503962E+03  0.54686962884E+03 -0.17483335218E+03  0.60679346710E+03  0.79350313649E+02 0.  0.
         11    1    3    3    0    0 -0.25575278802E+03 -0.22237617711E+03  0.37528723834E+03  0.50566902613E+03  0.00000000000E+00 0. -1.
        -11    1    3    3    0    0  0.62349762133E+01 -0.17609163612E+02  0.14467616909E+02  0.23627727579E+02  0.00000000000E+00 0.  1.
          4    1    6    6  502    0  0.17913352028E+01  0.91407492227E+02 -0.16950879479E+02  0.92983174995E+02  0.00000000000E+00 0. -1.
          1    1    5    5  503    0  0.25376626409E+02 -0.34708189321E+02 -0.57370804100E+00  0.42999543192E+02  0.00000000000E+00 0. -1.
         -2    1    5    5    0  503  0.44506145782E+02 -0.27217609880E+03  0.15420464672E+03  0.31597420598E+03  0.00000000000E+00 0.  1.
         -3    1    6    6    0  502  0.17784370442E+03  0.45546213662E+03 -0.15788247270E+03  0.51381029211E+03  0.00000000000E+00 0.  1.
<mgrwt>
<rscale>  0 0.14489256E+04</rscale>
<asrwt>0</asrwt>
<pdfrwt beam="1">  1        1 0.14335511E+00 0.14489256E+04</pdfrwt>
<pdfrwt beam="2">  1       -1 0.86654733E-01 0.14489256E+04</pdfrwt>
<totfact> 0.21865776E+01</totfact>
</mgrwt>
</event>
<event>
12    1  0.1536832E-007  0.2054645E+04  0.7818608E-02  0.8581490E-01
          2   -1    0    0  501    0  0.00000000000E+00  0.00000000000E+00  0.13862777384E+04  0.13862777384E+04  0.00000000000E+00 0. -1.
         -2   -1    0    0    0  501 -0.00000000000E+00 -0.00000000000E+00 -0.76131337915E+03  0.76131337915E+03  0.00000000000E+00 0.  1.
         23    2    1    2    0    0 -0.63236205280E+03  0.48602907520E+03  0.14787919340E+03  0.81751940523E+03  0.10180223143E+03 0.  0.
        254    2    1    2    0    0  0.63236205280E+03 -0.48602907520E+03  0.47708516584E+03  0.13300717123E+04  0.95151167973E+03 0.  0.
        -24    2    4    4    0    0  0.53112429835E+03 -0.66482055820E+03  0.57966525426E+02  0.85680590955E+03  0.81712016652E+02 0.  0.
         24    2    4    4    0    0  0.10123775445E+03  0.17879148301E+03  0.41911864041E+03  0.47326580276E+03  0.78131990887E+02 0.  0.
         13    1    3    3    0    0 -0.46247728818E+03  0.36582592108E+03  0.15353424741E+03  0.60933292357E+03  0.00000000000E+00 0.  1.
        -13    1    3    3    0    0 -0.16988476462E+03  0.12020315412E+03 -0.56550540118E+01  0.20818648166E+03  0.00000000000E+00 0. -1.
          4    1    6    6  502    0  0.50369148342E+02  0.26653252827E+02  0.14290347596E+03  0.15384684083E+03  0.00000000000E+00 0. -1.
          3    1    5    5  503    0  0.40578441500E+03 -0.46617003665E+03  0.16334329095E+02  0.61825747455E+03  0.00000000000E+00 0. -1.
         -4    1    5    5    0  503  0.12533988335E+03 -0.19865052155E+03  0.41632196331E+02  0.23854843500E+03  0.00000000000E+00 0.  1.
         -3    1    6    6    0  502  0.50868606111E+02  0.15213823018E+03  0.27621516445E+03  0.31941896193E+03  0.00000000000E+00 0.  1.
<mgrwt>
<rscale>  0 0.20546453E+04</rscale>
<asrwt>0</asrwt>
<pdfrwt beam="1">  1        2 0.21327350E+00 0.20546453E+04</pdfrwt>
<pdfrwt beam="2">  1       -2 0.11712513E+00 0.20546453E+04</pdfrwt>
<totfact> 0.76856760E+00</totfact>
</mgrwt>
</event>
<event>
12    1  0.1536832E-007  0.1476523E+04  0.7818608E-02  0.8900217E-01
         -2   -1    0    0    0  501 -0.00000000000E+00  0.00000000000E+00  0.30941706786E+03  0.30941706786E+03  0.00000000000E+00 0. -1.
          2   -1    0    0  501    0  0.00000000000E+00 -0.00000000000E+00 -0.17614729980E+04  0.17614729980E+04  0.00000000000E+00 0.  1.
         23    2    1    2    0    0  0.76523766994E+02  0.37830240063E+03 -0.12694706798E+03  0.42199311744E+03  0.11399140261E+03 0.  0.
        254    2    1    2    0    0 -0.76523766994E+02 -0.37830240063E+03 -0.13251088622E+04  0.16488969484E+04  0.90220787887E+03 0.  0.
        -24    2    4    4    0    0  0.59729100067E+02  0.41758884095E+02  0.10466766772E+03  0.15058237926E+03  0.80052248455E+02 0.  0.
         24    2    4    4    0    0 -0.13625286706E+03 -0.42006128472E+03 -0.14297765299E+04  0.14983145692E+04  0.75294727760E+02 0.  0.
         11    1    3    3    0    0 -0.15629514401E+02  0.15070867117E+03 -0.15389233578E+02  0.15229646679E+03  0.00000000000E+00 0. -1.
        -11    1    3    3    0    0  0.92153281395E+02  0.22759372946E+03 -0.11155783440E+03  0.26969665066E+03  0.00000000000E+00 0.  1.
          4    1    6    6  502    0 -0.75149346111E+02 -0.16510028166E+03 -0.69026500165E+03  0.71370252888E+03  0.00000000000E+00 0. -1.
          1    1    5    5  503    0  0.51128322805E+02  0.30523533685E+02  0.11734214253E+03  0.13158635915E+03  0.00000000000E+00 0. -1.
         -2    1    5    5    0  503  0.86007772621E+01  0.11235350410E+02 -0.12674474809E+02  0.18996020110E+02  0.00000000000E+00 0.  1.
         -3    1    6    6    0  502 -0.61103520950E+02 -0.25496100306E+03 -0.73951152827E+03  0.78461204031E+03  0.00000000000E+00 0.  1.
<mgrwt>
<rscale>  0 0.14765227E+04</rscale>
<asrwt>0</asrwt>
<pdfrwt beam="1">  1        2 0.27099585E+00 0.14765227E+04</pdfrwt>
<pdfrwt beam="2">  1       -2 0.47602625E-01 0.14765227E+04</pdfrwt>
<totfact> 0.36687532E+01</totfact>
</mgrwt>
</event>
<event>
12    1  0.1536832E-007  0.1142694E+04  0.7818608E-02  0.9164550E-01
          1   -1    0    0  501    0  0.00000000000E+00  0.00000000000E+00  0.14638082766E+04  0.14638082766E+04  0.00000000000E+00 0. -1.
         -1   -1    0    0    0  501 -0.00000000000E+00 -0.00000000000E+00 -0.22300554103E+03  0.22300554103E+03  0.00000000000E+00 0.  1.
         23    2    1    2    0    0 -0.13873713190E+03 -0.12203359475E+03  0.21775827764E+03  0.30698181490E+03  0.11260096441E+03 0.  0.
        254    2    1    2    0    0  0.13873713190E+03  0.12203359475E+03  0.10230444579E+04  0.13798320027E+04  0.90729058344E+03 0.  0.
        -24    2    4    4    0    0 -0.38910944234E+02 -0.52821742246E+02 -0.14740693175E+03  0.18050322106E+03  0.80922254354E+02 0.  0.
         24    2    4    4    0    0  0.17764807613E+03  0.17485533700E+03  0.11704513896E+04  0.11993287816E+04  0.79371550944E+02 0.  0.
         13    1    3    3    0    0 -0.43242403603E+01 -0.21789208517E+02 -0.98320293179E+01  0.24292745069E+02  0.00000000000E+00 0.  1.
        -13    1    3    3    0    0 -0.13441289154E+03 -0.10024438624E+03  0.22759030695E+03  0.28268906983E+03  0.00000000000E+00 0. -1.
          4    1    6    6  502    0  0.80236652283E+02  0.80069272072E+02  0.71835885590E+03  0.72724717569E+03  0.00000000000E+00 0. -1.
          1    1    5    5  503    0 -0.15796551672E+02 -0.55632828350E+02 -0.14615958198E+03  0.15718513301E+03  0.00000000000E+00 0. -1.
         -2    1    5    5    0  503 -0.23114392562E+02  0.28110861039E+01 -0.12473497643E+01  0.23318088044E+02  0.00000000000E+00 0.  1.
         -3    1    6    6    0  502  0.97411423849E+02  0.94786064928E+02  0.45209253375E+03  0.47208160594E+03  0.00000000000E+00 0.  1.
<mgrwt>
<rscale>  0 0.11426939E+04</rscale>
<asrwt>0</asrwt>
<pdfrwt beam="1">  1        1 0.22520127E+00 0.11426939E+04</pdfrwt>
<pdfrwt beam="2">  1       -1 0.34308546E-01 0.11426939E+04</pdfrwt>
<totfact> 0.55377779E+01</totfact>
</mgrwt>
</event>
<event>
12    1  0.1536832E-007  0.1394050E+04  0.7818608E-02  0.8958137E-01
          1   -1    0    0  501    0  0.00000000000E+00  0.00000000000E+00  0.18973200648E+03  0.18973200648E+03  0.00000000000E+00 0. -1.
         -1   -1    0    0    0  501 -0.00000000000E+00 -0.00000000000E+00 -0.25606838152E+04  0.25606838152E+04  0.00000000000E+00 0.  1.
         23    2    1    2    0    0  0.14671328519E+03 -0.34830961046E+03 -0.89666142585E+03  0.97733832751E+03  0.91346160376E+02 0.  0.
        254    2    1    2    0    0 -0.14671328519E+03  0.34830961046E+03 -0.14742903829E+04  0.17730774942E+04  0.90963030652E+03 0.  0.
        -24    2    4    4    0    0  0.29646905438E+03  0.40770344303E+03 -0.95753521163E+03  0.10849493839E+04  0.78265487142E+02 0.  0.
         24    2    4    4    0    0 -0.44318233957E+03 -0.59393832570E+02 -0.51675517124E+03  0.68812811026E+03  0.80908440059E+02 0.  0.
         13    1    3    3    0    0  0.14148720228E+03 -0.31033739792E+03 -0.72180112105E+03  0.79832624115E+03  0.00000000000E+00 0.  1.
        -13    1    3    3    0    0  0.52260829152E+01 -0.37972212542E+02 -0.17486030481E+03  0.17901208637E+03  0.00000000000E+00 0. -1.
          4    1    6    6  502    0 -0.36400053610E+03 -0.78510828390E+02 -0.41026229442E+03  0.55405368935E+03  0.00000000000E+00 0. -1.
          1    1    5    5  503    0  0.26243020443E+03  0.38890829284E+03 -0.85460970487E+03  0.97492410991E+03  0.00000000000E+00 0. -1.
         -2    1    5    5    0  503  0.34038849951E+02  0.18795150195E+02 -0.10292550676E+03  0.11002527400E+03  0.00000000000E+00 0.  1.
         -3    1    6    6    0  502 -0.79181803470E+02  0.19116995821E+02 -0.10649287682E+03  0.13407442091E+03  0.00000000000E+00 0.  1.
<mgrwt>
<rscale>  0 0.13940498E+04</rscale>
<asrwt>0</asrwt>
<pdfrwt beam="1">  1        1 0.29189541E-01 0.13940498E+04</pdfrwt>
<pdfrwt beam="2">  1       -1 0.39395134E+00 0.13940498E+04</pdfrwt>
<totfact> 0.12343097E+00</totfact>
</mgrwt>
</event>
<event>
12    1  0.1536832E-007  0.1449936E+04  0.7818608E-02  0.8918445E-01
          1   -1    0    0  501    0  0.00000000000E+00  0.00000000000E+00  0.10739930433E+04  0.10739930433E+04  0.00000000000E+00 0. -1.
         -1   -1    0    0    0  501 -0.00000000000E+00 -0.00000000000E+00 -0.48936860548E+03  0.48936860548E+03  0.00000000000E+00 0.  1.
         23    2    1    2    0    0  0.28906499006E+03  0.10503385997E+03  0.51211445376E+03  0.60422900963E+03  0.90778863781E+02 0.  0.
        254    2    1    2    0    0 -0.28906499006E+03 -0.10503385997E+03  0.72509984111E+02  0.95913263921E+03  0.90558657321E+03 0.  0.
        -24    2    4    4    0    0 -0.51116593062E+03 -0.23963549527E+03  0.26348436265E+03  0.62810057734E+03  0.79815704363E+02 0.  0.
         24    2    4    4    0    0  0.22210094057E+03  0.13460163530E+03 -0.19097437854E+03  0.33103206187E+03  0.75263435346E+02 0.  0.
         11    1    3    3    0    0  0.18914069864E+03  0.10868334320E+03  0.38493261393E+03  0.44244704795E+03  0.00000000000E+00 0. -1.
        -11    1    3    3    0    0  0.99924291415E+02 -0.36494832215E+01  0.12718183982E+03  0.16178196168E+03  0.00000000000E+00 0.  1.
          2    1    6    6  502    0  0.93125194280E+02  0.92920809862E+02 -0.11984409201E+03  0.17795838026E+03  0.00000000000E+00 0. -1.
          3    1    5    5  503    0 -0.39117824841E+03 -0.21914507644E+03  0.21089320490E+03  0.49550068661E+03  0.00000000000E+00 0. -1.
         -4    1    5    5    0  503 -0.11998768221E+03 -0.20490418830E+02  0.52591157755E+02  0.13259989073E+03  0.00000000000E+00 0.  1.
         -1    1    6    6    0  502  0.12897574629E+03  0.41680825437E+02 -0.71130286534E+02  0.15307368161E+03  0.00000000000E+00 0.  1.
<mgrwt>
<rscale>  0 0.14499358E+04</rscale>
<asrwt>0</asrwt>
<pdfrwt beam="1">  1        1 0.16522970E+00 0.14499358E+04</pdfrwt>
<pdfrwt beam="2">  1       -1 0.75287478E-01 0.14499358E+04</pdfrwt>
<totfact> 0.22857609E+01</totfact>
</mgrwt>
</event>
<event>
12    1  0.1536832E-007  0.1478831E+04  0.7818608E-02  0.8898653E-01
         -2   -1    0    0    0  501 -0.00000000000E+00  0.00000000000E+00  0.12812907837E+04  0.12812907837E+04  0.00000000000E+00 0.  1.
          2   -1    0    0  501    0  0.00000000000E+00 -0.00000000000E+00 -0.42670672645E+03  0.42670672645E+03  0.00000000000E+00 0. -1.
         23    2    1    2    0    0  0.33920094346E+03 -0.24077667326E+03  0.49989281223E+03  0.65635893171E+03  0.88789284751E+02 0.  0.
        254    2    1    2    0    0 -0.33920094346E+03  0.24077667326E+03  0.35469124499E+03  0.10516385784E+04  0.89839141465E+03 0.  0.
        -24    2    4    4    0    0 -0.16601004042E+03 -0.16860823758E+03 -0.21044618404E+03  0.32820006954E+03  0.86253220067E+02 0.  0.
         24    2    4    4    0    0 -0.17319090304E+03  0.40938491083E+03  0.56513742903E+03  0.72343850887E+03  0.79949160816E+02 0.  0.
         13    1    3    3    0    0  0.31180187459E+03 -0.24627453292E+03  0.46980929227E+03  0.61529856628E+03  0.00000000000E+00 0.  1.
        -13    1    3    3    0    0  0.27399068868E+02  0.54978596679E+01  0.30083519957E+02  0.41060365425E+02  0.00000000000E+00 0. -1.
          2    1    6    6  502    0 -0.17513484428E+02  0.98601878154E+02  0.16880149214E+03  0.19627275985E+03  0.00000000000E+00 0. -1.
          1    1    5    5  503    0 -0.12368413917E+03 -0.65429108187E+02 -0.12627181848E+03  0.18847627602E+03  0.00000000000E+00 0. -1.
         -2    1    5    5    0  503 -0.42325901242E+02 -0.10317912939E+03 -0.84174365562E+02  0.13972379352E+03  0.00000000000E+00 0.  1.
         -1    1    6    6    0  502 -0.15567741861E+03  0.31078303268E+03  0.39633593689E+03  0.52716574902E+03  0.00000000000E+00 0.  1.
<mgrwt>
<rscale>  0 0.14788312E+04</rscale>
<asrwt>0</asrwt>
<pdfrwt beam="1">  1        2 0.65647189E-01 0.14788312E+04</pdfrwt>
<pdfrwt beam="2">  1       -2 0.19712166E+00 0.14788312E+04</pdfrwt>
<totfact> 0.99258494E+00</totfact>
</mgrwt>
</event>
<event>
12    1  0.1536832E-007  0.1768935E+04  0.7818608E-02  0.8722996E-01
         -2   -1    0    0    0  501 -0.00000000000E+00  0.00000000000E+00  0.12014547362E+04  0.12014547362E+04  0.00000000000E+00 0.  1.
          2   -1    0    0  501    0  0.00000000000E+00 -0.00000000000E+00 -0.65111301907E+03  0.65111301907E+03  0.00000000000E+00 0. -1.
         23    2    1    2    0    0  0.45343534923E+03 -0.43081024713E+03  0.21148283997E+02  0.63231649439E+03  0.90420209019E+02 0.  0.
        254    2    1    2    0    0 -0.45343534923E+03  0.43081024713E+03  0.52919343318E+03  0.12202512609E+04  0.90430435423E+03 0.  0.
        -24    2    4    4    0    0  0.15075226021E+03  0.32382626241E+03 -0.54758917570E+02  0.36951903555E+03  0.77175685261E+02 0.  0.
         24    2    4    4    0    0 -0.60418760944E+03  0.10698398472E+03  0.58395235075E+03  0.85073222536E+03  0.79099500260E+02 0.  0.
         13    1    3    3    0    0  0.25442331067E+03 -0.18373097786E+03  0.27140423844E+02  0.31499983467E+03  0.00000000000E+00 0.  1.
        -13    1    3    3    0    0  0.19901203856E+03 -0.24707926927E+03 -0.59921398476E+01  0.31731665972E+03  0.00000000000E+00 0. -1.
          4    1    6    6  502    0 -0.33474039732E+03  0.23694756093E+02  0.29241630884E+03  0.44510658582E+03  0.00000000000E+00 0. -1.
          1    1    5    5  503    0  0.11614397443E+03  0.28221233189E+03 -0.21370489968E+02  0.30592469810E+03  0.00000000000E+00 0. -1.
         -2    1    5    5    0  503  0.34608285776E+02  0.41613930524E+02 -0.33388427602E+02  0.63594337450E+02  0.00000000000E+00 0.  1.
         -3    1    6    6    0  502 -0.26944721211E+03  0.83289228625E+02  0.29153604190E+03  0.40562563954E+03  0.00000000000E+00 0.  1.
<mgrwt>
<rscale>  0 0.17689351E+04</rscale>
<asrwt>0</asrwt>
<pdfrwt beam="1">  1        2 0.10017123E+00 0.17689351E+04</pdfrwt>
<pdfrwt beam="2">  1       -2 0.18483919E+00 0.17689351E+04</pdfrwt>
<totfact> 0.71268109E+00</totfact>
</mgrwt>
</event>
<event>
12    1  0.1536832E-007  0.1960751E+04  0.7818608E-02  0.8625194E-01
          1   -1    0    0  501    0  0.00000000000E+00  0.00000000000E+00  0.65477209673E+03  0.65477209673E+03  0.00000000000E+00 0. -1.
         -1   -1    0    0    0  501 -0.00000000000E+00 -0.00000000000E+00 -0.14678939359E+04  0.14678939359E+04  0.00000000000E+00 0.  1.
         23    2    1    2    0    0 -0.63846310245E+03 -0.30778067274E+03 -0.63612922995E+03  0.95677905853E+03  0.91660754686E+02 0.  0.
        254    2    1    2    0    0  0.63846310245E+03  0.30778067274E+03 -0.17699260920E+03  0.11658869741E+04  0.90862642318E+03 0.  0.
        -24    2    4    4    0    0  0.83105468648E+03  0.14706529192E+03 -0.26498025782E+03  0.88828332790E+03  0.80948388427E+02 0.  0.
         24    2    4    4    0    0 -0.19259158403E+03  0.16071538082E+03  0.87987648617E+02  0.27760364617E+03  0.80006288418E+02 0.  0.
         13    1    3    3    0    0 -0.38604201767E+02  0.35983783659E+01 -0.37024846150E+02  0.53610371696E+02  0.00000000000E+00 0. -1.
        -13    1    3    3    0    0 -0.59985890068E+03 -0.31137905110E+03 -0.59910438380E+03  0.90316868683E+03  0.00000000000E+00 0.  1.
          4    1    6    6  502    0 -0.17045105360E+03  0.16642873617E+03  0.89974400723E+02  0.25465168109E+03  0.00000000000E+00 0. -1.
          3    1    5    5  503    0  0.76347945879E+03  0.11817960953E+03 -0.25777124981E+03  0.81444049588E+03  0.00000000000E+00 0. -1.
         -4    1    5    5    0  503  0.67575227691E+02  0.28885682385E+02 -0.72090080029E+01  0.73842832020E+02  0.00000000000E+00 0.  1.
         -3    1    6    6    0  502 -0.22140530430E+02 -0.57133553510E+01 -0.19867521058E+01  0.22951965079E+02  0.00000000000E+00 0.  1.
<mgrwt>
<rscale>  0 0.19607509E+04</rscale>
<asrwt>0</asrwt>
<pdfrwt beam="1">  1        1 0.10073417E+00 0.19607509E+04</pdfrwt>
<pdfrwt beam="2">  1       -1 0.22582984E+00 0.19607509E+04</pdfrwt>
<totfact> 0.28209233E+00</totfact>
</mgrwt>
</event>
<event>
12    1  0.1536832E-007  0.1805805E+04  0.7818608E-02  0.8703219E-01
         -1   -1    0    0    0  501 -0.00000000000E+00  0.00000000000E+00  0.60088927245E+03  0.60088927245E+03  0.00000000000E+00 0.  1.
          1   -1    0    0  501    0  0.00000000000E+00 -0.00000000000E+00 -0.13567107033E+04  0.13567107033E+04  0.00000000000E+00 0. -1.
         23    2    1    2    0    0  0.55612117287E+02  0.19747601059E+03  0.41570369415E+03  0.47195278395E+03  0.88545957535E+02 0.  0.
        254    2    1    2    0    0 -0.55612117287E+02 -0.19747601059E+03 -0.11715251250E+04  0.14856471918E+04  0.89027354091E+03 0.  0.
        -24    2    4    4    0    0 -0.42753244095E+02 -0.43967070557E+03 -0.22106982358E+03  0.50067109689E+03  0.81618081012E+02 0.  0.
         24    2    4    4    0    0 -0.12858873192E+02  0.24219469498E+03 -0.95045530139E+03  0.98497609489E+03  0.89381243284E+02 0.  0.
         11    1    3    3    0    0  0.43859988306E+01  0.20337514702E+02  0.44845817440E+01  0.21282926571E+02  0.00000000000E+00 0. -1.
        -11    1    3    3    0    0  0.51226118457E+02  0.17713849589E+03  0.41121911241E+03  0.45066985738E+03  0.00000000000E+00 0.  1.
          4    1    6    6  502    0 -0.52312736175E+01  0.63312953892E+02 -0.42809382678E+03  0.43278195535E+03  0.00000000000E+00 0. -1.
          1    1    5    5  503    0 -0.53759544743E+02 -0.22014915613E+03 -0.84270183395E+02  0.24177924519E+03  0.00000000000E+00 0. -1.
         -2    1    5    5    0  503  0.11006300648E+02 -0.21952154944E+03 -0.13679964018E+03  0.25889185170E+03  0.00000000000E+00 0.  1.
         -3    1    6    6    0  502 -0.76275995743E+01  0.17888174109E+03 -0.52236147462E+03  0.55219413953E+03  0.00000000000E+00 0.  1.
<mgrwt>
<rscale>  0 0.18058050E+04</rscale>
<asrwt>0</asrwt>
<pdfrwt beam="1">  1        1 0.20872472E+00 0.18058050E+04</pdfrwt>
<pdfrwt beam="2">  1       -1 0.92444503E-01 0.18058050E+04</pdfrwt>
<totfact> 0.88484366E+00</totfact>
</mgrwt>
</event>
<event>
12    1  0.1536832E-007  0.1372133E+04  0.7818608E-02  0.8974241E-01
         -1   -1    0    0    0  501 -0.00000000000E+00  0.00000000000E+00  0.41259182189E+03  0.41259182189E+03  0.00000000000E+00 0.  1.
          1   -1    0    0  501    0  0.00000000000E+00 -0.00000000000E+00 -0.11408057158E+04  0.11408057158E+04  0.00000000000E+00 0. -1.
         23    2    1    2    0    0 -0.11943072753E+03 -0.36925046023E+03 -0.16862862049E+03  0.43279584998E+03  0.90923237195E+02 0.  0.
        254    2    1    2    0    0  0.11943072753E+03  0.36925046023E+03 -0.55958527338E+03  0.11206016877E+04  0.88994542706E+03 0.  0.
        -24    2    4    4    0    0 -0.34665788942E+03  0.22801486942E+03 -0.44510332690E+03  0.61397532613E+03  0.81769532851E+02 0.  0.
         24    2    4    4    0    0  0.46608861694E+03  0.14123559080E+03 -0.11448194648E+03  0.50662636153E+03  0.79862777159E+02 0.  0.
         13    1    3    3    0    0 -0.21338165761E+02 -0.30725156010E+02 -0.46734216779E+02  0.59861837158E+02  0.00000000000E+00 0. -1.
        -13    1    3    3    0    0 -0.98092561765E+02 -0.33852530422E+03 -0.12189440371E+03  0.37293401283E+03  0.00000000000E+00 0.  1.
          2    1    6    6  502    0  0.63313639189E+02  0.35256014241E+02 -0.42369145270E+02  0.83944910021E+02  0.00000000000E+00 0. -1.
          3    1    5    5  503    0 -0.16053221369E+03  0.11107676317E+03 -0.15096718671E+03  0.24677870737E+03  0.00000000000E+00 0. -1.
         -4    1    5    5    0  503 -0.18612567572E+03  0.11693810625E+03 -0.29413614019E+03  0.36719661875E+03  0.00000000000E+00 0.  1.
         -1    1    6    6    0  502  0.40277497775E+03  0.10597957656E+03 -0.72112801213E+02  0.42268145151E+03  0.00000000000E+00 0.  1.
<mgrwt>
<rscale>  0 0.13721328E+04</rscale>
<asrwt>0</asrwt>
<pdfrwt beam="1">  1        1 0.17550857E+00 0.13721328E+04</pdfrwt>
<pdfrwt beam="2">  1       -1 0.63475665E-01 0.13721328E+04</pdfrwt>
<totfact> 0.29066555E+01</totfact>
</mgrwt>
</event>
<event>
12    1  0.1536832E-007  0.1970412E+04  0.7818608E-02  0.8620580E-01
         -2   -1    0    0    0  501 -0.00000000000E+00  0.00000000000E+00  0.19271629212E+04  0.19271629212E+04  0.00000000000E+00 0.  1.
          2   -1    0    0  501    0  0.00000000000E+00 -0.00000000000E+00 -0.50365813080E+03  0.50365813080E+03  0.00000000000E+00 0. -1.
         23    2    1    2    0    0  0.44697149840E+03 -0.63096972907E+03  0.61265426922E+03  0.99065896748E+03  0.90297380162E+02 0.  0.
        254    2    1    2    0    0 -0.44697149840E+03  0.63096972907E+03  0.81085052122E+03  0.14401620846E+04  0.90481044570E+03 0.  0.
        -24    2    4    4    0    0 -0.51861178137E+03  0.39716277110E+03  0.76740695333E+02  0.66224849680E+03  0.77378877411E+02 0.  0.
         24    2    4    4    0    0  0.71640282962E+02  0.23380695798E+03  0.73410982589E+03  0.77791358776E+03  0.80214025108E+02 0.  0.
         13    1    3    3    0    0  0.42731465319E+03 -0.62396902267E+03  0.58555425358E+03  0.95645644855E+03  0.00000000000E+00 0.  1.
        -13    1    3    3    0    0  0.19656845210E+02 -0.70007064088E+01  0.27100015638E+02  0.34202518934E+02  0.00000000000E+00 0. -1.
          4    1    6    6  502    0  0.81905614804E+02  0.14932314701E+03  0.53264335584E+03  0.55920915272E+03  0.00000000000E+00 0. -1.
          1    1    5    5  503    0 -0.20060466730E+03  0.17300914504E+03  0.66141669338E+02  0.27303684226E+03  0.00000000000E+00 0. -1.
         -2    1    5    5    0  503 -0.31800711407E+03  0.22415362605E+03  0.10599025995E+02  0.38921165453E+03  0.00000000000E+00 0.  1.
         -3    1    6    6    0  502 -0.10265331842E+02  0.84483810970E+02  0.20146647005E+03  0.21870443504E+03  0.00000000000E+00 0.  1.
<mgrwt>
<rscale>  0 0.19704124E+04</rscale>
<asrwt>0</asrwt>
<pdfrwt beam="1">  1        2 0.77485867E-01 0.19704124E+04</pdfrwt>
<pdfrwt beam="2">  1       -2 0.29648660E+00 0.19704124E+04</pdfrwt>
<totfact> 0.19009612E+00</totfact>
</mgrwt>
</event>
<event>
12    1  0.1536832E-007  0.1539917E+04  0.7818608E-02  0.8858334E-01
          2   -1    0    0  501    0  0.00000000000E+00  0.00000000000E+00  0.29743537076E+04  0.29743537076E+04  0.00000000000E+00 0. -1.
         -2   -1    0    0    0  501 -0.00000000000E+00 -0.00000000000E+00 -0.19931592600E+03  0.19931592600E+03  0.00000000000E+00 0.  1.
         23    2    1    2    0    0  0.47134536737E+03  0.15284116991E+03  0.84311752133E+03  0.98220307266E+03  0.91372001227E+02 0.  0.
        254    2    1    2    0    0 -0.47134536737E+03 -0.15284116991E+03  0.19319202602E+04  0.21914665609E+04  0.90812054106E+03 0.  0.
        -24    2    4    4    0    0 -0.59035920814E+03  0.87215214152E+01  0.18766787005E+04  0.19686506093E+04  0.71149258034E+02 0.  0.
         24    2    4    4    0    0  0.11901384077E+03 -0.16156269132E+03  0.55241559737E+02  0.22281595163E+03  0.79552000963E+02 0.  0.
         11    1    3    3    0    0  0.25761187606E+03  0.49049806039E+02  0.38017713134E+03  0.46184890749E+03  0.00000000000E+00 0.  1.
        -11    1    3    3    0    0  0.21373349132E+03  0.10379136387E+03  0.46294038999E+03  0.52035416517E+03  0.00000000000E+00 0. -1.
          2    1    6    6  502    0  0.63232097944E+01 -0.30926521114E+02  0.38045520375E+02  0.49435759435E+02  0.00000000000E+00 0. -1.
          3    1    5    5  503    0 -0.10954633178E+02 -0.87848455242E+01  0.64822667775E+02  0.66326131776E+02  0.00000000000E+00 0. -1.
         -4    1    5    5    0  503 -0.57940457496E+03  0.17506366939E+02  0.18118560327E+04  0.19023244775E+04  0.00000000000E+00 0.  1.
         -1    1    6    6    0  502  0.11269063097E+03 -0.13063617021E+03  0.17196039362E+02  0.17338019220E+03  0.00000000000E+00 0.  1.
<mgrwt>
<rscale>  0 0.15399170E+04</rscale>
<asrwt>0</asrwt>
<pdfrwt beam="1">  1        2 0.45759284E+00 0.15399170E+04</pdfrwt>
<pdfrwt beam="2">  1       -2 0.30663991E-01 0.15399170E+04</pdfrwt>
<totfact> 0.17241721E+01</totfact>
</mgrwt>
</event>
<event>
12    1  0.1536832E-007  0.1801838E+04  0.7818608E-02  0.8705323E-01
          2   -1    0    0  501    0  0.00000000000E+00  0.00000000000E+00  0.97182345697E+03  0.97182345697E+03  0.00000000000E+00 0. -1.
         -2   -1    0    0    0  501 -0.00000000000E+00 -0.00000000000E+00 -0.83518766189E+03  0.83518766189E+03  0.00000000000E+00 0.  1.
         23    2    1    2    0    0  0.24688954783E+03 -0.60801113775E+03 -0.66085950907E+02  0.66571977753E+03  0.90462571379E+02 0.  0.
        254    2    1    2    0    0 -0.24688954783E+03  0.60801113775E+03  0.20272174599E+03  0.11412913413E+04  0.91149208829E+03 0.  0.
        -24    2    4    4    0    0  0.84737944301E-01  0.20306954683E+03  0.52162551198E+03  0.56527125823E+03  0.78747524417E+02 0.  0.
         24    2    4    4    0    0 -0.24697428578E+03  0.40494159092E+03 -0.31890376599E+03  0.57602008310E+03  0.71592836739E+02 0.  0.
         13    1    3    3    0    0  0.20050863705E+03 -0.41900665492E+03 -0.76781961064E+02  0.47081393347E+03  0.00000000000E+00 0.  1.
        -13    1    3    3    0    0  0.46380910781E+02 -0.18900448283E+03  0.10696010157E+02  0.19490584406E+03  0.00000000000E+00 0. -1.
          2    1    6    6  502    0 -0.52088281249E+02  0.13047862532E+03 -0.67389440860E+02  0.15581783418E+03  0.00000000000E+00 0. -1.
          3    1    5    5  503    0  0.21673799726E+02  0.12073075228E+02  0.76373773899E+02  0.80302341682E+02  0.00000000000E+00 0. -1.
         -4    1    5    5    0  503 -0.21589061782E+02  0.19099647160E+03  0.44525173808E+03  0.48496891655E+03  0.00000000000E+00 0.  1.
         -1    1    6    6    0  502 -0.19488600453E+03  0.27446296560E+03 -0.25151432513E+03  0.42020224892E+03  0.00000000000E+00 0.  1.
<mgrwt>
<rscale>  0 0.18018379E+04</rscale>
<asrwt>0</asrwt>
<pdfrwt beam="1">  1        2 0.14951130E+00 0.18018379E+04</pdfrwt>
<pdfrwt beam="2">  1       -2 0.12849041E+00 0.18018379E+04</pdfrwt>
<totfact> 0.11092368E+01</totfact>
</mgrwt>
</event>
<event>
12    1  0.1536832E-007  0.4218203E+04  0.7818608E-02  0.7961919E-01
         -1   -1    0    0    0  501 -0.00000000000E+00  0.00000000000E+00  0.26843505568E+04  0.26843505568E+04  0.00000000000E+00 0.  1.
          1   -1    0    0  501    0  0.00000000000E+00 -0.00000000000E+00 -0.16571270944E+04  0.16571270944E+04  0.00000000000E+00 0. -1.
         23    2    1    2    0    0  0.15855731785E+04 -0.10836095714E+04 -0.12459183510E+03  0.19266109842E+04  0.89748266567E+02 0.  0.
        254    2    1    2    0    0 -0.15855731785E+04  0.10836095714E+04  0.11518152975E+04  0.24148666671E+04  0.90368718723E+03 0.  0.
        -24    2    4    4    0    0 -0.14176868318E+04  0.50351124150E+03  0.90658699199E+03  0.17582676624E+04  0.79029583352E+02 0.  0.
         24    2    4    4    0    0 -0.16788634667E+03  0.58009832994E+03  0.24522830553E+03  0.65659900468E+03  0.79280724776E+02 0.  0.
         11    1    3    3    0    0  0.82479678589E+03 -0.61435612978E+03 -0.50705029662E+02  0.10297058766E+04  0.00000000000E+00 0. -1.
        -11    1    3    3    0    0  0.76077639262E+03 -0.46925344166E+03 -0.73886805440E+02  0.89690510763E+03  0.00000000000E+00 0.  1.
          2    1    6    6  502    0 -0.24133270288E+02  0.68386186503E+02  0.32592218167E+01  0.72592752848E+02  0.00000000000E+00 0. -1.
          1    1    5    5  503    0 -0.41089792658E+03  0.18257927580E+03  0.25814492380E+03  0.51846996027E+03  0.00000000000E+00 0. -1.
         -2    1    5    5    0  503 -0.10067889053E+04  0.32093196570E+03  0.64844206819E+03  0.12397977021E+04  0.00000000000E+00 0.  1.
         -1    1    6    6    0  502 -0.14375307639E+03  0.51171214343E+03  0.24196908371E+03  0.58400625183E+03  0.00000000000E+00 0.  1.
<mgrwt>
<rscale>  0 0.42182034E+04</rscale>
<asrwt>0</asrwt>
<pdfrwt beam="1">  1        1 0.25494263E+00 0.42182034E+04</pdfrwt>
<pdfrwt beam="2">  1       -1 0.41297701E+00 0.42182034E+04</pdfrwt>
<totfact> 0.22838024E-02</totfact>
</mgrwt>
</event>
<event>
12    1  0.1536832E-007  0.1406652E+04  0.7818608E-02  0.8949017E-01
         -2   -1    0    0    0  501 -0.00000000000E+00  0.00000000000E+00  0.17111665373E+03  0.17111665373E+03  0.00000000000E+00 0.  1.
          2   -1    0    0  501    0  0.00000000000E+00 -0.00000000000E+00 -0.28908207375E+04  0.28908207375E+04  0.00000000000E+00 0. -1.
         23    2    1    2    0    0  0.10716884724E+03 -0.23865272591E+03 -0.12166814762E+03  0.30028672054E+03  0.83238758896E+02 0.  0.
        254    2    1    2    0    0 -0.10716884724E+03  0.23865272591E+03 -0.25980359361E+04  0.27616506707E+04  0.89915705858E+03 0.  0.
        -24    2    4    4    0    0 -0.40118833148E+03 -0.15432149622E+03 -0.11165101307E+04  0.11989486490E+04  0.78203514026E+02 0.  0.
         24    2    4    4    0    0  0.29401948424E+03  0.39297422212E+03 -0.14815258054E+04  0.15627020216E+04  0.79010757752E+02 0.  0.
         13    1    3    3    0    0  0.69491917727E+02 -0.20754678469E+03 -0.12365726871E+03  0.25138797619E+03  0.00000000000E+00 0.  1.
        -13    1    3    3    0    0  0.37676929511E+02 -0.31105941215E+02  0.19891210891E+01  0.48898744349E+02  0.00000000000E+00 0. -1.
          4    1    6    6  502    0  0.14818437596E+03  0.23560075062E+03 -0.93581860487E+03  0.97633128814E+03  0.00000000000E+00 0. -1.
          3    1    5    5  503    0 -0.40041328458E+03 -0.15939246060E+03 -0.11094889052E+04  0.11902530763E+04  0.00000000000E+00 0. -1.
         -4    1    5    5    0  503 -0.77504690279E+00  0.50709643800E+01 -0.70212255065E+01  0.86955727274E+01  0.00000000000E+00 0.  1.
         -3    1    6    6    0  502  0.14583510828E+03  0.15737347150E+03 -0.54570720058E+03  0.58637073349E+03  0.00000000000E+00 0.  1.
<mgrwt>
<rscale>  0 0.14066522E+04</rscale>
<asrwt>0</asrwt>
<pdfrwt beam="1">  1        2 0.44474163E+00 0.14066522E+04</pdfrwt>
<pdfrwt beam="2">  1       -2 0.26325640E-01 0.14066522E+04</pdfrwt>
<totfact> 0.26051511E+01</totfact>
</mgrwt>
</event>
<event>
12    1  0.1536832E-007  0.2325641E+04  0.7818608E-02  0.8467879E-01
         -2   -1    0    0    0  501 -0.00000000000E+00  0.00000000000E+00  0.10500730646E+04  0.10500730646E+04  0.00000000000E+00 0. -1.
          2   -1    0    0  501    0  0.00000000000E+00 -0.00000000000E+00 -0.12876735873E+04  0.12876735873E+04  0.00000000000E+00 0.  1.
         23    2    1    2    0    0 -0.30641957317E+02  0.33772650665E+03  0.82781668724E+03  0.89934719772E+03  0.92448858991E+02 0.  0.
        254    2    1    2    0    0  0.30641957317E+02 -0.33772650665E+03 -0.10654172100E+04  0.14383994542E+04  0.90492045813E+03 0.  0.
        -24    2    4    4    0    0  0.11720975766E+03  0.10081441153E+03 -0.95401276646E+03  0.96991575851E+03  0.81820212472E+02 0.  0.
         24    2    4    4    0    0 -0.86567800348E+02 -0.43854091818E+03 -0.11140444356E+03  0.46848369568E+03  0.85169842636E+02 0.  0.
         13    1    3    3    0    0 -0.66217280701E+01  0.32350488597E+03  0.76294763329E+03  0.82872694518E+03  0.00000000000E+00 0. -1.
        -13    1    3    3    0    0 -0.24020229246E+02  0.14221620679E+02  0.64869053952E+02  0.70620252537E+02  0.00000000000E+00 0.  1.
          4    1    6    6  502    0 -0.54682008599E+02 -0.10742002249E+03 -0.11147724458E+02  0.12105145624E+03  0.00000000000E+00 0. -1.
          3    1    5    5  503    0 -0.73995196619E+01 -0.65058946826E+01 -0.37934626598E+02  0.39193308765E+02  0.00000000000E+00 0. -1.
         -4    1    5    5    0  503  0.12460927733E+03  0.10732030621E+03 -0.91607813987E+03  0.93072244975E+03  0.00000000000E+00 0.  1.
         -1    1    6    6    0  502 -0.31885791749E+02 -0.33112089568E+03 -0.10025671910E+03  0.34743223944E+03  0.00000000000E+00 0.  1.
<mgrwt>
<rscale>  0 0.23256409E+04</rscale>
<asrwt>0</asrwt>
<pdfrwt beam="1">  1        2 0.19810363E+00 0.23256409E+04</pdfrwt>
<pdfrwt beam="2">  1       -2 0.16154970E+00 0.23256409E+04</pdfrwt>
<totfact> 0.37312794E+00</totfact>
</mgrwt>
</event>
<event>
12    1  0.1536832E-007  0.1616358E+04  0.7818608E-02  0.8810561E-01
          2   -1    0    0  501    0  0.00000000000E+00  0.00000000000E+00  0.10836406063E+04  0.10836406063E+04  0.00000000000E+00 0. -1.
         -2   -1    0    0    0  501 -0.00000000000E+00 -0.00000000000E+00 -0.60274009856E+03  0.60274009856E+03  0.00000000000E+00 0.  1.
         23    2    1    2    0    0 -0.75136331627E+02  0.53705724619E+03  0.12532246087E+03  0.56394592298E+03  0.90847844419E+02 0.  0.
        254    2    1    2    0    0  0.75136331627E+02 -0.53705724619E+03  0.35557804685E+03  0.11224347818E+04  0.91615945014E+03 0.  0.
        -24    2    4    4    0    0 -0.20298120343E+03 -0.69530760935E+03  0.19169317332E+03  0.75343303036E+03  0.79126594587E+02 0.  0.
         24    2    4    4    0    0  0.27811753505E+03  0.15825036316E+03  0.16388487353E+03  0.36900175149E+03  0.83135432222E+02 0.  0.
         13    1    3    3    0    0 -0.60387978266E+01  0.14090541362E+02  0.21352627688E+02  0.26285835430E+02  0.00000000000E+00 0. -1.
        -13    1    3    3    0    0 -0.69097533800E+02  0.52296670483E+03  0.10396983318E+03  0.53766008755E+03  0.00000000000E+00 0.  1.
          2    1    6    6  502    0  0.27229906160E+03  0.16374928379E+03  0.16860734667E+03  0.35970688656E+03  0.00000000000E+00 0. -1.
          1    1    5    5  503    0 -0.13307536001E+03 -0.56194126761E+03  0.13979114840E+03  0.59416210318E+03  0.00000000000E+00 0. -1.
         -2    1    5    5    0  503 -0.69905843418E+02 -0.13336634174E+03  0.51902024918E+02  0.15927092718E+03  0.00000000000E+00 0.  1.
         -1    1    6    6    0  502  0.58184734573E+01 -0.54989206304E+01 -0.47224731478E+01  0.92948649320E+01  0.00000000000E+00 0.  1.
<mgrwt>
<rscale>  0 0.16163584E+04</rscale>
<asrwt>0</asrwt>
<pdfrwt beam="1">  1        2 0.16671394E+00 0.16163584E+04</pdfrwt>
<pdfrwt beam="2">  1       -2 0.92729246E-01 0.16163584E+04</pdfrwt>
<totfact> 0.21065795E+01</totfact>
</mgrwt>
</event>
<event>
12    1  0.1536832E-007  0.1815579E+04  0.7818608E-02  0.8698058E-01
         -1   -1    0    0    0  501 -0.00000000000E+00  0.00000000000E+00  0.36491503088E+03  0.36491503088E+03  0.00000000000E+00 0.  1.
          1   -1    0    0  501    0  0.00000000000E+00 -0.00000000000E+00 -0.22582835558E+04  0.22582835558E+04  0.00000000000E+00 0. -1.
         23    2    1    2    0    0  0.11039313972E+03 -0.61268950068E+03 -0.34464238585E+03  0.71651535183E+03  0.83909509267E+02 0.  0.
        254    2    1    2    0    0 -0.11039313972E+03  0.61268950068E+03 -0.15487261390E+04  0.19066832348E+04  0.92158191967E+03 0.  0.
        -24    2    4    4    0    0 -0.31976117283E+03  0.42413513575E+03 -0.15201856777E+04  0.16123201334E+04  0.80460528945E+02 0.  0.
         24    2    4    4    0    0  0.20936803311E+03  0.18855436493E+03 -0.28540461319E+02  0.29436310144E+03  0.80295427851E+02 0.  0.
         11    1    3    3    0    0  0.80193856050E+02 -0.23480212778E+03 -0.11695149920E+03  0.27430046832E+03  0.00000000000E+00 0. -1.
        -11    1    3    3    0    0  0.30199283671E+02 -0.37788737290E+03 -0.22769088665E+03  0.44221488351E+03  0.00000000000E+00 0.  1.
          2    1    6    6  502    0  0.14661138693E+02 -0.18787467949E+01 -0.15912914787E+02  0.21718644854E+02  0.00000000000E+00 0. -1.
          3    1    5    5  503    0 -0.11811192814E+03  0.11892982836E+03 -0.39262758764E+03  0.42690883596E+03  0.00000000000E+00 0. -1.
         -4    1    5    5    0  503 -0.20164924469E+03  0.30520530739E+03 -0.11275580901E+04  0.11854112974E+04  0.00000000000E+00 0.  1.
         -1    1    6    6    0  502  0.19470689442E+03  0.19043311173E+03 -0.12627546533E+02  0.27264445659E+03  0.00000000000E+00 0.  1.
<mgrwt>
<rscale>  0 0.18155788E+04</rscale>
<asrwt>0</asrwt>
<pdfrwt beam="1">  1        1 0.34742823E+00 0.18155788E+04</pdfrwt>
<pdfrwt beam="2">  1       -1 0.56140775E-01 0.18155788E+04</pdfrwt>
<totfact> 0.60157042E+00</totfact>
</mgrwt>
</event>
<event>
12    1  0.1536832E-007  0.2206075E+04  0.7818608E-02  0.8515904E-01
         -2   -1    0    0    0  501 -0.00000000000E+00  0.00000000000E+00  0.20402593193E+04  0.20402593193E+04  0.00000000000E+00 0. -1.
          2   -1    0    0  501    0  0.00000000000E+00 -0.00000000000E+00 -0.59634189949E+03  0.59634189949E+03  0.00000000000E+00 0.  1.
         23    2    1    2    0    0 -0.73254864744E+03 -0.19324770600E+03 -0.11208502684E+02  0.76298493308E+03  0.89711653836E+02 0.  0.
        254    2    1    2    0    0  0.73254864744E+03  0.19324770600E+03  0.14551259225E+04  0.18736162857E+04  0.90502725871E+03 0.  0.
        -24    2    4    4    0    0  0.48263111590E+03  0.42274647912E+03  0.39490082308E+03  0.75758728769E+03  0.79652110785E+02 0.  0.
         24    2    4    4    0    0  0.24991753153E+03 -0.22949877312E+03  0.10602250994E+04  0.11160289980E+04  0.79466996662E+02 0.  0.
         13    1    3    3    0    0 -0.89701195380E+02 -0.22252743483E+02 -0.31026006754E+02  0.97488984712E+02  0.00000000000E+00 0. -1.
        -13    1    3    3    0    0 -0.64284745206E+03 -0.17099496252E+03  0.19817504070E+02  0.66549594836E+03  0.00000000000E+00 0.  1.
          4    1    6    6  502    0  0.22527604278E+02 -0.42510291010E+02  0.23469703994E+03  0.23957737446E+03  0.00000000000E+00 0. -1.
          3    1    5    5  503    0  0.12281992326E+03  0.89130936000E+02  0.58357253469E+02  0.16258728835E+03  0.00000000000E+00 0. -1.
         -4    1    5    5    0  503  0.35981119264E+03  0.33361554312E+03  0.33654356961E+03  0.59499999934E+03  0.00000000000E+00 0.  1.
         -3    1    6    6    0  502  0.22738992726E+03 -0.18698848211E+03  0.82552805945E+03  0.87645162353E+03  0.00000000000E+00 0.  1.
<mgrwt>
<rscale>  0 0.22060754E+04</rscale>
<asrwt>0</asrwt>
<pdfrwt beam="1">  1        2 0.91744908E-01 0.22060754E+04</pdfrwt>
<pdfrwt beam="2">  1       -2 0.31388605E+00 0.22060754E+04</pdfrwt>
<totfact> 0.11931033E+00</totfact>
</mgrwt>
</event>
<event>
12    1  0.1536832E-007  0.1825625E+04  0.7818608E-02  0.8692790E-01
          3   -1    0    0  501    0  0.00000000000E+00  0.00000000000E+00  0.65813276261E+03  0.65813276261E+03  0.00000000000E+00 0. -1.
         -3   -1    0    0    0  501 -0.00000000000E+00 -0.00000000000E+00 -0.12660461757E+04  0.12660461757E+04  0.00000000000E+00 0.  1.
         23    2    1    2    0    0 -0.42203635033E+03 -0.34440359231E+03 -0.67491495532E+03  0.87207673356E+03  0.90989652726E+02 0.  0.
        254    2    1    2    0    0  0.42203635033E+03  0.34440359231E+03  0.67001542226E+02  0.10521022048E+04  0.89760867153E+03 0.  0.
        -24    2    4    4    0    0  0.16705097966E+03  0.20265655099E+01 -0.38364653031E+03  0.42609036135E+03  0.80362920824E+02 0.  0.
         24    2    4    4    0    0  0.25498537067E+03  0.34237702680E+03  0.45064807253E+03  0.62601184342E+03  0.81040576779E+02 0.  0.
         11    1    3    3    0    0 -0.78777192157E+01 -0.41144082467E+01 -0.40815196340E+02  0.41771605997E+02  0.00000000000E+00 0. -1.
        -11    1    3    3    0    0 -0.41415863111E+03 -0.34028918406E+03 -0.63409975898E+03  0.83030512756E+03  0.00000000000E+00 0.  1.
          4    1    6    6  502    0  0.17624958724E+03  0.16936993376E+03  0.25325907054E+03  0.35198046576E+03  0.00000000000E+00 0. -1.
          3    1    5    5  503    0  0.31838916854E+02 -0.44187860972E+01 -0.19496966254E+02  0.37594866540E+02  0.00000000000E+00 0. -1.
         -4    1    5    5    0  503  0.13521206280E+03  0.64453516071E+01 -0.36414956405E+03  0.38849549481E+03  0.00000000000E+00 0.  1.
         -3    1    6    6    0  502  0.78735783433E+02  0.17300709304E+03  0.19738900199E+03  0.27403137766E+03  0.00000000000E+00 0.  1.
<mgrwt>
<rscale>  0 0.18256248E+04</rscale>
<asrwt>0</asrwt>
<pdfrwt beam="1">  1        3 0.10125120E+00 0.18256248E+04</pdfrwt>
<pdfrwt beam="2">  1       -3 0.19477633E+00 0.18256248E+04</pdfrwt>
<totfact> 0.33106779E-01</totfact>
</mgrwt>
</event>
<event>
12    1  0.1536832E-007  0.3218048E+04  0.7818608E-02  0.8184067E-01
         -2   -1    0    0    0  501 -0.00000000000E+00  0.00000000000E+00  0.96660203666E+03  0.96660203666E+03  0.00000000000E+00 0.  1.
          2   -1    0    0  501    0  0.00000000000E+00 -0.00000000000E+00 -0.26784125420E+04  0.26784125420E+04  0.00000000000E+00 0. -1.
         23    2    1    2    0    0  0.69284778883E+03 -0.67481484945E+03  0.48605528291E+03  0.10864338383E+04  0.93142940879E+02 0.  0.
        254    2    1    2    0    0 -0.69284778883E+03  0.67481484945E+03 -0.21978657883E+04  0.25585807404E+04  0.88335057723E+03 0.  0.
        -24    2    4    4    0    0 -0.12652765724E+03  0.34815461211E+03 -0.16757123514E+04  0.17180541925E+04  0.80482557426E+02 0.  0.
         24    2    4    4    0    0 -0.56632013159E+03  0.32666023734E+03 -0.52215343691E+03  0.84052654783E+03  0.80095342153E+02 0.  0.
         11    1    3    3    0    0  0.67020786101E+02 -0.32777052192E+02  0.28744484117E+02  0.79952275059E+02  0.00000000000E+00 0. -1.
        -11    1    3    3    0    0  0.62582700273E+03 -0.64203779725E+03  0.45731079879E+03  0.10064815632E+04  0.00000000000E+00 0.  1.
          4    1    6    6  502    0 -0.30381893324E+03  0.12913282341E+03 -0.26537080056E+03  0.42355978571E+03  0.00000000000E+00 0. -1.
          3    1    5    5  503    0 -0.28565954744E+02  0.64715005139E+02 -0.19901321447E+03  0.21121151766E+03  0.00000000000E+00 0. -1.
         -4    1    5    5    0  503 -0.97961702497E+02  0.28343960697E+03 -0.14766991369E+04  0.15068426749E+04  0.00000000000E+00 0.  1.
         -3    1    6    6    0  502 -0.26250119835E+03  0.19752741393E+03 -0.25678263634E+03  0.41696676212E+03  0.00000000000E+00 0.  1.
<mgrwt>
<rscale>  0 0.32180485E+04</rscale>
<asrwt>0</asrwt>
<pdfrwt beam="1">  1        2 0.41206347E+00 0.32180485E+04</pdfrwt>
<pdfrwt beam="2">  1       -2 0.14870801E+00 0.32180485E+04</pdfrwt>
<totfact> 0.70479969E-01</totfact>
</mgrwt>
</event>
<event>
12    1  0.1536832E-007  0.2523592E+04  0.7818608E-02  0.8394629E-01
         -1   -1    0    0    0  501 -0.00000000000E+00  0.00000000000E+00  0.18872659676E+04  0.18872659676E+04  0.00000000000E+00 0.  1.
          1   -1    0    0  501    0  0.00000000000E+00 -0.00000000000E+00 -0.84361659212E+03  0.84361659212E+03  0.00000000000E+00 0. -1.
         23    2    1    2    0    0  0.71738306743E+03  0.38430860905E+03  0.12587583346E+04  0.15015075049E+04  0.87867343186E+02 0.  0.
        254    2    1    2    0    0 -0.71738306743E+03 -0.38430860905E+03 -0.21510895914E+03  0.12293750548E+04  0.89596851985E+03 0.  0.
        -24    2    4    4    0    0 -0.61309451384E+03  0.15862711738E+03 -0.23581461625E+02  0.63870943129E+03  0.79663084444E+02 0.  0.
         24    2    4    4    0    0 -0.10428855359E+03 -0.54293572643E+03 -0.19152749752E+03  0.59066562348E+03  0.80918421940E+02 0.  0.
         11    1    3    3    0    0  0.31809013391E+03  0.16602277338E+03  0.63551057029E+03  0.72980722079E+03  0.00000000000E+00 0. -1.
        -11    1    3    3    0    0  0.39929293351E+03  0.21828583568E+03  0.62324776431E+03  0.77170028413E+03  0.00000000000E+00 0.  1.
          4    1    6    6  502    0 -0.67538013210E+02 -0.44259880193E+03 -0.12519899798E+03  0.46489770035E+03  0.00000000000E+00 0. -1.
          3    1    5    5  503    0 -0.59376967370E+03  0.15429981832E+03 -0.80525861928E+01  0.61354356283E+03  0.00000000000E+00 0. -1.
         -4    1    5    5    0  503 -0.19324840136E+02  0.43272990576E+01 -0.15528875432E+02  0.25165868466E+02  0.00000000000E+00 0.  1.
         -3    1    6    6    0  502 -0.36750540377E+02 -0.10033692450E+03 -0.66328499540E+02  0.12576792313E+03  0.00000000000E+00 0.  1.
<mgrwt>
<rscale>  0 0.25235918E+04</rscale>
<asrwt>0</asrwt>
<pdfrwt beam="1">  1        1 0.12978717E+00 0.25235918E+04</pdfrwt>
<pdfrwt beam="2">  1       -1 0.29034861E+00 0.25235918E+04</pdfrwt>
<totfact> 0.68576930E-01</totfact>
</mgrwt>
</event>
<event>
12    1  0.1536832E-007  0.1145646E+04  0.7818608E-02  0.9161810E-01
         -2   -1    0    0    0  501 -0.00000000000E+00  0.00000000000E+00  0.25189977783E+04  0.25189977783E+04  0.00000000000E+00 0.  1.
          2   -1    0    0  501    0  0.00000000000E+00 -0.00000000000E+00 -0.13026060035E+03  0.13026060035E+03  0.00000000000E+00 0. -1.
         23    2    1    2    0    0  0.30723072901E+02  0.72609022906E+02  0.10222736252E+04  0.10301267151E+04  0.99507321284E+02 0.  0.
        254    2    1    2    0    0 -0.30723072901E+02 -0.72609022906E+02  0.13664635527E+04  0.16191316635E+04  0.86495590956E+03 0.  0.
        -24    2    4    4    0    0 -0.22652534726E+03  0.13020581425E+03  0.59725334383E+02  0.27999350656E+03  0.81005932701E+02 0.  0.
         24    2    4    4    0    0  0.19580227435E+03 -0.20281483716E+03  0.13067382184E+04  0.13391381570E+04  0.79081245261E+02 0.  0.
         11    1    3    3    0    0  0.32257684036E+02  0.89712230300E+02  0.60197414403E+03  0.60947658899E+03  0.00000000000E+00 0.  1.
        -11    1    3    3    0    0 -0.15346111349E+01 -0.17103207395E+02  0.42029948116E+03  0.42065012611E+03  0.00000000000E+00 0. -1.
          4    1    6    6  502    0  0.94643447012E+02 -0.74167453181E+02  0.72138547590E+03  0.73133795062E+03  0.00000000000E+00 0. -1.
          1    1    5    5  503    0 -0.89588334997E+02  0.96087275234E+01  0.86883037649E+01  0.90520075312E+02  0.00000000000E+00 0. -1.
         -2    1    5    5    0  503 -0.13693701226E+03  0.12059708673E+03  0.51037030618E+02  0.18947343124E+03  0.00000000000E+00 0.  1.
         -3    1    6    6    0  502  0.10115882734E+03 -0.12864738397E+03  0.58535274247E+03  0.60780020637E+03  0.00000000000E+00 0.  1.
<mgrwt>
<rscale>  0 0.11456460E+04</rscale>
<asrwt>0</asrwt>
<pdfrwt beam="1">  1        2 0.20040094E-01 0.11456460E+04</pdfrwt>
<pdfrwt beam="2">  1       -2 0.38753808E+00 0.11456460E+04</pdfrwt>
<totfact> 0.25680771E+00</totfact>
</mgrwt>
</event>
<event>
12    1  0.1536832E-007  0.1661266E+04  0.7818608E-02  0.8783769E-01
         -2   -1    0    0    0  501 -0.00000000000E+00  0.00000000000E+00  0.23729958400E+03  0.23729958400E+03  0.00000000000E+00 0.  1.
          2   -1    0    0  501    0  0.00000000000E+00 -0.00000000000E+00 -0.29075114163E+04  0.29075114163E+04  0.00000000000E+00 0. -1.
         23    2    1    2    0    0 -0.17107810141E+03 -0.18034232056E+03 -0.19320305904E+04  0.19501335974E+04  0.92129127221E+02 0.  0.
        254    2    1    2    0    0  0.17107810141E+03  0.18034232056E+03 -0.73818124191E+03  0.11946774029E+04  0.90584296749E+03 0.  0.
        -24    2    4    4    0    0  0.77776888172E+02  0.52931812737E+03 -0.29173730555E+03  0.61452029606E+03  0.79357510853E+02 0.  0.
         24    2    4    4    0    0  0.93301213241E+02 -0.34897580681E+03 -0.44644393637E+03  0.58015710686E+03  0.82345917849E+02 0.  0.
         11    1    3    3    0    0  0.49395710647E+01  0.69048186248E+00 -0.17313380479E+03  0.17320563065E+03  0.00000000000E+00 0.  1.
        -11    1    3    3    0    0 -0.17601767248E+03 -0.18103280242E+03 -0.17588967856E+04  0.17769279668E+04  0.00000000000E+00 0. -1.
          2    1    6    6  502    0  0.40452061628E+01 -0.87683753834E+02 -0.15873664084E+03  0.18138943057E+03  0.00000000000E+00 0. -1.
          3    1    5    5  503    0  0.20811433153E+02  0.25220390370E+03 -0.17903399922E+03  0.30998886700E+03  0.00000000000E+00 0. -1.
         -4    1    5    5    0  503  0.56965455019E+02  0.27711422367E+03 -0.11270330633E+03  0.30453142906E+03  0.00000000000E+00 0.  1.
         -1    1    6    6    0  502  0.89256007079E+02 -0.26129205297E+03 -0.28770729553E+03  0.39876767629E+03  0.00000000000E+00 0.  1.
<mgrwt>
<rscale>  0 0.16612661E+04</rscale>
<asrwt>0</asrwt>
<pdfrwt beam="1">  1        2 0.44730943E+00 0.16612661E+04</pdfrwt>
<pdfrwt beam="2">  1       -2 0.36507630E-01 0.16612661E+04</pdfrwt>
<totfact> 0.13462215E+01</totfact>
</mgrwt>
</event>
<event>
12    1  0.1536832E-007  0.1762074E+04  0.7818608E-02  0.8726732E-01
          1   -1    0    0  501    0  0.00000000000E+00  0.00000000000E+00  0.10020673369E+04  0.10020673369E+04  0.00000000000E+00 0. -1.
         -1   -1    0    0    0  501 -0.00000000000E+00 -0.00000000000E+00 -0.77462513972E+03  0.77462513972E+03  0.00000000000E+00 0.  1.
         23    2    1    2    0    0 -0.63771052888E+03  0.11559254445E+03  0.54274664531E+02  0.65679968841E+03  0.91671895965E+02 0.  0.
        254    2    1    2    0    0  0.63771052888E+03 -0.11559254445E+03  0.17316753266E+03  0.11198927882E+04  0.89673658772E+03 0.  0.
        -24    2    4    4    0    0  0.60465402081E+03  0.28968100707E+03  0.10421068979E+02  0.67536545329E+03  0.80550146356E+02 0.  0.
         24    2    4    4    0    0  0.33056508071E+02 -0.40527355152E+03  0.16274646369E+03  0.44452733493E+03  0.76018127921E+02 0.  0.
         13    1    3    3    0    0 -0.48845016222E+03  0.11151887607E+03  0.73018458303E+02  0.50631187617E+03  0.00000000000E+00 0. -1.
        -13    1    3    3    0    0 -0.14926036665E+03  0.40736683773E+01 -0.18743793772E+02  0.15048781224E+03  0.00000000000E+00 0.  1.
          4    1    6    6  502    0  0.23781225753E+01 -0.29455281954E+03  0.14484583550E+03  0.32824889189E+03  0.00000000000E+00 0. -1.
          1    1    5    5  503    0  0.46806022967E+03  0.19899039503E+03 -0.18189208735E+02  0.50892868186E+03  0.00000000000E+00 0. -1.
         -2    1    5    5    0  503  0.13659379114E+03  0.90690612042E+02  0.28610277714E+02  0.16643677143E+03  0.00000000000E+00 0.  1.
         -3    1    6    6    0  502  0.30678385496E+02 -0.11072073198E+03  0.17900628186E+02  0.11627844304E+03  0.00000000000E+00 0.  1.
<mgrwt>
<rscale>  0 0.17620744E+04</rscale>
<asrwt>0</asrwt>
<pdfrwt beam="1">  1        1 0.15416421E+00 0.17620744E+04</pdfrwt>
<pdfrwt beam="2">  1       -1 0.11917310E+00 0.17620744E+04</pdfrwt>
<totfact> 0.89872622E+00</totfact>
</mgrwt>
</event>
<event>
12    1  0.1536832E-007  0.1515937E+04  0.7818608E-02  0.8873923E-01
         -2   -1    0    0    0  501 -0.00000000000E+00  0.00000000000E+00  0.59355320782E+03  0.59355320782E+03  0.00000000000E+00 0.  1.
          2   -1    0    0  501    0  0.00000000000E+00 -0.00000000000E+00 -0.96792757934E+03  0.96792757934E+03  0.00000000000E+00 0. -1.
         23    2    1    2    0    0 -0.13747329570E+03  0.81264120586E+02  0.34688665840E+03  0.39635833526E+03  0.10614523933E+03 0.  0.
        254    2    1    2    0    0  0.13747329570E+03 -0.81264120586E+02 -0.72126102992E+03  0.11651224519E+04  0.90099394576E+03 0.  0.
        -24    2    4    4    0    0 -0.30186448256E+03  0.20740531294E+03 -0.22259304459E+03  0.43617602119E+03  0.81010667771E+02 0.  0.
         24    2    4    4    0    0  0.43933777826E+03 -0.28866943352E+03 -0.49866798533E+03  0.72894643071E+03  0.79658106853E+02 0.  0.
         13    1    3    3    0    0 -0.15173143591E+03  0.64203255502E+02  0.32852215735E+03  0.36752046817E+03  0.00000000000E+00 0.  1.
        -13    1    3    3    0    0  0.14258140201E+02  0.17060865084E+02  0.18364501053E+02  0.28837867091E+02  0.00000000000E+00 0. -1.
          2    1    6    6  502    0  0.31016373648E+03 -0.21480120003E+03 -0.30769050019E+03  0.48684139395E+03  0.00000000000E+00 0. -1.
          3    1    5    5  503    0 -0.26703292378E+03  0.16909215630E+03 -0.21848779437E+03  0.38423385587E+03  0.00000000000E+00 0. -1.
         -4    1    5    5    0  503 -0.34831558781E+02  0.38313156640E+02 -0.41052502154E+01  0.51942165320E+02  0.00000000000E+00 0.  1.
         -1    1    6    6    0  502  0.12917404178E+03 -0.73868233497E+02 -0.19097748514E+03  0.24210503675E+03  0.00000000000E+00 0.  1.
<mgrwt>
<rscale>  0 0.15159374E+04</rscale>
<asrwt>0</asrwt>
<pdfrwt beam="1">  1        2 0.14891194E+00 0.15159374E+04</pdfrwt>
<pdfrwt beam="2">  1       -2 0.91315878E-01 0.15159374E+04</pdfrwt>
<totfact> 0.26065440E+01</totfact>
</mgrwt>
</event>
<event>
12    1  0.1536832E-007  0.2354649E+04  0.7818608E-02  0.8456680E-01
         -2   -1    0    0    0  501 -0.00000000000E+00  0.00000000000E+00  0.50370902635E+03  0.50370902635E+03  0.00000000000E+00 0.  1.
          2   -1    0    0  501    0  0.00000000000E+00 -0.00000000000E+00 -0.27517730194E+04  0.27517730194E+04  0.00000000000E+00 0. -1.
         23    2    1    2    0    0  0.71477936122E+03 -0.70453066727E+03 -0.79028968407E+03  0.12807055118E+04  0.91519543192E+02 0.  0.
        254    2    1    2    0    0 -0.71477936122E+03  0.70453066727E+03 -0.14577743089E+04  0.19747765339E+04  0.87599282352E+03 0.  0.
        -24    2    4    4    0    0 -0.55443787189E+03  0.17720403136E+02 -0.35488333833E+03  0.66328488323E+03  0.79305018885E+02 0.  0.
         24    2    4    4    0    0 -0.16034148933E+03  0.68681026413E+03 -0.11028909706E+04  0.13114916507E+04  0.78893122105E+02 0.  0.
         13    1    3    3    0    0  0.55302746998E+03 -0.57179002643E+03 -0.66493481280E+03  0.10367842216E+04  0.00000000000E+00 0. -1.
        -13    1    3    3    0    0  0.16175189124E+03 -0.13274064084E+03 -0.12535487127E+03  0.24392129018E+03  0.00000000000E+00 0.  1.
          4    1    6    6  502    0 -0.13245661196E+03  0.55415683880E+03 -0.82938399232E+03  0.10062367330E+04  0.00000000000E+00 0. -1.
          3    1    5    5  503    0 -0.47977222567E+03  0.74662914434E+01 -0.27324626961E+03  0.55217810341E+03  0.00000000000E+00 0. -1.
         -4    1    5    5    0  503 -0.74665646224E+02  0.10254111692E+02 -0.81637068715E+02  0.11110677982E+03  0.00000000000E+00 0.  1.
         -3    1    6    6    0  502 -0.27884877362E+02  0.13265342533E+03 -0.27350697829E+03  0.30525491775E+03  0.00000000000E+00 0.  1.
<mgrwt>
<rscale>  0 0.23546489E+04</rscale>
<asrwt>0</asrwt>
<pdfrwt beam="1">  1        2 0.42334971E+00 0.23546489E+04</pdfrwt>
<pdfrwt beam="2">  1       -2 0.77493694E-01 0.23546489E+04</pdfrwt>
<totfact> 0.33138033E+00</totfact>
</mgrwt>
</event>
<event>
12    1  0.1536832E-007  0.1996943E+04  0.7818608E-02  0.8608051E-01
         -1   -1    0    0    0  501 -0.00000000000E+00  0.00000000000E+00  0.55851578090E+03  0.55851578090E+03  0.00000000000E+00 0.  1.
          1   -1    0    0  501    0  0.00000000000E+00 -0.00000000000E+00 -0.17849901529E+04  0.17849901529E+04  0.00000000000E+00 0. -1.
         23    2    1    2    0    0 -0.40580047567E+03  0.64509780506E+03 -0.73763420286E+03  0.10646264003E+04  0.92195178007E+02 0.  0.
        254    2    1    2    0    0  0.40580047567E+03 -0.64509780506E+03 -0.48884016912E+03  0.12788795335E+04  0.90318489028E+03 0.  0.
        -24    2    4    4    0    0  0.23688400811E+03  0.16946583452E+03 -0.29325398319E+03  0.42103959387E+03  0.80272900698E+02 0.  0.
         24    2    4    4    0    0  0.16891646756E+03 -0.81456363958E+03 -0.19558618593E+03  0.85783993959E+03  0.74757674457E+02 0.  0.
         13    1    3    3    0    0 -0.26435904097E+03  0.39330350785E+03 -0.51592652116E+03  0.70053802685E+03  0.00000000000E+00 0.  1.
        -13    1    3    3    0    0 -0.14144143469E+03  0.25179429722E+03 -0.22170768170E+03  0.36408837345E+03  0.00000000000E+00 0. -1.
          4    1    6    6  502    0  0.15104670465E+03 -0.78494693233E+03 -0.17754592506E+03  0.81882803388E+03  0.00000000000E+00 0. -1.
          1    1    5    5  503    0  0.19705232292E+03  0.97831657005E+02 -0.21958219758E+03  0.31083274051E+03  0.00000000000E+00 0. -1.
         -2    1    5    5    0  503  0.39831685188E+02  0.71634177513E+02 -0.73671785614E+02  0.11020685336E+03  0.00000000000E+00 0.  1.
         -3    1    6    6    0  502  0.17869762913E+02 -0.29616707249E+02 -0.18040260875E+02  0.39011905713E+02  0.00000000000E+00 0.  1.
<mgrwt>
<rscale>  0 0.19969428E+04</rscale>
<asrwt>0</asrwt>
<pdfrwt beam="1">  1        1 0.27461387E+00 0.19969428E+04</pdfrwt>
<pdfrwt beam="2">  1       -1 0.85925504E-01 0.19969428E+04</pdfrwt>
<totfact> 0.51746952E+00</totfact>
</mgrwt>
</event>
<event>
12    1  0.1536832E-007  0.3086202E+04  0.7818608E-02  0.8219535E-01
          2   -1    0    0  501    0  0.00000000000E+00  0.00000000000E+00  0.14324446345E+04  0.14324446345E+04  0.00000000000E+00 0. -1.
         -2   -1    0    0    0  501 -0.00000000000E+00 -0.00000000000E+00 -0.16623056827E+04  0.16623056827E+04  0.00000000000E+00 0.  1.
         23    2    1    2    0    0 -0.24659479339E+03 -0.13810452119E+04  0.28912124083E+02  0.14062749627E+04  0.93158415422E+02 0.  0.
        254    2    1    2    0    0  0.24659479339E+03  0.13810452119E+04 -0.25877317232E+03  0.16884753545E+04  0.90326662651E+03 0.  0.
        -24    2    4    4    0    0 -0.31864405821E+03  0.54735764559E+03  0.25449206653E+02  0.63888186975E+03  0.79924673043E+02 0.  0.
         24    2    4    4    0    0  0.56523885159E+03  0.83368756630E+03 -0.28422237898E+03  0.10495934847E+04  0.79587718428E+02 0.  0.
         11    1    3    3    0    0 -0.69630112635E+01 -0.18960261050E+03  0.21553279486E+02  0.19095071953E+03  0.00000000000E+00 0.  1.
        -11    1    3    3    0    0 -0.23963178212E+03 -0.11914426014E+04  0.73588445970E+01  0.12153242432E+04  0.00000000000E+00 0. -1.
          4    1    6    6  502    0  0.14979173284E+03  0.23149998665E+03 -0.11456094331E+03  0.29858669894E+03  0.00000000000E+00 0. -1.
          3    1    5    5  503    0 -0.28515462646E+03  0.47813627297E+03 -0.34830214164E+01  0.55672218202E+03  0.00000000000E+00 0. -1.
         -4    1    5    5    0  503 -0.33489431747E+02  0.69221372625E+02  0.28932228069E+02  0.82159687730E+02  0.00000000000E+00 0.  1.
         -3    1    6    6    0  502  0.41544711875E+03  0.60218757965E+03 -0.16966143566E+03  0.75100678580E+03  0.00000000000E+00 0.  1.
<mgrwt>
<rscale>  0 0.30862021E+04</rscale>
<asrwt>0</asrwt>
<pdfrwt beam="1">  1        2 0.22037610E+00 0.30862021E+04</pdfrwt>
<pdfrwt beam="2">  1       -2 0.25573933E+00 0.30862021E+04</pdfrwt>
<totfact> 0.69829667E-01</totfact>
</mgrwt>
</event>
<event>
12    1  0.1536832E-007  0.1484801E+04  0.7818608E-02  0.8894624E-01
         -2   -1    0    0    0  501 -0.00000000000E+00  0.00000000000E+00  0.31812911346E+03  0.31812911346E+03  0.00000000000E+00 0.  1.
          2   -1    0    0  501    0  0.00000000000E+00 -0.00000000000E+00 -0.17324990664E+04  0.17324990664E+04  0.00000000000E+00 0. -1.
         23    2    1    2    0    0  0.26237171924E+03  0.36515257216E+03 -0.63446942200E+03  0.78292909697E+03  0.90836135000E+02 0.  0.
        254    2    1    2    0    0 -0.26237171924E+03 -0.36515257216E+03 -0.77990053098E+03  0.12676990829E+04  0.89254736938E+03 0.  0.
        -24    2    4    4    0    0 -0.20507801072E+00 -0.47545231579E+03 -0.83646989041E+03  0.96539944690E+03  0.79115534882E+02 0.  0.
         24    2    4    4    0    0 -0.26216664123E+03  0.11029974363E+03  0.56569359431E+02  0.30229963602E+03  0.85367419385E+02 0.  0.
         13    1    3    3    0    0  0.89182609037E+01  0.60356076021E+02 -0.10606078430E+03  0.12235718719E+03  0.00000000000E+00 0.  1.
        -13    1    3    3    0    0  0.25345345834E+03  0.30479649614E+03 -0.52840863770E+03  0.66057190979E+03  0.00000000000E+00 0. -1.
          4    1    6    6  502    0 -0.10576513469E+02  0.22376899367E+02  0.22811444941E+02  0.33659326831E+02  0.00000000000E+00 0. -1.
          3    1    5    5  503    0  0.10742278050E+02 -0.51513532618E+02 -0.14488542710E+03  0.15414547534E+03  0.00000000000E+00 0. -1.
         -4    1    5    5    0  503 -0.10947356061E+02 -0.42393878318E+03 -0.69158446331E+03  0.81125397156E+03  0.00000000000E+00 0.  1.
         -3    1    6    6    0  502 -0.25159012776E+03  0.87922844264E+02  0.33757914490E+02  0.26864030919E+03  0.00000000000E+00 0.  1.
<mgrwt>
<rscale>  0 0.14848009E+04</rscale>
<asrwt>0</asrwt>
<pdfrwt beam="1">  1        2 0.26653832E+00 0.14848009E+04</pdfrwt>
<pdfrwt beam="2">  1       -2 0.48942941E-01 0.14848009E+04</pdfrwt>
<totfact> 0.35963892E+01</totfact>
</mgrwt>
</event>
<event>
12    1  0.1536832E-007  0.3217027E+04  0.7818608E-02  0.8184335E-01
         -1   -1    0    0    0  501 -0.00000000000E+00  0.00000000000E+00  0.12745301876E+04  0.12745301876E+04  0.00000000000E+00 0.  1.
          1   -1    0    0  501    0  0.00000000000E+00 -0.00000000000E+00 -0.20300152176E+04  0.20300152176E+04  0.00000000000E+00 0. -1.
         23    2    1    2    0    0  0.11979924691E+04  0.81055594085E+03 -0.25544508818E+02  0.14496400615E+04  0.92827241871E+02 0.  0.
        254    2    1    2    0    0 -0.11979924691E+04 -0.81055594085E+03 -0.72994052115E+03  0.18549053436E+04  0.90314659951E+03 0.  0.
        -24    2    4    4    0    0 -0.10332394928E+04 -0.21434630052E+03 -0.60512177483E+03  0.12189066335E+04  0.77671311704E+02 0.  0.
         24    2    4    4    0    0 -0.16475297626E+03 -0.59620964034E+03 -0.12481874632E+03  0.63599871017E+03  0.79405046973E+02 0.  0.
         11    1    3    3    0    0  0.20465459644E+03  0.10749932258E+03  0.18214516266E+02  0.23188656020E+03  0.00000000000E+00 0. -1.
        -11    1    3    3    0    0  0.99333787265E+03  0.70305661828E+03 -0.43759025085E+02  0.12177535013E+04  0.00000000000E+00 0.  1.
          4    1    6    6  502    0 -0.96426010075E+02 -0.31048793845E+03 -0.26455728679E+02  0.32619111104E+03  0.00000000000E+00 0. -1.
          3    1    5    5  503    0 -0.67878848648E+03 -0.12247786883E+03 -0.35766734471E+03  0.77696883284E+03  0.00000000000E+00 0. -1.
         -4    1    5    5    0  503 -0.35445100635E+03 -0.91868431685E+02 -0.24745443012E+03  0.44193780064E+03  0.00000000000E+00 0.  1.
         -3    1    6    6    0  502 -0.68326966180E+02 -0.28572170188E+03 -0.98363017643E+02  0.30980759912E+03  0.00000000000E+00 0.  1.
<mgrwt>
<rscale>  0 0.32170270E+04</rscale>
<asrwt>0</asrwt>
<pdfrwt beam="1">  1        1 0.31231003E+00 0.32170270E+04</pdfrwt>
<pdfrwt beam="2">  1       -1 0.19608157E+00 0.32170270E+04</pdfrwt>
<totfact> 0.38059869E-01</totfact>
</mgrwt>
</event>
<event>
12    1  0.1536832E-007  0.2050642E+04  0.7818608E-02  0.8583303E-01
         -2   -1    0    0    0  501 -0.00000000000E+00  0.00000000000E+00  0.43740909254E+03  0.43740909254E+03  0.00000000000E+00 0.  1.
          2   -1    0    0  501    0  0.00000000000E+00 -0.00000000000E+00 -0.24034323139E+04  0.24034323139E+04  0.00000000000E+00 0. -1.
         23    2    1    2    0    0 -0.16001404907E+03  0.79546047537E+03 -0.10055653150E+04  0.12958532312E+04  0.98550141169E+02 0.  0.
        254    2    1    2    0    0  0.16001404907E+03 -0.79546047537E+03 -0.96045790636E+03  0.15449881752E+04  0.89785700863E+03 0.  0.
        -24    2    4    4    0    0  0.32320631808E+02 -0.41520142435E+02  0.16088094811E+03  0.18540007434E+03  0.75643655580E+02 0.  0.
         24    2    4    4    0    0  0.12769341726E+03 -0.75394033293E+03 -0.11213388545E+04  0.13595881009E+04  0.79670214756E+02 0.  0.
         11    1    3    3    0    0 -0.12075458172E+03  0.42306087834E+03 -0.59763211251E+03  0.74210937044E+03  0.00000000000E+00 0. -1.
        -11    1    3    3    0    0 -0.39259467345E+02  0.37239959703E+03 -0.40793320245E+03  0.55374386074E+03  0.00000000000E+00 0.  1.
          4    1    6    6  502    0  0.35971178952E+02 -0.42061238424E+03 -0.58269486871E+03  0.71954291985E+03  0.00000000000E+00 0. -1.
          3    1    5    5  503    0  0.32297164370E+01 -0.50448093166E+00 -0.82914152812E+01  0.89125269503E+01  0.00000000000E+00 0. -1.
         -4    1    5    5    0  503  0.29090915371E+02 -0.41015661503E+02  0.16917236339E+03  0.17648754738E+03  0.00000000000E+00 0.  1.
         -3    1    6    6    0  502  0.91722238306E+02 -0.33332794870E+03 -0.53864398576E+03  0.64004518104E+03  0.00000000000E+00 0.  1.
<mgrwt>
<rscale>  0 0.20506420E+04</rscale>
<asrwt>0</asrwt>
<pdfrwt beam="1">  1        2 0.36975882E+00 0.20506420E+04</pdfrwt>
<pdfrwt beam="2">  1       -2 0.67293706E-01 0.20506420E+04</pdfrwt>
<totfact> 0.74187891E+00</totfact>
</mgrwt>
</event>
<event>
12    1  0.1536832E-007  0.2791561E+04  0.7818608E-02  0.8305893E-01
         -2   -1    0    0    0  501 -0.00000000000E+00  0.00000000000E+00  0.60356497754E+03  0.60356497754E+03  0.00000000000E+00 0.  1.
          2   -1    0    0  501    0  0.00000000000E+00 -0.00000000000E+00 -0.32278270177E+04  0.32278270177E+04  0.00000000000E+00 0. -1.
         23    2    1    2    0    0 -0.90090359861E+03 -0.13776679010E+03 -0.23386644506E+04  0.25116400519E+04  0.91527892494E+02 0.  0.
        254    2    1    2    0    0  0.90090359861E+03  0.13776679010E+03 -0.28559758949E+03  0.13197519433E+04  0.91080855637E+03 0.  0.
        -24    2    4    4    0    0  0.59698364581E+03  0.47238325972E+03 -0.37457252443E+03  0.85222511364E+03  0.80297265356E+02 0.  0.
         24    2    4    4    0    0  0.30391995280E+03 -0.33461646962E+03  0.88974934941E+02  0.46752682970E+03  0.79556759526E+02 0.  0.
         13    1    3    3    0    0 -0.57096159446E+03 -0.12920367801E+03 -0.14548942395E+04  0.15682499740E+04  0.00000000000E+00 0.  1.
        -13    1    3    3    0    0 -0.32994200415E+03 -0.85631120902E+01 -0.88377021111E+03  0.94339007788E+03  0.00000000000E+00 0. -1.
          4    1    6    6  502    0 -0.31995929505E+01 -0.16066492613E+02  0.12827313282E+01  0.16432132533E+02  0.00000000000E+00 0. -1.
          1    1    5    5  503    0 -0.10296030484E+01  0.68548692259E+01 -0.16498655126E+00  0.69337244756E+01  0.00000000000E+00 0. -1.
         -4    1    5    5    0  503  0.59801324886E+03  0.46552839050E+03 -0.37440753788E+03  0.84529138916E+03  0.00000000000E+00 0.  1.
         -3    1    6    6    0  502  0.30711954575E+03 -0.31854997701E+03  0.87692203613E+02  0.45109469716E+03  0.00000000000E+00 0.  1.
<mgrwt>
<rscale>  0 0.27915611E+04</rscale>
<asrwt>0</asrwt>
<pdfrwt beam="1">  1        2 0.49658877E+00 0.27915611E+04</pdfrwt>
<pdfrwt beam="2">  1       -2 0.92856150E-01 0.27915611E+04</pdfrwt>
<totfact> 0.10639519E+00</totfact>
</mgrwt>
</event>
<event>
12    1  0.1536832E-007  0.1475003E+04  0.7818608E-02  0.8901248E-01
         -2   -1    0    0    0  501 -0.00000000000E+00  0.00000000000E+00  0.18145885172E+03  0.18145885172E+03  0.00000000000E+00 0.  1.
          2   -1    0    0  501    0  0.00000000000E+00 -0.00000000000E+00 -0.29974194617E+04  0.29974194617E+04  0.00000000000E+00 0. -1.
         23    2    1    2    0    0  0.39641187258E+03  0.18877382374E+03 -0.67606185333E+03  0.81141491287E+03  0.92501902958E+02 0.  0.
        254    2    1    2    0    0 -0.39641187258E+03 -0.18877382374E+03 -0.21398987566E+04  0.23674634005E+04  0.91265455403E+03 0.  0.
        -24    2    4    4    0    0 -0.43175625107E+03  0.17421950577E+03 -0.18062906206E+04  0.18669170173E+04  0.76989914592E+02 0.  0.
         24    2    4    4    0    0  0.35344378489E+02 -0.36299332951E+03 -0.33360813599E+03  0.50054638318E+03  0.78986777108E+02 0.  0.
         11    1    3    3    0    0  0.31076830723E+03  0.10316681630E+03 -0.48364389145E+03  0.58406484786E+03  0.00000000000E+00 0.  1.
        -11    1    3    3    0    0  0.85643565346E+02  0.85607007436E+02 -0.19241796188E+03  0.22735006501E+03  0.00000000000E+00 0. -1.
          4    1    6    6  502    0 -0.28817695161E+01 -0.20734911162E+01 -0.21720569809E+02  0.22008796282E+02  0.00000000000E+00 0. -1.
          1    1    5    5  503    0 -0.20648037437E+03  0.78439231787E+02 -0.70694282546E+03  0.74064500036E+03  0.00000000000E+00 0. -1.
         -2    1    5    5    0  503 -0.22527587669E+03  0.95780273985E+02 -0.10993477952E+04  0.11262720170E+04  0.00000000000E+00 0.  1.
         -3    1    6    6    0  502  0.38226148005E+02 -0.36091983839E+03 -0.31188756619E+03  0.47853758690E+03  0.00000000000E+00 0.  1.
<mgrwt>
<rscale>  0 0.14750028E+04</rscale>
<asrwt>0</asrwt>
<pdfrwt beam="1">  1        2 0.46114150E+00 0.14750028E+04</pdfrwt>
<pdfrwt beam="2">  1       -2 0.27916744E-01 0.14750028E+04</pdfrwt>
<totfact> 0.19983123E+01</totfact>
</mgrwt>
</event>
<event>
12    1  0.1536832E-007  0.2370168E+04  0.7818608E-02  0.8450757E-01
          1   -1    0    0  501    0  0.00000000000E+00  0.00000000000E+00  0.18136557835E+04  0.18136557835E+04  0.00000000000E+00 0. -1.
         -1   -1    0    0    0  501 -0.00000000000E+00 -0.00000000000E+00 -0.77436083651E+03  0.77436083651E+03  0.00000000000E+00 0.  1.
         23    2    1    2    0    0  0.85610904219E+03  0.53199015644E+03  0.53328231406E+03  0.11440129223E+04  0.91865778038E+02 0.  0.
        254    2    1    2    0    0 -0.85610904219E+03 -0.53199015644E+03  0.50601263293E+03  0.14440036977E+04  0.90175477582E+03 0.  0.
        -24    2    4    4    0    0 -0.70130442693E+03  0.58230877507E+02  0.12287298231E+03  0.71849424729E+03  0.76925153676E+02 0.  0.
         24    2    4    4    0    0 -0.15480461526E+03 -0.59022103394E+03  0.38313965062E+03  0.72550945045E+03  0.85103660297E+02 0.  0.
         13    1    3    3    0    0  0.10985622116E+02  0.93358745743E+01 -0.31875740424E+01  0.14764927213E+02  0.00000000000E+00 0.  1.
        -13    1    3    3    0    0  0.84512342007E+03  0.52265428186E+03  0.53646988810E+03  0.11292479951E+04  0.00000000000E+00 0. -1.
          2    1    6    6  502    0 -0.13614011825E+03 -0.39589012726E+03  0.23210866844E+03  0.47868315056E+03  0.00000000000E+00 0. -1.
          3    1    5    5  503    0 -0.18826119177E+03  0.49778604811E+02  0.29432205631E+02  0.19694273419E+03  0.00000000000E+00 0. -1.
         -4    1    5    5    0  503 -0.51304323517E+03  0.84522726960E+01  0.93440776679E+02  0.52155151309E+03  0.00000000000E+00 0.  1.
         -1    1    6    6    0  502 -0.18664497010E+02 -0.19433090668E+03  0.15103098218E+03  0.24682629989E+03  0.00000000000E+00 0.  1.
<mgrwt>
<rscale>  0 0.23701679E+04</rscale>
<asrwt>0</asrwt>
<pdfrwt beam="1">  1        1 0.27902397E+00 0.23701679E+04</pdfrwt>
<pdfrwt beam="2">  1       -1 0.11913244E+00 0.23701679E+04</pdfrwt>
<totfact> 0.22576122E+00</totfact>
</mgrwt>
</event>
<event>
12    1  0.1536832E-007  0.1856962E+04  0.7818608E-02  0.8676581E-01
          2   -1    0    0  501    0  0.00000000000E+00  0.00000000000E+00  0.15097687089E+04  0.15097687089E+04  0.00000000000E+00 0.  1.
         -2   -1    0    0    0  501 -0.00000000000E+00 -0.00000000000E+00 -0.57099945732E+03  0.57099945732E+03  0.00000000000E+00 0. -1.
         23    2    1    2    0    0  0.15376317414E+02 -0.50739055490E+03 -0.17647367839E+03  0.54690975762E+03  0.10141852626E+03 0.  0.
        254    2    1    2    0    0 -0.15376317414E+02  0.50739055490E+03  0.11152429299E+04  0.15338584086E+04  0.92264468698E+03 0.  0.
        -24    2    4    4    0    0 -0.20806058285E+03  0.37997016210E+03  0.11979552736E+04  0.12760197329E+04  0.73912047490E+02 0.  0.
         24    2    4    4    0    0  0.19268426544E+03  0.12742039280E+03 -0.82712343718E+02  0.25783867570E+03  0.79222902205E+02 0.  0.
         11    1    3    3    0    0  0.31362815231E+02 -0.33431201901E+03 -0.16106981798E+03  0.37241326305E+03  0.00000000000E+00 0.  1.
        -11    1    3    3    0    0 -0.15986497817E+02 -0.17307853589E+03 -0.15403860414E+02  0.17449649456E+03  0.00000000000E+00 0. -1.
          2    1    6    6  502    0  0.17504488841E+02 -0.70369846931E+01 -0.21656849509E+02  0.28721862993E+02  0.00000000000E+00 0. -1.
          3    1    5    5  503    0 -0.77332764077E+02  0.21806392975E+03  0.63045560081E+03  0.67157017388E+03  0.00000000000E+00 0. -1.
         -4    1    5    5    0  503 -0.13072781878E+03  0.16190623235E+03  0.56749967284E+03  0.60444955898E+03  0.00000000000E+00 0.  1.
         -1    1    6    6    0  502  0.17517977660E+03  0.13445737749E+03 -0.61055494209E+02  0.22911681271E+03  0.00000000000E+00 0.  1.
<mgrwt>
<rscale>  0 0.18569622E+04</rscale>
<asrwt>0</asrwt>
<pdfrwt beam="1">  1        2 0.23227211E+00 0.18569622E+04</pdfrwt>
<pdfrwt beam="2">  1       -2 0.87846071E-01 0.18569622E+04</pdfrwt>
<totfact> 0.13162651E+01</totfact>
</mgrwt>
</event>
<event>
12    1  0.1536832E-007  0.2033035E+04  0.7818608E-02  0.8591330E-01
         -1   -1    0    0    0  501 -0.00000000000E+00  0.00000000000E+00  0.42494557004E+03  0.42494557004E+03  0.00000000000E+00 0.  1.
          1   -1    0    0  501    0  0.00000000000E+00 -0.00000000000E+00 -0.24316230821E+04  0.24316230821E+04  0.00000000000E+00 0. -1.
         23    2    1    2    0    0 -0.31907520524E+03 -0.16177652565E+03  0.22061475167E+03  0.43143062443E+03  0.97369832040E+02 0.  0.
        254    2    1    2    0    0  0.31907520524E+03  0.16177652565E+03 -0.22272922637E+04  0.24251380277E+04  0.89021513944E+03 0.  0.
        -24    2    4    4    0    0  0.10154171365E+03  0.61416112367E+02  0.35489278092E+02  0.14832975011E+03  0.81606172802E+02 0.  0.
         24    2    4    4    0    0  0.21753349159E+03  0.10036041328E+03 -0.22627815418E+04  0.22768082776E+04  0.79262818438E+02 0.  0.
         13    1    3    3    0    0 -0.22977787682E+03 -0.11194145704E+03  0.10298013828E+03  0.27556064915E+03  0.00000000000E+00 0. -1.
        -13    1    3    3    0    0 -0.89297328419E+02 -0.49835068605E+02  0.11763461339E+03  0.15586997528E+03  0.00000000000E+00 0.  1.
          2    1    6    6  502    0  0.80930991094E-02  0.20511083389E+02 -0.20333909263E+03  0.20437096467E+03  0.00000000000E+00 0. -1.
          1    1    5    5  503    0  0.76433186022E+02  0.80327480764E+02  0.17920718939E+02  0.11231958092E+03  0.00000000000E+00 0. -1.
         -2    1    5    5    0  503  0.25108527624E+02 -0.18911368397E+02  0.17568559153E+02  0.36010169186E+02  0.00000000000E+00 0.  1.
         -1    1    6    6    0  502  0.21752539849E+03  0.79849329893E+02 -0.20594424492E+04  0.20724373129E+04  0.00000000000E+00 0.  1.
<mgrwt>
<rscale>  0 0.20330346E+04</rscale>
<asrwt>0</asrwt>
<pdfrwt beam="1">  1        1 0.37409585E+00 0.20330346E+04</pdfrwt>
<pdfrwt beam="2">  1       -1 0.65376243E-01 0.20330346E+04</pdfrwt>
<totfact> 0.33157128E+00</totfact>
</mgrwt>
</event>
<event>
12    1  0.1536832E-007  0.1584357E+04  0.7818608E-02  0.8830216E-01
          3   -1    0    0  501    0  0.00000000000E+00  0.00000000000E+00  0.84252482803E+03  0.84252482803E+03  0.00000000000E+00 0. -1.
         -3   -1    0    0    0  501 -0.00000000000E+00 -0.00000000000E+00 -0.74484079214E+03  0.74484079214E+03  0.00000000000E+00 0.  1.
         23    2    1    2    0    0 -0.11476558561E+03  0.42553207192E+03 -0.30007810121E+03  0.54114823353E+03  0.92443820506E+02 0.  0.
        254    2    1    2    0    0  0.11476558561E+03 -0.42553207192E+03  0.39776213710E+03  0.10462173866E+04  0.86145656799E+03 0.  0.
        -24    2    4    4    0    0 -0.15371884863E+03 -0.47324503340E+03  0.53146374421E+03  0.73212687005E+03  0.77237920597E+02 0.  0.
         24    2    4    4    0    0  0.26848443424E+03  0.47712961480E+02 -0.13370160711E+03  0.31409051659E+03  0.80101902268E+02 0.  0.
         11    1    3    3    0    0  0.17232304712E+01  0.15606468882E+03 -0.11850153966E+03  0.19596369950E+03  0.00000000000E+00 0. -1.
        -11    1    3    3    0    0 -0.11648881608E+03  0.26946738310E+03 -0.18157656154E+03  0.34518453402E+03  0.00000000000E+00 0.  1.
          2    1    6    6  502    0  0.21472500597E+03  0.59672514382E+01 -0.11424908108E+03  0.24330081957E+03  0.00000000000E+00 0. -1.
          3    1    5    5  503    0 -0.29842114620E+02 -0.96444811856E+02  0.15693773621E+03  0.18660548380E+03  0.00000000000E+00 0. -1.
         -2    1    5    5    0  503 -0.12387673401E+03 -0.37680022155E+03  0.37452600801E+03  0.54552138625E+03  0.00000000000E+00 0.  1.
         -1    1    6    6    0  502  0.53759428270E+02  0.41745710042E+02 -0.19452526034E+02  0.70789697018E+02  0.00000000000E+00 0.  1.
<mgrwt>
<rscale>  0 0.15843571E+04</rscale>
<asrwt>0</asrwt>
<pdfrwt beam="1">  1        3 0.12961920E+00 0.15843571E+04</pdfrwt>
<pdfrwt beam="2">  1       -3 0.11459089E+00 0.15843571E+04</pdfrwt>
<totfact> 0.74464482E-01</totfact>
</mgrwt>
</event>
<event>
12    1  0.1536832E-007  0.1838642E+04  0.7818608E-02  0.8686016E-01
         -1   -1    0    0    0  501 -0.00000000000E+00  0.00000000000E+00  0.34297930633E+03  0.34297930633E+03  0.00000000000E+00 0.  1.
          1   -1    0    0  501    0  0.00000000000E+00 -0.00000000000E+00 -0.24641469329E+04  0.24641469329E+04  0.00000000000E+00 0. -1.
         23    2    1    2    0    0 -0.35336937867E+03 -0.58489972473E+03 -0.67180992170E+03  0.96268475359E+03  0.91955196393E+02 0.  0.
        254    2    1    2    0    0  0.35336937867E+03  0.58489972473E+03 -0.14493577049E+04  0.18444414857E+04  0.91342708059E+03 0.  0.
        -24    2    4    4    0    0  0.31621846771E+03 -0.76782756627E+02 -0.11852572666E+03  0.35560514327E+03  0.80727684237E+02 0.  0.
         24    2    4    4    0    0  0.37150910952E+02  0.66168248135E+03 -0.13308319783E+04  0.14888363424E+04  0.79473289976E+02 0.  0.
         11    1    3    3    0    0 -0.29220003287E+03 -0.53145426428E+03 -0.61365406482E+03  0.86278375361E+03  0.00000000000E+00 0. -1.
        -11    1    3    3    0    0 -0.61169345796E+02 -0.53445460449E+02 -0.58155856878E+02  0.99900999980E+02  0.00000000000E+00 0.  1.
          2    1    6    6  502    0  0.36853971684E+02  0.62593093860E+03 -0.12097590226E+04  0.13625948216E+04  0.00000000000E+00 0. -1.
          1    1    5    5  503    0  0.31445305075E+03 -0.69742380049E+02 -0.12536572499E+03  0.34563171976E+03  0.00000000000E+00 0. -1.
         -2    1    5    5    0  503  0.17654169631E+01 -0.70403765774E+01  0.68399983298E+01  0.99734235124E+01  0.00000000000E+00 0.  1.
         -1    1    6    6    0  502  0.29693926888E+00  0.35751542757E+02 -0.12107295565E+03  0.12624152080E+03  0.00000000000E+00 0.  1.
<mgrwt>
<rscale>  0 0.18386423E+04</rscale>
<asrwt>0</asrwt>
<pdfrwt beam="1">  1        1 0.37909953E+00 0.18386423E+04</pdfrwt>
<pdfrwt beam="2">  1       -1 0.52766047E-01 0.18386423E+04</pdfrwt>
<totfact> 0.48885700E+00</totfact>
</mgrwt>
</event>
<event>
12    1  0.1536832E-007  0.1416439E+04  0.7818608E-02  0.8942005E-01
         -2   -1    0    0    0  501 -0.00000000000E+00  0.00000000000E+00  0.10531371319E+04  0.10531371319E+04  0.00000000000E+00 0.  1.
          2   -1    0    0  501    0  0.00000000000E+00 -0.00000000000E+00 -0.47626713061E+03  0.47626713061E+03  0.00000000000E+00 0. -1.
         23    2    1    2    0    0  0.10221951987E+03 -0.39894850009E+03  0.30796813421E+03  0.52294009361E+03  0.94938052697E+02 0.  0.
        254    2    1    2    0    0 -0.10221951987E+03  0.39894850009E+03  0.26890186704E+03  0.10064641689E+04  0.87809633478E+03 0.  0.
        -24    2    4    4    0    0 -0.18335242945E+03 -0.56056036315E+02  0.45594896724E+03  0.50131673051E+03  0.81661563591E+02 0.  0.
         24    2    4    4    0    0  0.81132909577E+02  0.45500453640E+03 -0.18704710021E+03  0.50514743835E+03  0.81090317659E+02 0.  0.
         11    1    3    3    0    0  0.11788987885E+03 -0.32030358269E+03  0.23379949541E+03  0.41370836670E+03  0.00000000000E+00 0.  1.
        -11    1    3    3    0    0 -0.15670358980E+02 -0.78644917391E+02  0.74168638798E+02  0.10923172691E+03  0.00000000000E+00 0. -1.
          4    1    6    6  502    0  0.25458662277E+02  0.33707644421E+03 -0.14801560858E+03  0.36902207673E+03  0.00000000000E+00 0. -1.
          3    1    5    5  503    0 -0.12823692856E+03 -0.30777832293E+02  0.39016491013E+03  0.41185026637E+03  0.00000000000E+00 0. -1.
         -4    1    5    5    0  503 -0.55115500886E+02 -0.25278204022E+02  0.65784057110E+02  0.89466464143E+02  0.00000000000E+00 0.  1.
         -3    1    6    6    0  502  0.55674247300E+02  0.11792809219E+03 -0.39031491622E+02  0.13612536163E+03  0.00000000000E+00 0.  1.
<mgrwt>
<rscale>  0 0.14164386E+04</rscale>
<asrwt>0</asrwt>
<pdfrwt beam="1">  1        2 0.73271866E-01 0.14164386E+04</pdfrwt>
<pdfrwt beam="2">  1       -2 0.16202110E+00 0.14164386E+04</pdfrwt>
<totfact> 0.15400536E+01</totfact>
</mgrwt>
</event>
<event>
12    1  0.1536832E-007  0.2624775E+04  0.7818608E-02  0.8359834E-01
          2   -1    0    0  501    0  0.00000000000E+00  0.00000000000E+00  0.99683026646E+03  0.99683026646E+03  0.00000000000E+00 0.  1.
         -2   -1    0    0    0  501 -0.00000000000E+00 -0.00000000000E+00 -0.17278374008E+04  0.17278374008E+04  0.00000000000E+00 0. -1.
         23    2    1    2    0    0 -0.84683509068E+02  0.36168681730E+03  0.81188079206E+03  0.89732299061E+03  0.89718885658E+02 0.  0.
        254    2    1    2    0    0  0.84683509068E+02 -0.36168681730E+03 -0.15428879264E+04  0.18273446766E+04  0.90592315528E+03 0.  0.
        -24    2    4    4    0    0  0.14517150350E+03 -0.45391558439E+02  0.66426137710E+02  0.18415930341E+03  0.79793848488E+02 0.  0.
         24    2    4    4    0    0 -0.60487994432E+02 -0.31629525887E+03 -0.16093140641E+04  0.16431853732E+04  0.80404761006E+02 0.  0.
         13    1    3    3    0    0 -0.62860122876E+02  0.28189094647E+03  0.53037574606E+03  0.60391417665E+03  0.00000000000E+00 0. -1.
        -13    1    3    3    0    0 -0.21823386192E+02  0.79795870835E+02  0.28150504600E+03  0.29340881396E+03  0.00000000000E+00 0.  1.
          4    1    6    6  502    0 -0.21759179903E+02 -0.26217322649E+03 -0.13553957862E+04  0.13806904069E+04  0.00000000000E+00 0. -1.
          3    1    5    5  503    0  0.15537664494E+03 -0.41672616868E+02  0.61341856454E+02  0.17216658254E+03  0.00000000000E+00 0. -1.
         -4    1    5    5    0  503 -0.10205141437E+02 -0.37189415712E+01  0.50842812564E+01  0.11992720878E+02  0.00000000000E+00 0.  1.
         -3    1    6    6    0  502 -0.38728814529E+02 -0.54122032379E+02 -0.25391827792E+03  0.26249496629E+03  0.00000000000E+00 0.  1.
<mgrwt>
<rscale>  0 0.26247747E+04</rscale>
<asrwt>0</asrwt>
<pdfrwt beam="1">  1        2 0.15335850E+00 0.26247747E+04</pdfrwt>
<pdfrwt beam="2">  1       -2 0.26582114E+00 0.26247747E+04</pdfrwt>
<totfact> 0.11482709E+00</totfact>
</mgrwt>
</event>
<event>
12    1  0.1536832E-007  0.2396944E+04  0.7818608E-02  0.8440649E-01
          1   -1    0    0  501    0  0.00000000000E+00  0.00000000000E+00  0.90091764661E+03  0.90091764661E+03  0.00000000000E+00 0. -1.
         -1   -1    0    0    0  501 -0.00000000000E+00 -0.00000000000E+00 -0.15943020201E+04  0.15943020201E+04  0.00000000000E+00 0.  1.
         23    2    1    2    0    0 -0.21737387801E+03 -0.76605396408E+03  0.35709500449E+03  0.87737547340E+03  0.90447777065E+02 0.  0.
        254    2    1    2    0    0  0.21737387801E+03  0.76605396408E+03 -0.10504793780E+04  0.16178441933E+04  0.93798871611E+03 0.  0.
        -24    2    4    4    0    0  0.13871309068E+03  0.76564994950E+03 -0.11990041420E+04  0.14315490855E+04  0.79124489599E+02 0.  0.
         24    2    4    4    0    0  0.78660787334E+02  0.40401458130E+00  0.14852476404E+03  0.18629510784E+03  0.80365284664E+02 0.  0.
         11    1    3    3    0    0 -0.20817703759E+02 -0.13046240979E+03  0.93099319424E+02  0.16162085396E+03  0.00000000000E+00 0.  1.
        -11    1    3    3    0    0 -0.19655617425E+03 -0.63559155428E+03  0.26399568507E+03  0.71575461944E+03  0.00000000000E+00 0. -1.
          2    1    6    6  502    0  0.35841509995E+01 -0.21423830095E+02  0.78114515343E+02  0.81078382702E+02  0.00000000000E+00 0. -1.
          1    1    5    5  503    0  0.13535620715E+03  0.72758735745E+03 -0.11035528221E+04  0.13287337946E+04  0.00000000000E+00 0. -1.
         -2    1    5    5    0  503  0.33568835287E+01  0.38062592044E+02 -0.95451319886E+02  0.10281529093E+03  0.00000000000E+00 0.  1.
         -3    1    6    6    0  502  0.75076636334E+02  0.21827844676E+02  0.70410248695E+02  0.10521672513E+03  0.00000000000E+00 0.  1.
<mgrwt>
<rscale>  0 0.23969437E+04</rscale>
<asrwt>0</asrwt>
<pdfrwt beam="1">  1        1 0.13860271E+00 0.23969437E+04</pdfrwt>
<pdfrwt beam="2">  1       -1 0.24527723E+00 0.23969437E+04</pdfrwt>
<totfact> 0.12188494E+00</totfact>
</mgrwt>
</event>
<event>
12    1  0.1536832E-007  0.1681525E+04  0.7818608E-02  0.8771972E-01
         -4   -1    0    0    0  501 -0.00000000000E+00  0.00000000000E+00  0.43749943600E+03  0.43749943600E+03  0.00000000000E+00 0.  1.
          4   -1    0    0  501    0  0.00000000000E+00 -0.00000000000E+00 -0.16157320249E+04  0.16157320249E+04  0.00000000000E+00 0. -1.
         23    2    1    2    0    0  0.10138937758E+03  0.26043292426E+03  0.22640700605E+03  0.37053807084E+03  0.89068600687E+02 0.  0.
        254    2    1    2    0    0 -0.10138937758E+03 -0.26043292426E+03 -0.14046395950E+04  0.16826933901E+04  0.88336829201E+03 0.  0.
        -24    2    4    4    0    0  0.40920513320E+02 -0.38012838005E+03 -0.16267792273E+03  0.42443732571E+03  0.86665236282E+02 0.  0.
         24    2    4    4    0    0 -0.14230989090E+03  0.11969545579E+03 -0.12419616723E+04  0.12582560644E+04  0.78488349647E+02 0.  0.
         13    1    3    3    0    0  0.10368227986E+03  0.14918915415E+03  0.13123867002E+03  0.22412275070E+03  0.00000000000E+00 0.  1.
        -13    1    3    3    0    0 -0.22929022762E+01  0.11124377011E+03  0.95168336028E+02  0.14641532014E+03  0.00000000000E+00 0. -1.
          4    1    6    6  502    0 -0.13986098546E+03  0.11141714414E+03 -0.12326725539E+04  0.12455747671E+04  0.00000000000E+00 0. -1.
          3    1    5    5  503    0  0.22255202189E+02 -0.27560726179E+03 -0.74351354552E+02  0.28632635349E+03  0.00000000000E+00 0. -1.
         -4    1    5    5    0  503  0.18665311130E+02 -0.10452111826E+03 -0.88326568180E+02  0.13811097222E+03  0.00000000000E+00 0.  1.
         -3    1    6    6    0  502 -0.24489054433E+01  0.82783116491E+01 -0.92891183861E+01  0.12681297332E+02  0.00000000000E+00 0.  1.
<mgrwt>
<rscale>  0 0.16815253E+04</rscale>
<asrwt>0</asrwt>
<pdfrwt beam="1">  1        4 0.24857415E+00 0.16815253E+04</pdfrwt>
<pdfrwt beam="2">  1       -4 0.67307607E-01 0.16815253E+04</pdfrwt>
<totfact> 0.25122232E-01</totfact>
</mgrwt>
</event>
<event>
12    1  0.1536832E-007  0.2620348E+04  0.7818608E-02  0.8361322E-01
         -2   -1    0    0    0  501 -0.00000000000E+00  0.00000000000E+00  0.19906258618E+04  0.19906258618E+04  0.00000000000E+00 0. -1.
          2   -1    0    0  501    0  0.00000000000E+00 -0.00000000000E+00 -0.86231964888E+03  0.86231964888E+03  0.00000000000E+00 0.  1.
         23    2    1    2    0    0  0.54720480037E+02  0.89513023537E+03  0.12883101678E+04  0.15723288897E+04  0.90678442632E+02 0.  0.
        254    2    1    2    0    0 -0.54720480037E+02 -0.89513023537E+03 -0.16000395482E+03  0.12806166209E+04  0.90006955013E+03 0.  0.
        -24    2    4    4    0    0 -0.38701400569E+02 -0.63385761581E+03  0.32978632512E+03  0.71966400662E+03  0.76707148634E+02 0.  0.
         24    2    4    4    0    0 -0.16019079469E+02 -0.26127261956E+03 -0.48979027993E+03  0.56095261433E+03  0.79077965143E+02 0.  0.
         11    1    3    3    0    0  0.54007545655E+02  0.80663124510E+03  0.11092483224E+04  0.13725897498E+04  0.00000000000E+00 0. -1.
        -11    1    3    3    0    0  0.71293438247E+00  0.88498990273E+02  0.17906184536E+03  0.19973913993E+03  0.00000000000E+00 0.  1.
          2    1    6    6  502    0  0.19816857587E+02 -0.33458860969E+02 -0.41816606265E+02  0.57103693239E+02  0.00000000000E+00 0. -1.
          3    1    5    5  503    0 -0.29632793972E+02 -0.11349910696E+03  0.82871579616E+02  0.14362398291E+03  0.00000000000E+00 0. -1.
         -2    1    5    5    0  503 -0.90686065964E+01 -0.52035850886E+03  0.24691474550E+03  0.57604002370E+03  0.00000000000E+00 0.  1.
         -1    1    6    6    0  502 -0.35835937056E+02 -0.22781375859E+03 -0.44797367367E+03  0.50384892109E+03  0.00000000000E+00 0.  1.
<mgrwt>
<rscale>  0 0.26203479E+04</rscale>
<asrwt>0</asrwt>
<pdfrwt beam="1">  1        2 0.13266456E+00 0.26203479E+04</pdfrwt>
<pdfrwt beam="2">  1       -2 0.30625013E+00 0.26203479E+04</pdfrwt>
<totfact> 0.79971443E-01</totfact>
</mgrwt>
</event>
<event>
12    1  0.1536832E-007  0.1721683E+04  0.7818608E-02  0.8749094E-01
          1   -1    0    0  501    0  0.00000000000E+00  0.00000000000E+00  0.16190916182E+04  0.16190916182E+04  0.00000000000E+00 0. -1.
         -1   -1    0    0    0  501 -0.00000000000E+00 -0.00000000000E+00 -0.45769351271E+03  0.45769351271E+03  0.00000000000E+00 0.  1.
         23    2    1    2    0    0 -0.57554464743E+03 -0.16890643237E+03  0.58600487571E+03  0.84581175108E+03  0.11052049508E+03 0.  0.
        254    2    1    2    0    0  0.57554464743E+03  0.16890643237E+03  0.57539322977E+03  0.12309733798E+04  0.90798516996E+03 0.  0.
        -24    2    4    4    0    0  0.66537931848E+03  0.97198985196E+02  0.40685825547E+02  0.67844659784E+03  0.80356515235E+02 0.  0.
         24    2    4    4    0    0 -0.89834671053E+02  0.71707447176E+02  0.53470740422E+03  0.55252678197E+03  0.78495927030E+02 0.  0.
         13    1    3    3    0    0 -0.44900974294E+03 -0.10064128881E+03  0.39295121774E+03  0.60510253494E+03  0.00000000000E+00 0. -1.
        -13    1    3    3    0    0 -0.12653490449E+03 -0.68265143563E+02  0.19305365797E+03  0.24070921614E+03  0.00000000000E+00 0.  1.
          2    1    6    6  502    0 -0.67267524258E+02  0.44050096375E+01  0.28996973970E+03  0.29770249221E+03  0.00000000000E+00 0. -1.
          1    1    5    5  503    0  0.11407370950E+03  0.46524211971E+02 -0.15749583596E+01  0.12320630662E+03  0.00000000000E+00 0. -1.
         -2    1    5    5    0  503  0.55130560898E+03  0.50674773225E+02  0.42260783906E+02  0.55524029122E+03  0.00000000000E+00 0.  1.
         -1    1    6    6    0  502 -0.22567146796E+02  0.67302437539E+02  0.24473766453E+03  0.25482428976E+03  0.00000000000E+00 0.  1.
<mgrwt>
<rscale>  0 0.17216826E+04</rscale>
<asrwt>0</asrwt>
<pdfrwt beam="1">  1        1 0.24909102E+00 0.17216826E+04</pdfrwt>
<pdfrwt beam="2">  1       -1 0.70414387E-01 0.17216826E+04</pdfrwt>
<totfact> 0.10482125E+01</totfact>
</mgrwt>
</event>
<event>
12    1  0.1536832E-007  0.2223992E+04  0.7818608E-02  0.8508508E-01
         -1   -1    0    0    0  501 -0.00000000000E+00  0.00000000000E+00  0.94442411394E+03  0.94442411394E+03  0.00000000000E+00 0.  1.
          1   -1    0    0  501    0  0.00000000000E+00 -0.00000000000E+00 -0.13093009632E+04  0.13093009632E+04  0.00000000000E+00 0. -1.
         23    2    1    2    0    0  0.54352326707E+03  0.66143319199E+03  0.20610387343E+03  0.88510992804E+03  0.89606745080E+02 0.  0.
        254    2    1    2    0    0 -0.54352326707E+03 -0.66143319199E+03 -0.57098072273E+03  0.13686151491E+04  0.90231758900E+03 0.  0.
        -24    2    4    4    0    0 -0.42711174608E+03  0.11830906543E+03 -0.22426681032E+03  0.50306032793E+03  0.79703279224E+02 0.  0.
         24    2    4    4    0    0 -0.11641152099E+03 -0.77974225742E+03 -0.34671391241E+03  0.86555482121E+03  0.86168330850E+02 0.  0.
         11    1    3    3    0    0  0.24307806984E+03  0.30738847802E+03  0.13970291683E+03  0.41604270145E+03  0.00000000000E+00 0.  1.
        -11    1    3    3    0    0  0.30044519723E+03  0.35404471397E+03  0.66400956600E+02  0.46906722660E+03  0.00000000000E+00 0. -1.
          4    1    6    6  502    0  0.13906613991E+02 -0.96385218359E+02 -0.44784379433E+02  0.10718742870E+03  0.00000000000E+00 0. -1.
          1    1    5    5  503    0 -0.97865019874E+02  0.60091379750E+02 -0.42202162798E+02  0.12235014745E+03  0.00000000000E+00 0. -1.
         -2    1    5    5    0  503 -0.32924672621E+03  0.58217685677E+02 -0.18206464753E+03  0.38071018048E+03  0.00000000000E+00 0.  1.
         -3    1    6    6    0  502 -0.13031813498E+03 -0.68335703906E+03 -0.30192953297E+03  0.75836739251E+03  0.00000000000E+00 0.  1.
<mgrwt>
<rscale>  0 0.22239923E+04</rscale>
<asrwt>0</asrwt>
<pdfrwt beam="1">  1        1 0.20143092E+00 0.22239923E+04</pdfrwt>
<pdfrwt beam="2">  1       -1 0.14529602E+00 0.22239923E+04</pdfrwt>
<totfact> 0.30801577E+00</totfact>
</mgrwt>
</event>
<event>
12    1  0.1536832E-007  0.1737672E+04  0.7818608E-02  0.8740165E-01
         -1   -1    0    0    0  501 -0.00000000000E+00  0.00000000000E+00  0.45909686442E+03  0.45909686442E+03  0.00000000000E+00 0.  1.
          1   -1    0    0  501    0  0.00000000000E+00 -0.00000000000E+00 -0.16442638942E+04  0.16442638942E+04  0.00000000000E+00 0. -1.
         23    2    1    2    0    0  0.29157636198E+03  0.52555442813E+03 -0.17760847811E+03  0.63270122734E+03  0.86843766565E+02 0.  0.
        254    2    1    2    0    0 -0.29157636198E+03 -0.52555442813E+03 -0.10075585517E+04  0.14706595313E+04  0.88681508225E+03 0.  0.
        -24    2    4    4    0    0 -0.54162229612E+03 -0.79161444796E+02 -0.53959741708E+03  0.77274097953E+03  0.79636693457E+02 0.  0.
         24    2    4    4    0    0  0.25004593413E+03 -0.44639298333E+03 -0.46796113459E+03  0.69791855175E+03  0.79454494123E+02 0.  0.
         11    1    3    3    0    0  0.19384497905E+03  0.34263272430E+03 -0.15868986822E+03  0.42444732764E+03  0.00000000000E+00 0.  1.
        -11    1    3    3    0    0  0.97731382931E+02  0.18292170383E+03 -0.18918609890E+02  0.20825389971E+03  0.00000000000E+00 0. -1.
          4    1    6    6  502    0  0.18848329407E+03 -0.27004482616E+03 -0.27114810431E+03  0.42658112330E+03  0.00000000000E+00 0. -1.
          1    1    5    5  503    0 -0.31969012335E+03 -0.83703777988E+02 -0.34162505749E+03  0.47530598284E+03  0.00000000000E+00 0. -1.
         -2    1    5    5    0  503 -0.22193217277E+03  0.45423331916E+01 -0.19797235958E+03  0.29743499670E+03  0.00000000000E+00 0.  1.
         -3    1    6    6    0  502  0.61562640060E+02 -0.17634815717E+03 -0.19681303028E+03  0.27133742845E+03  0.00000000000E+00 0.  1.
<mgrwt>
<rscale>  0 0.17376725E+04</rscale>
<asrwt>0</asrwt>
<pdfrwt beam="1">  1        1 0.25296367E+00 0.17376725E+04</pdfrwt>
<pdfrwt beam="2">  1       -1 0.70630288E-01 0.17376725E+04</pdfrwt>
<totfact> 0.99968573E+00</totfact>
</mgrwt>
</event>
<event>
12    1  0.1536832E-007  0.2467145E+04  0.7818608E-02  0.8414785E-01
         -2   -1    0    0    0  501 -0.00000000000E+00  0.00000000000E+00  0.10776037471E+04  0.10776037471E+04  0.00000000000E+00 0.  1.
          2   -1    0    0  501    0  0.00000000000E+00 -0.00000000000E+00 -0.14121154996E+04  0.14121154996E+04  0.00000000000E+00 0. -1.
         23    2    1    2    0    0  0.28061100945E+03  0.39131587062E+03  0.80849588575E+03  0.94551659739E+03  0.92007551065E+02 0.  0.
        254    2    1    2    0    0 -0.28061100945E+03 -0.39131587062E+03 -0.11430076382E+04  0.15442026493E+04  0.91990472974E+03 0.  0.
        -24    2    4    4    0    0 -0.44948178302E+03 -0.22145220410E+03 -0.11842434452E+04  0.12883664699E+04  0.79879104151E+02 0.  0.
         24    2    4    4    0    0  0.16887077357E+03 -0.16986366653E+03  0.41235806969E+02  0.25583617940E+03  0.79879631579E+02 0.  0.
         13    1    3    3    0    0  0.20202767722E+03  0.20424312800E+03  0.46703492303E+03  0.54831747832E+03  0.00000000000E+00 0.  1.
        -13    1    3    3    0    0  0.78583332232E+02  0.18707274262E+03  0.34146096272E+03  0.39719911907E+03  0.00000000000E+00 0. -1.
          4    1    6    6  502    0  0.65486317432E+02 -0.20046421110E+02  0.25696043382E+02  0.73147818939E+02  0.00000000000E+00 0. -1.
          1    1    5    5  503    0 -0.38068836328E+02 -0.22850988160E+02 -0.17495036684E+03  0.18049663381E+03  0.00000000000E+00 0. -1.
         -2    1    5    5    0  503 -0.41141294669E+03 -0.19860121594E+03 -0.10092930784E+04  0.11078698361E+04  0.00000000000E+00 0.  1.
         -1    1    6    6    0  502  0.10338445614E+03 -0.14981724542E+03  0.15539763587E+02  0.18268836046E+03  0.00000000000E+00 0.  1.
<mgrwt>
<rscale>  0 0.24671449E+04</rscale>
<asrwt>0</asrwt>
<pdfrwt beam="1">  1        2 0.21724854E+00 0.24671449E+04</pdfrwt>
<pdfrwt beam="2">  1       -2 0.16578519E+00 0.24671449E+04</pdfrwt>
<totfact> 0.29106263E+00</totfact>
</mgrwt>
</event>
<event>
12    1  0.1536832E-007  0.1931290E+04  0.7818608E-02  0.8639436E-01
         -2   -1    0    0    0  501 -0.00000000000E+00  0.00000000000E+00  0.74930859509E+03  0.74930859509E+03  0.00000000000E+00 0.  1.
          2   -1    0    0  501    0  0.00000000000E+00 -0.00000000000E+00 -0.12444409109E+04  0.12444409109E+04  0.00000000000E+00 0. -1.
         23    2    1    2    0    0 -0.43333786643E+03 -0.22017263735E+03  0.39517396869E+03  0.63101168989E+03  0.75865608328E+02 0.  0.
        254    2    1    2    0    0  0.43333786643E+03  0.22017263735E+03 -0.89030628450E+03  0.13627378161E+04  0.91002822951E+03 0.  0.
        -24    2    4    4    0    0 -0.72328875874E+02 -0.26762124174E+03 -0.43471618638E+03  0.52166392361E+03  0.79388230764E+02 0.  0.
         24    2    4    4    0    0  0.50566674231E+03  0.48779387908E+03 -0.45559009813E+03  0.84107389250E+03  0.78747903979E+02 0.  0.
         13    1    3    3    0    0 -0.27872448758E+03 -0.15705979558E+03  0.30111394020E+03  0.43934579131E+03  0.00000000000E+00 0.  1.
        -13    1    3    3    0    0 -0.15461337886E+03 -0.63112841769E+02  0.94060028486E+02  0.19166589858E+03  0.00000000000E+00 0. -1.
          4    1    6    6  502    0  0.30443080607E+03  0.25598435837E+03 -0.22353592925E+03  0.45626134954E+03  0.00000000000E+00 0. -1.
          1    1    5    5  503    0 -0.86631164832E+02 -0.22498517279E+03 -0.38814214764E+03  0.45692188990E+03  0.00000000000E+00 0. -1.
         -2    1    5    5    0  503  0.14302288958E+02 -0.42636068945E+02 -0.46574038743E+02  0.64742033713E+02  0.00000000000E+00 0.  1.
         -3    1    6    6    0  502  0.20123593624E+03  0.23180952072E+03 -0.23205416887E+03  0.38481254296E+03  0.00000000000E+00 0.  1.
<mgrwt>
<rscale>  0 0.19312900E+04</rscale>
<asrwt>0</asrwt>
<pdfrwt beam="1">  1        2 0.19145245E+00 0.19312900E+04</pdfrwt>
<pdfrwt beam="2">  1       -2 0.11527824E+00 0.19312900E+04</pdfrwt>
<totfact> 0.97613447E+00</totfact>
</mgrwt>
</event>
<event>
12    1  0.1536832E-007  0.1656385E+04  0.7818608E-02  0.8786638E-01
         -2   -1    0    0    0  501 -0.00000000000E+00  0.00000000000E+00  0.41395671634E+03  0.41395671634E+03  0.00000000000E+00 0.  1.
          2   -1    0    0  501    0  0.00000000000E+00 -0.00000000000E+00 -0.16569430147E+04  0.16569430147E+04  0.00000000000E+00 0. -1.
         23    2    1    2    0    0  0.53887806535E+03 -0.77179973057E+02 -0.62063393899E+03  0.83089692272E+03  0.94111064146E+02 0.  0.
        254    2    1    2    0    0 -0.53887806535E+03  0.77179973057E+02 -0.62235235941E+03  0.12400028084E+04  0.92408775986E+03 0.  0.
        -24    2    4    4    0    0 -0.77315138393E+03  0.11220536408E+03 -0.32161073110E+03  0.84859904186E+03  0.79584956382E+02 0.  0.
         24    2    4    4    0    0  0.23427331858E+03 -0.35025391020E+02 -0.30074162831E+03  0.39140376650E+03  0.81489972474E+02 0.  0.
         13    1    3    3    0    0  0.54229047096E+03 -0.73414875367E+02 -0.61302357090E+03  0.82174606619E+03  0.00000000000E+00 0. -1.
        -13    1    3    3    0    0 -0.34124056105E+01 -0.37650976907E+01 -0.76103680944E+01  0.91508565284E+01  0.00000000000E+00 0.  1.
          2    1    6    6  502    0  0.18159667604E+03 -0.94604507361E+01 -0.26929531288E+03  0.32494125379E+03  0.00000000000E+00 0. -1.
          3    1    5    5  503    0 -0.63310045031E+03  0.12258420197E+03 -0.26432707150E+03  0.69693031753E+03  0.00000000000E+00 0. -1.
         -4    1    5    5    0  503 -0.14005093362E+03 -0.10378837895E+02 -0.57283659596E+02  0.15166872433E+03  0.00000000000E+00 0.  1.
         -1    1    6    6    0  502  0.52676642544E+02 -0.25564940284E+02 -0.31446315439E+02  0.66462512713E+02  0.00000000000E+00 0.  1.
<mgrwt>
<rscale>  0 0.16563848E+04</rscale>
<asrwt>0</asrwt>
<pdfrwt beam="1">  1        2 0.25491431E+00 0.16563848E+04</pdfrwt>
<pdfrwt beam="2">  1       -2 0.63685648E-01 0.16563848E+04</pdfrwt>
<totfact> 0.22569435E+01</totfact>
</mgrwt>
</event>
<event>
12    1  0.1536832E-007  0.4527117E+04  0.7818608E-02  0.7905906E-01
         -1   -1    0    0    0  501 -0.00000000000E+00  0.00000000000E+00  0.98613722082E+03  0.98613722082E+03  0.00000000000E+00 0.  1.
          1   -1    0    0  501    0  0.00000000000E+00 -0.00000000000E+00 -0.51957251996E+04  0.51957251996E+04  0.00000000000E+00 0. -1.
         23    2    1    2    0    0 -0.12240449592E+04 -0.89708146543E+03  0.10123988246E+03  0.15236681107E+04  0.90960320374E+02 0.  0.
        254    2    1    2    0    0  0.12240449592E+04  0.89708146543E+03 -0.43108278613E+04  0.46581943098E+04  0.90138568904E+03 0.  0.
        -24    2    4    4    0    0  0.11871562038E+04  0.67483582935E+03 -0.41556765804E+04  0.43750016074E+04  0.79044138522E+02 0.  0.
         24    2    4    4    0    0  0.36888755451E+02  0.22224563608E+03 -0.15515128090E+03  0.28319270233E+03  0.73295863823E+02 0.  0.
         11    1    3    3    0    0 -0.54067738885E+03 -0.40655152145E+03  0.60359339988E+00  0.67647360830E+03  0.00000000000E+00 0.  1.
        -11    1    3    3    0    0 -0.68336757037E+03 -0.49052994398E+03  0.10063628906E+03  0.84719450237E+03  0.00000000000E+00 0. -1.
          4    1    6    6  502    0  0.59040475978E+02  0.17577601849E+03 -0.12077379198E+03  0.22129007051E+03  0.00000000000E+00 0. -1.
          3    1    5    5  503    0  0.11813159763E+03  0.75376276599E+02 -0.35799238075E+03  0.38444141570E+03  0.00000000000E+00 0. -1.
         -4    1    5    5    0  503  0.10690246061E+04  0.59945955275E+03 -0.37976841996E+04  0.39905601917E+04  0.00000000000E+00 0.  1.
         -3    1    6    6    0  502 -0.22151720527E+02  0.46469617598E+02 -0.34377488918E+02  0.61902631820E+02  0.00000000000E+00 0.  1.
<mgrwt>
<rscale>  0 0.45271174E+04</rscale>
<asrwt>0</asrwt>
<pdfrwt beam="1">  1        1 0.79934234E+00 0.45271174E+04</pdfrwt>
<pdfrwt beam="2">  1       -1 0.15171342E+00 0.45271174E+04</pdfrwt>
<totfact> 0.11715298E-03</totfact>
</mgrwt>
</event>
<event>
12    1  0.1536832E-007  0.1513664E+04  0.7818608E-02  0.8875417E-01
         -2   -1    0    0    0  501 -0.00000000000E+00  0.00000000000E+00  0.29919982867E+03  0.29919982867E+03  0.00000000000E+00 0. -1.
          2   -1    0    0  501    0  0.00000000000E+00 -0.00000000000E+00 -0.19144209078E+04  0.19144209078E+04  0.00000000000E+00 0.  1.
         23    2    1    2    0    0 -0.42604470985E+03 -0.17805834742E+03 -0.33391101301E+03  0.57742540399E+03  0.93298781811E+02 0.  0.
        254    2    1    2    0    0  0.42604470985E+03  0.17805834742E+03 -0.12813100661E+04  0.16361953324E+04  0.90673083690E+03 0.  0.
        -24    2    4    4    0    0 -0.41951481165E+02 -0.14228007291E+03  0.59563819139E+02  0.17792586325E+03  0.78142295483E+02 0.  0.
         24    2    4    4    0    0  0.46799619102E+03  0.32033842033E+03 -0.13408738852E+04  0.14582694692E+04  0.83486108882E+02 0.  0.
         13    1    3    3    0    0 -0.31521824411E+03 -0.11416419904E+03 -0.19190180722E+03  0.38629303563E+03  0.00000000000E+00 0. -1.
        -13    1    3    3    0    0 -0.11082646574E+03 -0.63894148382E+02 -0.14200920579E+03  0.19113236836E+03  0.00000000000E+00 0.  1.
          2    1    6    6  502    0  0.12371032984E+03  0.48066641520E+02 -0.35912074276E+03  0.38286075226E+03  0.00000000000E+00 0. -1.
          1    1    5    5  503    0 -0.12595749915E+02 -0.88127246730E+02 -0.43910811832E+01  0.89131061511E+02  0.00000000000E+00 0. -1.
         -2    1    5    5    0  503 -0.29355731250E+02 -0.54152826180E+02  0.63954900322E+02  0.88794801738E+02  0.00000000000E+00 0.  1.
         -1    1    6    6    0  502  0.34428586117E+03  0.27227177881E+03 -0.98175314246E+03  0.10754087169E+04  0.00000000000E+00 0.  1.
<mgrwt>
<rscale>  0 0.15136636E+04</rscale>
<asrwt>0</asrwt>
<pdfrwt beam="1">  1        2 0.29452629E+00 0.15136636E+04</pdfrwt>
<pdfrwt beam="2">  1       -2 0.46030744E-01 0.15136636E+04</pdfrwt>
<totfact> 0.32204442E+01</totfact>
</mgrwt>
</event>
<event>
12    1  0.1536832E-007  0.1381481E+04  0.7818608E-02  0.8967334E-01
          2   -1    0    0  501    0  0.00000000000E+00  0.00000000000E+00  0.11631757855E+04  0.11631757855E+04  0.00000000000E+00 0. -1.
         -2   -1    0    0    0  501 -0.00000000000E+00 -0.00000000000E+00 -0.41018921648E+03  0.41018921648E+03  0.00000000000E+00 0.  1.
         23    2    1    2    0    0 -0.34830998328E+03  0.99262003749E+02  0.98429045394E+02  0.39404110138E+03  0.12003050762E+03 0.  0.
        254    2    1    2    0    0  0.34830998328E+03 -0.99262003749E+02  0.65455752366E+03  0.11793239006E+04  0.91169431335E+03 0.  0.
        -24    2    4    4    0    0  0.62121800131E+03 -0.19189013411E+03  0.57124952929E+03  0.86901885802E+03  0.78320636805E+02 0.  0.
         24    2    4    4    0    0 -0.27290801803E+03  0.92628130365E+02  0.83307994363E+02  0.31030504262E+03  0.79311037744E+02 0.  0.
         13    1    3    3    0    0 -0.13376171895E+03  0.87134171089E+02  0.79441890943E+02  0.17831313822E+03  0.00000000000E+00 0. -1.
        -13    1    3    3    0    0 -0.21454826433E+03  0.12127832660E+02  0.18987154451E+02  0.21572796315E+03  0.00000000000E+00 0.  1.
          2    1    6    6  502    0 -0.14462266470E+02  0.66871633122E+01 -0.13872894616E+02  0.21126583009E+02  0.00000000000E+00 0. -1.
          1    1    5    5  503    0  0.11677399780E+03 -0.35917419325E+02  0.15067501856E+03  0.19398244455E+03  0.00000000000E+00 0. -1.
         -2    1    5    5    0  503  0.50444400351E+03 -0.15597271479E+03  0.42057451073E+03  0.67503641347E+03  0.00000000000E+00 0.  1.
         -1    1    6    6    0  502 -0.25844575156E+03  0.85940967053E+02  0.97180888980E+02  0.28917845961E+03  0.00000000000E+00 0.  1.
<mgrwt>
<rscale>  0 0.13814806E+04</rscale>
<asrwt>0</asrwt>
<pdfrwt beam="1">  1        2 0.17895012E+00 0.13814806E+04</pdfrwt>
<pdfrwt beam="2">  1       -2 0.63106034E-01 0.13814806E+04</pdfrwt>
<totfact> 0.45190672E+01</totfact>
</mgrwt>
</event>
<event>
12    1  0.1536832E-007  0.1764034E+04  0.7818608E-02  0.8725663E-01
          2   -1    0    0  501    0  0.00000000000E+00  0.00000000000E+00  0.34465009239E+04  0.34465009239E+04  0.00000000000E+00 0. -1.
         -2   -1    0    0    0  501 -0.00000000000E+00 -0.00000000000E+00 -0.22572283442E+03  0.22572283442E+03  0.00000000000E+00 0.  1.
         23    2    1    2    0    0 -0.35128668334E+03 -0.19830418493E+03  0.23547477521E+04  0.23907805087E+04  0.90926237572E+02 0.  0.
        254    2    1    2    0    0  0.35128668334E+03  0.19830418493E+03  0.86603033729E+03  0.12814432496E+04  0.85402656472E+03 0.  0.
        -24    2    4    4    0    0 -0.13018074979E+03 -0.24096650338E+03  0.30658176375E+03  0.41872922118E+03  0.79560665147E+02 0.  0.
         24    2    4    4    0    0  0.48146743314E+03  0.43927068832E+03  0.55944857354E+03  0.86271402844E+03  0.80766092232E+02 0.  0.
         13    1    3    3    0    0 -0.27923576356E+03 -0.14221626345E+03  0.15887014942E+04  0.16193117411E+04  0.00000000000E+00 0. -1.
        -13    1    3    3    0    0 -0.72050919779E+02 -0.56087921488E+02  0.76604625795E+03  0.77146876755E+03  0.00000000000E+00 0.  1.
          4    1    6    6  502    0  0.40565803001E+02  0.18006481244E+02  0.59122862894E+02  0.73927874693E+02  0.00000000000E+00 0. -1.
          3    1    5    5  503    0 -0.89087001258E+02 -0.15538876260E+03  0.14136407646E+03  0.22817967361E+03  0.00000000000E+00 0. -1.
         -4    1    5    5    0  503 -0.41093748534E+02 -0.85577740779E+02  0.16521768729E+03  0.19054954757E+03  0.00000000000E+00 0.  1.
         -3    1    6    6    0  502  0.44090163013E+03  0.42126420707E+03  0.50032571064E+03  0.78878615375E+03  0.00000000000E+00 0.  1.
<mgrwt>
<rscale>  0 0.17640340E+04</rscale>
<asrwt>0</asrwt>
<pdfrwt beam="1">  1        2 0.53023087E+00 0.17640340E+04</pdfrwt>
<pdfrwt beam="2">  1       -2 0.34726592E-01 0.17640340E+04</pdfrwt>
<totfact> 0.65755867E+00</totfact>
</mgrwt>
</event>
<event>
12    1  0.1536832E-007  0.1346268E+04  0.7818608E-02  0.8993658E-01
         -1   -1    0    0    0  501 -0.00000000000E+00  0.00000000000E+00  0.38963378501E+03  0.38963378501E+03  0.00000000000E+00 0.  1.
          1   -1    0    0  501    0  0.00000000000E+00 -0.00000000000E+00 -0.11629114580E+04  0.11629114580E+04  0.00000000000E+00 0. -1.
         23    2    1    2    0    0  0.23890436586E+03  0.13821727163E+03 -0.49310830283E+03  0.57201001495E+03  0.88658607479E+02 0.  0.
        254    2    1    2    0    0 -0.23890436586E+03 -0.13821727163E+03 -0.28016937018E+03  0.98053522807E+03  0.89820662840E+03 0.  0.
        -24    2    4    4    0    0 -0.37941761588E+03 -0.28652612295E+03 -0.48254708223E+03  0.68214561377E+03  0.80099971561E+02 0.  0.
         24    2    4    4    0    0  0.14051325002E+03  0.14830885132E+03  0.20237771205E+03  0.29838961430E+03  0.79624963259E+02 0.  0.
         11    1    3    3    0    0 -0.17760028954E+01  0.15649695825E+02 -0.56132245867E+02  0.58300053103E+02  0.00000000000E+00 0. -1.
        -11    1    3    3    0    0  0.24068036875E+03  0.12256757580E+03 -0.43697605696E+03  0.51370996184E+03  0.00000000000E+00 0.  1.
          2    1    6    6  502    0  0.30262775882E+02  0.12544058559E+02  0.75563962263E+02  0.82359585976E+02  0.00000000000E+00 0. -1.
          3    1    5    5  503    0 -0.48868742512E+02 -0.10059883417E+02 -0.35592384249E+02  0.61287625714E+02  0.00000000000E+00 0. -1.
         -4    1    5    5    0  503 -0.33054887337E+03 -0.27646623953E+03 -0.44695469798E+03  0.62085798806E+03  0.00000000000E+00 0.  1.
         -1    1    6    6    0  502  0.11025047414E+03  0.13576479276E+03  0.12681374979E+03  0.21603002832E+03  0.00000000000E+00 0.  1.
<mgrwt>
<rscale>  0 0.13462683E+04</rscale>
<asrwt>0</asrwt>
<pdfrwt beam="1">  1        1 0.17890945E+00 0.13462683E+04</pdfrwt>
<pdfrwt beam="2">  1       -1 0.59943660E-01 0.13462683E+04</pdfrwt>
<totfact> 0.31436499E+01</totfact>
</mgrwt>
</event>
<event>
12    1  0.1536832E-007  0.1375563E+04  0.7818608E-02  0.8971700E-01
         -1   -1    0    0    0  501 -0.00000000000E+00  0.00000000000E+00  0.83529346992E+03  0.83529346992E+03  0.00000000000E+00 0.  1.
          1   -1    0    0  501    0  0.00000000000E+00 -0.00000000000E+00 -0.56631976938E+03  0.56631976938E+03  0.00000000000E+00 0. -1.
         23    2    1    2    0    0  0.25059258607E+03  0.28947493085E+03  0.14993439228E+03  0.42061233300E+03  0.88555253382E+02 0.  0.
        254    2    1    2    0    0 -0.25059258607E+03 -0.28947493085E+03  0.11903930826E+03  0.98100090630E+03  0.89532119458E+03 0.  0.
        -24    2    4    4    0    0 -0.10146061336E+03 -0.25268995440E+03  0.49321349112E+03  0.56868988903E+03  0.77473691898E+02 0.  0.
         24    2    4    4    0    0 -0.14913197271E+03 -0.36784976448E+02 -0.37417418286E+03  0.41231101728E+03  0.80003600369E+02 0.  0.
         11    1    3    3    0    0  0.38300433235E+02  0.55359607263E+02  0.64507517479E+02  0.93235342620E+02  0.00000000000E+00 0.  1.
        -11    1    3    3    0    0  0.21229215283E+03  0.23411532359E+03  0.85426874804E+02  0.32737699038E+03  0.00000000000E+00 0. -1.
          4    1    6    6  502    0 -0.56557047273E+02 -0.51064981051E+02 -0.12861564887E+03  0.14949353504E+03  0.00000000000E+00 0. -1.
          3    1    5    5  503    0 -0.25503003632E+02 -0.64429882617E+02  0.20316213537E+03  0.21465429466E+03  0.00000000000E+00 0. -1.
         -4    1    5    5    0  503 -0.75957609726E+02 -0.18826007178E+03  0.29005135576E+03  0.35403559437E+03  0.00000000000E+00 0.  1.
         -3    1    6    6    0  502 -0.92574925435E+02  0.14280004603E+02 -0.24555853399E+03  0.26281748223E+03  0.00000000000E+00 0.  1.
<mgrwt>
<rscale>  0 0.13755627E+04</rscale>
<asrwt>0</asrwt>
<pdfrwt beam="1">  1        1 0.87126118E-01 0.13755627E+04</pdfrwt>
<pdfrwt beam="2">  1       -1 0.12850669E+00 0.13755627E+04</pdfrwt>
<totfact> 0.18987554E+01</totfact>
</mgrwt>
</event>
<event>
12    1  0.1536832E-007  0.1921386E+04  0.7818608E-02  0.8644284E-01
         -2   -1    0    0    0  501 -0.00000000000E+00  0.00000000000E+00  0.56312035126E+03  0.56312035126E+03  0.00000000000E+00 0.  1.
          2   -1    0    0  501    0  0.00000000000E+00 -0.00000000000E+00 -0.16389584517E+04  0.16389584517E+04  0.00000000000E+00 0. -1.
         23    2    1    2    0    0  0.37067690391E+03  0.56732595663E+03 -0.73568949891E+03  0.10038844930E+04  0.85351791155E+02 0.  0.
        254    2    1    2    0    0 -0.37067690391E+03 -0.56732595663E+03 -0.34014860155E+03  0.11981943100E+04  0.92774372823E+03 0.  0.
        -24    2    4    4    0    0 -0.27369888308E+03 -0.52884617935E+03  0.20722318364E+03  0.63538112376E+03  0.78602573643E+02 0.  0.
         24    2    4    4    0    0 -0.96978020834E+02 -0.38479777276E+02 -0.54737178520E+03  0.56281318626E+03  0.79103613139E+02 0.  0.
         11    1    3    3    0    0  0.35543392188E+03  0.55115357216E+03 -0.68393561316E+03  0.94756079271E+03  0.00000000000E+00 0. -1.
        -11    1    3    3    0    0  0.15242982033E+02  0.16172384466E+02 -0.51753885747E+02  0.56323700256E+02  0.00000000000E+00 0.  1.
          4    1    6    6  502    0 -0.52070659138E+02 -0.47968817542E+02 -0.44534593307E+03  0.45093831186E+03  0.00000000000E+00 0. -1.
          3    1    5    5  503    0 -0.15201258890E+03 -0.20959855473E+03  0.94042717222E+02  0.27546944294E+03  0.00000000000E+00 0. -1.
         -4    1    5    5    0  503 -0.12168629418E+03 -0.31924762462E+03  0.11318046642E+03  0.35991168083E+03  0.00000000000E+00 0.  1.
         -3    1    6    6    0  502 -0.44907361695E+02  0.94890402659E+01 -0.10202585212E+03  0.11187487440E+03  0.00000000000E+00 0.  1.
<mgrwt>
<rscale>  0 0.19213858E+04</rscale>
<asrwt>0</asrwt>
<pdfrwt beam="1">  1        2 0.25214745E+00 0.19213858E+04</pdfrwt>
<pdfrwt beam="2">  1       -2 0.86633901E-01 0.19213858E+04</pdfrwt>
<totfact> 0.11439762E+01</totfact>
</mgrwt>
</event>
<event>
12    1  0.1536832E-007  0.3039155E+04  0.7818608E-02  0.8232637E-01
         -2   -1    0    0    0  501 -0.00000000000E+00  0.00000000000E+00  0.11336018938E+04  0.11336018938E+04  0.00000000000E+00 0.  1.
          2   -1    0    0  501    0  0.00000000000E+00 -0.00000000000E+00 -0.20369725443E+04  0.20369725443E+04  0.00000000000E+00 0. -1.
         23    2    1    2    0    0 -0.11564319997E+04 -0.62074398825E+03 -0.87904330383E+03  0.15823607898E+04  0.92143747638E+02 0.  0.
        254    2    1    2    0    0  0.11564319997E+04  0.62074398825E+03 -0.24327346660E+02  0.15882136484E+04  0.89396459890E+03 0.  0.
        -24    2    4    4    0    0  0.26868778098E+03  0.58971847354E+03  0.17114373314E+03  0.67511349750E+03  0.80790193889E+02 0.  0.
         24    2    4    4    0    0  0.88774421875E+03  0.31025514714E+02 -0.19547107980E+03  0.91310015086E+03  0.80564024121E+02 0.  0.
         13    1    3    3    0    0 -0.10635706958E+04 -0.56481999777E+03 -0.77475669843E+03  0.14319400115E+04  0.00000000000E+00 0. -1.
        -13    1    3    3    0    0 -0.92861303926E+02 -0.55923990478E+02 -0.10428660541E+03  0.15042077830E+03  0.00000000000E+00 0.  1.
          2    1    6    6  502    0  0.30849912535E+03  0.31411552187E+02 -0.35164247507E+02  0.31208159231E+03  0.00000000000E+00 0. -1.
          1    1    5    5  503    0  0.77108211194E+02  0.17745129691E+03  0.13503635023E+02  0.19395099166E+03  0.00000000000E+00 0. -1.
         -2    1    5    5    0  503  0.19157956979E+03  0.41226717662E+03  0.15764009812E+03  0.48116250583E+03  0.00000000000E+00 0.  1.
         -1    1    6    6    0  502  0.57924509339E+03 -0.38603747345E+00 -0.16030683230E+03  0.60101855855E+03  0.00000000000E+00 0.  1.
<mgrwt>
<rscale>  0 0.30391551E+04</rscale>
<asrwt>0</asrwt>
<pdfrwt beam="1">  1        2 0.31338039E+00 0.30391551E+04</pdfrwt>
<pdfrwt beam="2">  1       -2 0.17440029E+00 0.30391551E+04</pdfrwt>
<totfact> 0.10787271E+00</totfact>
</mgrwt>
</event>
<event>
12    1  0.1536832E-007  0.1342891E+04  0.7818608E-02  0.8996227E-01
         -1   -1    0    0    0  501 -0.00000000000E+00  0.00000000000E+00  0.94457114791E+03  0.94457114791E+03  0.00000000000E+00 0.  1.
          1   -1    0    0  501    0  0.00000000000E+00 -0.00000000000E+00 -0.47729479185E+03  0.47729479185E+03  0.00000000000E+00 0. -1.
         23    2    1    2    0    0  0.23436935804E+03  0.17799554389E+03  0.36572398025E+03  0.47855710359E+03  0.93013235808E+02 0.  0.
        254    2    1    2    0    0 -0.23436935804E+03 -0.17799554389E+03  0.10155237581E+03  0.94330883616E+03  0.89045340458E+03 0.  0.
        -24    2    4    4    0    0 -0.49694969102E+03  0.42147959377E+02 -0.13023940549E+03  0.52197171577E+03  0.82199290965E+02 0.  0.
         24    2    4    4    0    0  0.26258033298E+03 -0.22014350326E+03  0.23179178130E+03  0.42133712039E+03  0.79912113257E+02 0.  0.
         11    1    3    3    0    0  0.22932250073E+03  0.18802406901E+03  0.34458234329E+03  0.45461945754E+03  0.00000000000E+00 0.  1.
        -11    1    3    3    0    0  0.50468573117E+01 -0.10028525128E+02  0.21141636963E+02  0.23937646051E+02  0.00000000000E+00 0. -1.
          4    1    6    6  502    0  0.11439350301E+03 -0.14653686213E+03  0.13368799594E+03  0.22897905091E+03  0.00000000000E+00 0. -1.
          3    1    5    5  503    0 -0.38642027648E+02 -0.10752570146E+02 -0.29394999100E+02  0.49728161413E+02  0.00000000000E+00 0. -1.
         -4    1    5    5    0  503 -0.45830766337E+03  0.52900529523E+02 -0.10084440639E+03  0.47224355436E+03  0.00000000000E+00 0.  1.
         -3    1    6    6    0  502  0.14818682997E+03 -0.73606641129E+02  0.98103785361E+02  0.19235806949E+03  0.00000000000E+00 0.  1.
<mgrwt>
<rscale>  0 0.13428907E+04</rscale>
<asrwt>0</asrwt>
<pdfrwt beam="1">  1        1 0.73429968E-01 0.13428907E+04</pdfrwt>
<pdfrwt beam="2">  1       -1 0.14531864E+00 0.13428907E+04</pdfrwt>
<totfact> 0.17580571E+01</totfact>
</mgrwt>
</event>
<event>
12    1  0.1536832E-007  0.1493725E+04  0.7818608E-02  0.8888637E-01
         -1   -1    0    0    0  501 -0.00000000000E+00  0.00000000000E+00  0.55120416505E+03  0.55120416505E+03  0.00000000000E+00 0.  1.
          1   -1    0    0  501    0  0.00000000000E+00 -0.00000000000E+00 -0.10119724412E+04  0.10119724412E+04  0.00000000000E+00 0. -1.
         23    2    1    2    0    0 -0.16691347290E+03 -0.24037512289E+02 -0.56810453373E+03  0.59900335181E+03  0.87317494208E+02 0.  0.
        254    2    1    2    0    0  0.16691347290E+03  0.24037512289E+02  0.10733625763E+03  0.96417325440E+03  0.94322377136E+03 0.  0.
        -24    2    4    4    0    0 -0.18767985798E+03  0.19987893977E+03 -0.28394198661E+03  0.40283128882E+03  0.80465370448E+02 0.  0.
         24    2    4    4    0    0  0.35459333088E+03 -0.17584142748E+03  0.39127824424E+03  0.56134196558E+03  0.73140276085E+02 0.  0.
         13    1    3    3    0    0 -0.56092426026E+02 -0.50767488356E+02 -0.21183366998E+03  0.22493821789E+03  0.00000000000E+00 0. -1.
        -13    1    3    3    0    0 -0.11082104688E+03  0.26729976067E+02 -0.35627086375E+03  0.37406513391E+03  0.00000000000E+00 0.  1.
          2    1    6    6  502    0  0.15839341163E+03 -0.11880288506E+03  0.20097163766E+03  0.28212089162E+03  0.00000000000E+00 0. -1.
          1    1    5    5  503    0 -0.18444774742E+03  0.17847485471E+03 -0.28166749951E+03  0.38106538228E+03  0.00000000000E+00 0. -1.
         -2    1    5    5    0  503 -0.32321105570E+01  0.21404085059E+02 -0.22744870924E+01  0.21765906537E+02  0.00000000000E+00 0.  1.
         -1    1    6    6    0  502  0.19619991925E+03 -0.57038542422E+02  0.19030660657E+03  0.27922107396E+03  0.00000000000E+00 0.  1.
<mgrwt>
<rscale>  0 0.14937248E+04</rscale>
<asrwt>0</asrwt>
<pdfrwt beam="1">  1        1 0.15568806E+00 0.14937248E+04</pdfrwt>
<pdfrwt beam="2">  1       -1 0.84800642E-01 0.14937248E+04</pdfrwt>
<totfact> 0.19727383E+01</totfact>
</mgrwt>
</event>
<event>
12    1  0.1536832E-007  0.1693876E+04  0.7818608E-02  0.8764865E-01
         -1   -1    0    0    0  501 -0.00000000000E+00  0.00000000000E+00  0.91214177006E+03  0.91214177006E+03  0.00000000000E+00 0.  1.
          1   -1    0    0  501    0  0.00000000000E+00 -0.00000000000E+00 -0.78639556229E+03  0.78639556229E+03  0.00000000000E+00 0. -1.
         23    2    1    2    0    0 -0.11785019520E+03  0.26001281680E+03 -0.48885094293E+03  0.57330258371E+03  0.90582971230E+02 0.  0.
        254    2    1    2    0    0  0.11785019520E+03 -0.26001281680E+03  0.61459715070E+03  0.11252347486E+04  0.89829185040E+03 0.  0.
        -24    2    4    4    0    0  0.36211682964E+03  0.37361264580E+02 -0.25942522014E+02  0.37383397797E+03  0.80959040506E+02 0.  0.
         24    2    4    4    0    0 -0.24426663444E+03 -0.29737408138E+03  0.64053967271E+03  0.75140077067E+03  0.78832181662E+02 0.  0.
         13    1    3    3    0    0 -0.10642479638E+03  0.26177007274E+03 -0.43865727021E+03  0.52179498750E+03  0.00000000000E+00 0. -1.
        -13    1    3    3    0    0 -0.11425398818E+02 -0.17572559430E+01 -0.50193672721E+02  0.51507596214E+02  0.00000000000E+00 0.  1.
          2    1    6    6  502    0 -0.22675842634E+03 -0.29754767258E+03  0.62247578679E+03  0.72624383406E+03  0.00000000000E+00 0. -1.
          3    1    5    5  503    0  0.21467602545E+03  0.27514279719E+02 -0.54826169582E+02  0.22326831473E+03  0.00000000000E+00 0. -1.
         -4    1    5    5    0  503  0.14744080419E+03  0.98469848617E+01  0.28883647569E+02  0.15056566324E+03  0.00000000000E+00 0.  1.
         -1    1    6    6    0  502 -0.17508208098E+02  0.17359120143E+00  0.18063885919E+02  0.25156936602E+02  0.00000000000E+00 0.  1.
<mgrwt>
<rscale>  0 0.16938763E+04</rscale>
<asrwt>0</asrwt>
<pdfrwt beam="1">  1        1 0.12098393E+00 0.16938763E+04</pdfrwt>
<pdfrwt beam="2">  1       -1 0.14032950E+00 0.16938763E+04</pdfrwt>
<totfact> 0.90149914E+00</totfact>
</mgrwt>
</event>
<event>
12    1  0.1695347E-007  0.1836735E+04  0.7818608E-02  0.8687004E-01
         -2   -1    0    0    0  501 -0.00000000000E+00  0.00000000000E+00  0.55056130209E+03  0.55056130209E+03  0.00000000000E+00 0.  1.
          2   -1    0    0  501    0  0.00000000000E+00 -0.00000000000E+00 -0.15318894104E+04  0.15318894104E+04  0.00000000000E+00 0. -1.
         23    2    1    2    0    0 -0.49434877575E+03 -0.48470675155E+02  0.17441090234E+03  0.53441925622E+03  0.91949225809E+02 0.  0.
        254    2    1    2    0    0  0.49434877575E+03  0.48470675155E+02 -0.11557390107E+04  0.15480314563E+04  0.90218546343E+03 0.  0.
        -24    2    4    4    0    0  0.25627230668E+02 -0.24456244878E+03  0.60196505369E+01  0.25899347124E+03  0.81079193686E+02 0.  0.
         24    2    4    4    0    0  0.46872154509E+03  0.29303312393E+03 -0.11617586612E+04  0.12890379850E+04  0.79796249619E+02 0.  0.
         11    1    3    3    0    0 -0.20310799277E+02 -0.14350132477E+01 -0.11118846170E+02  0.23199495047E+02  0.00000000000E+00 0. -1.
        -11    1    3    3    0    0 -0.47403797648E+03 -0.47035661907E+02  0.18552974851E+03  0.51121976118E+03  0.00000000000E+00 0.  1.
          2    1    6    6  502    0  0.49460598228E+02  0.63585658596E+02 -0.17097136090E+03  0.18899918784E+03  0.00000000000E+00 0. -1.
          3    1    5    5  503    0 -0.16013018875E+02 -0.19919031511E+02  0.16264407674E+02  0.30293820274E+02  0.00000000000E+00 0. -1.
         -4    1    5    5    0  503  0.41640249543E+02 -0.22464341726E+03 -0.10244757137E+02  0.22869965096E+03  0.00000000000E+00 0.  1.
         -1    1    6    6    0  502  0.41926094686E+03  0.22944746533E+03 -0.99078730030E+03  0.11000387972E+04  0.00000000000E+00 0.  1.
<mgrwt>
<rscale>  0 0.18367352E+04</rscale>
<asrwt>0</asrwt>
<pdfrwt beam="1">  1        2 0.23567529E+00 0.18367352E+04</pdfrwt>
<pdfrwt beam="2">  1       -2 0.84701739E-01 0.18367352E+04</pdfrwt>
<totfact> 0.13923930E+01</totfact>
</mgrwt>
</event>
<event>
12    1  0.1536832E-007  0.2481470E+04  0.7818608E-02  0.8409617E-01
          1   -1    0    0  501    0  0.00000000000E+00  0.00000000000E+00  0.19142455043E+04  0.19142455043E+04  0.00000000000E+00 0. -1.
         -1   -1    0    0    0  501 -0.00000000000E+00 -0.00000000000E+00 -0.80419334761E+03  0.80419334761E+03  0.00000000000E+00 0.  1.
         23    2    1    2    0    0 -0.83774391828E+03  0.15709930931E+03  0.12194285539E+04  0.14905828839E+04  0.91303177342E+02 0.  0.
        254    2    1    2    0    0  0.83774391828E+03 -0.15709930931E+03 -0.10937639722E+03  0.12278559680E+04  0.87702452429E+03 0.  0.
        -24    2    4    4    0    0  0.91586031261E+03  0.19386757078E+02 -0.27660626103E+03  0.96031811698E+03  0.80770685210E+02 0.  0.
         24    2    4    4    0    0 -0.78116394330E+02 -0.17648606639E+03  0.16722986380E+03  0.26753785099E+03  0.79756953772E+02 0.  0.
         11    1    3    3    0    0 -0.34889330138E+03  0.10057003142E+03  0.46766980851E+03  0.59207762731E+03  0.00000000000E+00 0.  1.
        -11    1    3    3    0    0 -0.48885061690E+03  0.56529277889E+02  0.75175874541E+03  0.89850525664E+03  0.00000000000E+00 0. -1.
          2    1    6    6  502    0  0.16100394955E+02 -0.32657324328E+02  0.22572722073E+02  0.42839833471E+02  0.00000000000E+00 0. -1.
          1    1    5    5  503    0  0.14304507167E+02 -0.81341476894E+01  0.12825265373E+01  0.16505397851E+02  0.00000000000E+00 0. -1.
         -2    1    5    5    0  503  0.90155580545E+03  0.27520904768E+02 -0.27788878756E+03  0.94381271913E+03  0.00000000000E+00 0.  1.
         -1    1    6    6    0  502 -0.94216789286E+02 -0.14382874206E+03  0.14465714173E+03  0.22469801752E+03  0.00000000000E+00 0.  1.
<mgrwt>
<rscale>  0 0.24814701E+04</rscale>
<asrwt>0</asrwt>
<pdfrwt beam="1">  1        1 0.29449931E+00 0.24814701E+04</pdfrwt>
<pdfrwt beam="2">  1       -1 0.12372205E+00 0.24814701E+04</pdfrwt>
<totfact> 0.17404894E+00</totfact>
</mgrwt>
</event>
<event>
12    1  0.1536832E-007  0.2926341E+04  0.7818608E-02  0.8265083E-01
         -2   -1    0    0    0  501 -0.00000000000E+00  0.00000000000E+00  0.13158447772E+04  0.13158447772E+04  0.00000000000E+00 0.  1.
          2   -1    0    0  501    0  0.00000000000E+00 -0.00000000000E+00 -0.16269907188E+04  0.16269907188E+04  0.00000000000E+00 0. -1.
         23    2    1    2    0    0 -0.76811099857E+03 -0.11986489017E+03 -0.12189966918E+04  0.14488171576E+04  0.93574159681E+02 0.  0.
        254    2    1    2    0    0  0.76811099857E+03  0.11986489017E+03  0.90785075020E+03  0.14940183384E+04  0.89640153543E+03 0.  0.
        -24    2    4    4    0    0  0.18802669576E+03 -0.36982466878E+03  0.30337637528E+03  0.52004727661E+03  0.79294519813E+02 0.  0.
         24    2    4    4    0    0  0.58008430281E+03  0.48968955895E+03  0.60447437492E+03  0.97397106176E+03  0.83286833903E+02 0.  0.
         11    1    3    3    0    0 -0.34761014084E+03 -0.98589581898E+02 -0.53342253169E+03  0.64427658112E+03  0.00000000000E+00 0. -1.
        -11    1    3    3    0    0 -0.42050085773E+03 -0.21275308272E+02 -0.68557416016E+03  0.80454057646E+03  0.00000000000E+00 0.  1.
          4    1    6    6  502    0  0.40816794032E+03  0.29832626554E+03  0.42251684458E+03  0.65887791902E+03  0.00000000000E+00 0. -1.
          3    1    5    5  503    0  0.17512755629E+03 -0.37013304290E+03  0.29479075742E+03  0.50454902742E+03  0.00000000000E+00 0. -1.
         -4    1    5    5    0  503  0.12899139470E+02  0.30837411705E+00  0.85856178621E+01  0.15498249183E+02  0.00000000000E+00 0.  1.
         -3    1    6    6    0  502  0.17191636249E+03  0.19136329341E+03  0.18195753035E+03  0.31509314275E+03  0.00000000000E+00 0.  1.
<mgrwt>
<rscale>  0 0.29263405E+04</rscale>
<asrwt>0</asrwt>
<pdfrwt beam="1">  1        2 0.25030626E+00 0.29263405E+04</pdfrwt>
<pdfrwt beam="2">  1       -2 0.20243766E+00 0.29263405E+04</pdfrwt>
<totfact> 0.11892664E+00</totfact>
</mgrwt>
</event>
<event>
12    1  0.1536832E-007  0.1254765E+04  0.7818608E-02  0.9066227E-01
         -2   -1    0    0    0  501 -0.00000000000E+00  0.00000000000E+00  0.11530889355E+04  0.11530889355E+04  0.00000000000E+00 0.  1.
          2   -1    0    0  501    0  0.00000000000E+00 -0.00000000000E+00 -0.34135151857E+03  0.34135151857E+03  0.00000000000E+00 0. -1.
         23    2    1    2    0    0 -0.20107580227E+03 -0.12996030234E+03 -0.43110788998E+01  0.25556396162E+03  0.89292746815E+02 0.  0.
        254    2    1    2    0    0  0.20107580227E+03  0.12996030234E+03  0.81604849583E+03  0.12388764924E+04  0.90086550469E+03 0.  0.
        -24    2    4    4    0    0  0.11322833741E+03 -0.32618681889E+02 -0.17606118441E+03  0.22650899157E+03  0.80150781711E+02 0.  0.
         24    2    4    4    0    0  0.87847464866E+02  0.16257898423E+03  0.99210968024E+03  0.10123675009E+04  0.80356928824E+02 0.  0.
         11    1    3    3    0    0 -0.16430011410E+03 -0.10224904278E+03 -0.39625865194E+02  0.19753380327E+03  0.00000000000E+00 0. -1.
        -11    1    3    3    0    0 -0.36775688176E+02 -0.27711259552E+02  0.35314786294E+02  0.58030158347E+02  0.00000000000E+00 0.  1.
          4    1    6    6  502    0  0.30516733112E+02  0.22950266423E+02  0.38035842082E+03  0.38227021073E+03  0.00000000000E+00 0. -1.
          1    1    5    5  503    0 -0.88695622526E+01  0.54535619836E+01 -0.33047248412E+02  0.34648681079E+02  0.00000000000E+00 0. -1.
         -2    1    5    5    0  503  0.12209789966E+03 -0.38072243872E+02 -0.14301393599E+03  0.19186031049E+03  0.00000000000E+00 0.  1.
         -3    1    6    6    0  502  0.57330731754E+02  0.13962871780E+03  0.61175125942E+03  0.63009729014E+03  0.00000000000E+00 0.  1.
<mgrwt>
<rscale>  0 0.12547648E+04</rscale>
<asrwt>0</asrwt>
<pdfrwt beam="1">  1        2 0.52515619E-01 0.12547648E+04</pdfrwt>
<pdfrwt beam="2">  1       -2 0.17739830E+00 0.12547648E+04</pdfrwt>
<totfact> 0.17641858E+01</totfact>
</mgrwt>
</event>
<event>
12    1  0.1536832E-007  0.2808994E+04  0.7818608E-02  0.8300482E-01
          1   -1    0    0  501    0  0.00000000000E+00  0.00000000000E+00  0.30055972846E+04  0.30055972846E+04  0.00000000000E+00 0. -1.
         -1   -1    0    0    0  501 -0.00000000000E+00 -0.00000000000E+00 -0.65631255481E+03  0.65631255481E+03  0.00000000000E+00 0.  1.
         23    2    1    2    0    0 -0.57833867135E+03 -0.11051194988E+04  0.81756894699E+03  0.14940838884E+04  0.90016426769E+02 0.  0.
        254    2    1    2    0    0  0.57833867135E+03  0.11051194988E+04  0.15317157827E+04  0.21678259509E+04  0.89305732685E+03 0.  0.
        -24    2    4    4    0    0  0.37296517634E+03  0.40858042775E+03  0.12771530821E+04  0.13943900438E+04  0.84632206108E+02 0.  0.
         24    2    4    4    0    0  0.20537349501E+03  0.69653907106E+03  0.25456270063E+03  0.77343590718E+03  0.77820202936E+02 0.  0.
         11    1    3    3    0    0 -0.69675315276E+01 -0.50172053039E+02  0.37808963583E+02  0.63208378629E+02  0.00000000000E+00 0. -1.
        -11    1    3    3    0    0 -0.57137113982E+03 -0.10549474458E+04  0.77975998341E+03  0.14308755098E+04  0.00000000000E+00 0.  1.
          2    1    6    6  502    0  0.19042051641E+03  0.60034103484E+03  0.24431967905E+03  0.67554528846E+03  0.00000000000E+00 0. -1.
          3    1    5    5  503    0  0.23318070737E+03  0.27852730041E+03  0.92577737955E+03  0.99449205922E+03  0.00000000000E+00 0. -1.
         -2    1    5    5    0  503  0.13978446897E+03  0.13005312735E+03  0.35137570257E+03  0.39989798456E+03  0.00000000000E+00 0.  1.
         -1    1    6    6    0  502  0.14952978600E+02  0.96198036223E+02  0.10243021579E+02  0.97890618720E+02  0.00000000000E+00 0.  1.
<mgrwt>
<rscale>  0 0.28089936E+04</rscale>
<asrwt>0</asrwt>
<pdfrwt beam="1">  1        1 0.46239958E+00 0.28089936E+04</pdfrwt>
<pdfrwt beam="2">  1       -1 0.10097116E+00 0.28089936E+04</pdfrwt>
<totfact> 0.47721459E-01</totfact>
</mgrwt>
</event>
<event>
12    1  0.1536832E-007  0.1223864E+04  0.7818608E-02  0.9092221E-01
          2   -1    0    0  501    0  0.00000000000E+00  0.00000000000E+00  0.41730420999E+03  0.41730420999E+03  0.00000000000E+00 0. -1.
         -2   -1    0    0    0  501 -0.00000000000E+00 -0.00000000000E+00 -0.89733298347E+03  0.89733298347E+03  0.00000000000E+00 0.  1.
         23    2    1    2    0    0  0.10870146278E+03  0.23840198098E+03 -0.92732538272E+02  0.29789544591E+03  0.10719543131E+03 0.  0.
        254    2    1    2    0    0 -0.10870146278E+03 -0.23840198098E+03 -0.38729623521E+03  0.10167417476E+04  0.90283658259E+03 0.  0.
        -24    2    4    4    0    0 -0.32266174005E+03  0.22156876419E+03 -0.50781280211E+02  0.40270067803E+03  0.79911087532E+02 0.  0.
         24    2    4    4    0    0  0.21396027727E+03 -0.45997074517E+03 -0.33651495500E+03  0.61404106952E+03  0.80324550800E+02 0.  0.
         11    1    3    3    0    0  0.11041431503E+03  0.16178833172E+03 -0.10176418620E+03  0.22073226959E+03  0.00000000000E+00 0. -1.
        -11    1    3    3    0    0 -0.17128522535E+01  0.76613649255E+02  0.90316479275E+01  0.77163176317E+02  0.00000000000E+00 0.  1.
          2    1    6    6  502    0  0.12228432357E+03 -0.32447190888E+03 -0.26019219933E+03  0.43351523161E+03  0.00000000000E+00 0. -1.
          1    1    5    5  503    0 -0.21576237976E+03  0.17918059627E+03 -0.98447851885E+01  0.28063501278E+03  0.00000000000E+00 0. -1.
         -2    1    5    5    0  503 -0.10689936028E+03  0.42388167918E+02 -0.40936495023E+02  0.12206566525E+03  0.00000000000E+00 0.  1.
         -1    1    6    6    0  502  0.91675953696E+02 -0.13549883628E+03 -0.76322755671E+02  0.18052583791E+03  0.00000000000E+00 0.  1.
<mgrwt>
<rscale>  0 0.12238641E+04</rscale>
<asrwt>0</asrwt>
<pdfrwt beam="1">  1        2 0.64200648E-01 0.12238641E+04</pdfrwt>
<pdfrwt beam="2">  1       -2 0.13805123E+00 0.12238641E+04</pdfrwt>
<totfact> 0.27790823E+01</totfact>
</mgrwt>
</event>
<event>
12    1  0.1536832E-007  0.1480177E+04  0.7818608E-02  0.8897743E-01
          2   -1    0    0  501    0  0.00000000000E+00  0.00000000000E+00  0.28153872316E+04  0.28153872316E+04  0.00000000000E+00 0. -1.
         -2   -1    0    0    0  501 -0.00000000000E+00 -0.00000000000E+00 -0.19454898858E+03  0.19454898858E+03  0.00000000000E+00 0.  1.
         23    2    1    2    0    0  0.43439243747E+03  0.14078573041E+02  0.52910060265E+03  0.69148111713E+03  0.96455646099E+02 0.  0.
        254    2    1    2    0    0 -0.43439243747E+03 -0.14078573041E+02  0.20917376404E+04  0.23184551031E+04  0.90054023388E+03 0.  0.
        -24    2    4    4    0    0 -0.26501777136E+03  0.32487851276E+03  0.17520125575E+04  0.18033218988E+04  0.81494796080E+02 0.  0.
         24    2    4    4    0    0 -0.16937466611E+03 -0.33895708580E+03  0.33972508284E+03  0.51513320426E+03  0.79808537671E+02 0.  0.
         13    1    3    3    0    0  0.51802700730E+02  0.29076352102E+01  0.22519604850E+02  0.56560646637E+02  0.00000000000E+00 0. -1.
        -13    1    3    3    0    0  0.38258973674E+03  0.11170937831E+02  0.50658099780E+03  0.63492047049E+03  0.00000000000E+00 0.  1.
          4    1    6    6  502    0 -0.91378007943E+02 -0.10303541266E+03  0.10337942776E+03  0.17220204029E+03  0.00000000000E+00 0. -1.
          3    1    5    5  503    0 -0.24270185473E+02  0.71449402877E+02  0.24813058008E+03  0.25935081231E+03  0.00000000000E+00 0. -1.
         -4    1    5    5    0  503 -0.24074758588E+03  0.25342910988E+03  0.15038819775E+04  0.15439710865E+04  0.00000000000E+00 0.  1.
         -3    1    6    6    0  502 -0.77996658172E+02 -0.23592167314E+03  0.23634565509E+03  0.34293116397E+03  0.00000000000E+00 0.  1.
<mgrwt>
<rscale>  0 0.14801767E+04</rscale>
<asrwt>0</asrwt>
<pdfrwt beam="1">  1        2 0.43313647E+00 0.14801767E+04</pdfrwt>
<pdfrwt beam="2">  1       -2 0.29930616E-01 0.14801767E+04</pdfrwt>
<totfact> 0.22682724E+01</totfact>
</mgrwt>
</event>
<event>
12    1  0.1536832E-007  0.1535222E+04  0.7818608E-02  0.8861362E-01
         -1   -1    0    0    0  501 -0.00000000000E+00  0.00000000000E+00  0.66452692341E+03  0.66452692341E+03  0.00000000000E+00 0.  1.
          1   -1    0    0  501    0  0.00000000000E+00 -0.00000000000E+00 -0.88668646247E+03  0.88668646247E+03  0.00000000000E+00 0. -1.
         23    2    1    2    0    0  0.39514255437E+03  0.26460887203E+03  0.80335665982E+02  0.49028879927E+03  0.88169121743E+02 0.  0.
        254    2    1    2    0    0 -0.39514255437E+03 -0.26460887203E+03 -0.30249520504E+03  0.10609245866E+04  0.89883376438E+03 0.  0.
        -24    2    4    4    0    0 -0.54789914874E+03 -0.30555988763E+03 -0.49231179588E+03  0.80131704031E+03  0.78598807901E+02 0.  0.
         24    2    4    4    0    0  0.15275659437E+03  0.40951015604E+02  0.18981659084E+03  0.25960754631E+03  0.79713092634E+02 0.  0.
         13    1    3    3    0    0  0.16807258334E+03  0.13793524456E+03 -0.23657698510E+01  0.21743992694E+03  0.00000000000E+00 0. -1.
        -13    1    3    3    0    0  0.22706997103E+03  0.12667362747E+03  0.82701435833E+02  0.27284887233E+03  0.00000000000E+00 0.  1.
          4    1    6    6  502    0  0.11276905718E+02 -0.19282103472E+02  0.34098365931E+02  0.40763545921E+02  0.00000000000E+00 0. -1.
          3    1    5    5  503    0 -0.23198193962E+03 -0.94433907816E+02 -0.22554281081E+03  0.33705035642E+03  0.00000000000E+00 0. -1.
         -4    1    5    5    0  503 -0.31591720913E+03 -0.21112597982E+03 -0.26676898508E+03  0.46426668390E+03  0.00000000000E+00 0.  1.
         -3    1    6    6    0  502  0.14147968866E+03  0.60233119076E+02  0.15571822491E+03  0.21884400039E+03  0.00000000000E+00 0.  1.
<mgrwt>
<rscale>  0 0.15352225E+04</rscale>
<asrwt>0</asrwt>
<pdfrwt beam="1">  1        1 0.13641330E+00 0.15352225E+04</pdfrwt>
<pdfrwt beam="2">  1       -1 0.10223491E+00 0.15352225E+04</pdfrwt>
<totfact> 0.16311082E+01</totfact>
</mgrwt>
</event>
<event>
12    1  0.1536832E-007  0.2799384E+04  0.7818608E-02  0.8303460E-01
         -1   -1    0    0    0  501 -0.00000000000E+00  0.00000000000E+00  0.23639896698E+04  0.23639896698E+04  0.00000000000E+00 0.  1.
          1   -1    0    0  501    0  0.00000000000E+00 -0.00000000000E+00 -0.82874215133E+03  0.82874215133E+03  0.00000000000E+00 0. -1.
         23    2    1    2    0    0  0.33332890445E+03  0.65065746803E+03 -0.47178792301E+03  0.87482849498E+03  0.90982152570E+02 0.  0.
        254    2    1    2    0    0 -0.33332890445E+03 -0.65065746803E+03  0.20070354414E+04  0.23179033261E+04  0.90001181482E+03 0.  0.
        -24    2    4    4    0    0  0.43109720205E+02  0.59465061569E+02  0.10919643504E+04  0.10971905437E+04  0.77758633660E+02 0.  0.
         24    2    4    4    0    0 -0.37643862466E+03 -0.71012252960E+03  0.91507109100E+03  0.12207127824E+04  0.82489698274E+02 0.  0.
         13    1    3    3    0    0  0.18218898069E+03  0.42779184032E+03 -0.26393492506E+03  0.53465907641E+03  0.00000000000E+00 0. -1.
        -13    1    3    3    0    0  0.15113992377E+03  0.22286562771E+03 -0.20785299794E+03  0.34016941856E+03  0.00000000000E+00 0.  1.
          2    1    6    6  502    0 -0.37067643149E+03 -0.70869326216E+03  0.89739801623E+03  0.12020691978E+04  0.00000000000E+00 0. -1.
          3    1    5    5  503    0  0.40031409664E+02  0.62114916506E+02  0.52128611981E+03  0.52649785879E+03  0.00000000000E+00 0. -1.
         -4    1    5    5    0  503  0.30783105414E+01 -0.26498549368E+01  0.57067823064E+03  0.57069268495E+03  0.00000000000E+00 0.  1.
         -1    1    6    6    0  502 -0.57621931681E+01 -0.14292674374E+01  0.17673074773E+02  0.18643584619E+02  0.00000000000E+00 0.  1.
<mgrwt>
<rscale>  0 0.27993841E+04</rscale>
<asrwt>0</asrwt>
<pdfrwt beam="1">  1        1 0.12749879E+00 0.27993841E+04</pdfrwt>
<pdfrwt beam="2">  1       -1 0.36369072E+00 0.27993841E+04</pdfrwt>
<totfact> 0.22763255E-01</totfact>
</mgrwt>
</event>
<event>
12    1  0.1536832E-007  0.1558739E+04  0.7818608E-02  0.8846305E-01
          2   -1    0    0  501    0  0.00000000000E+00  0.00000000000E+00  0.26096836214E+03  0.26096836214E+03  0.00000000000E+00 0. -1.
         -2   -1    0    0    0  501 -0.00000000000E+00 -0.00000000000E+00 -0.23275501317E+04  0.23275501317E+04  0.00000000000E+00 0.  1.
         23    2    1    2    0    0  0.46125367401E+03 -0.18583860326E+03 -0.48299833824E+03  0.69904783379E+03  0.89941875315E+02 0.  0.
        254    2    1    2    0    0 -0.46125367401E+03  0.18583860326E+03 -0.15835834314E+04  0.18894706601E+04  0.90281335448E+03 0.  0.
        -24    2    4    4    0    0  0.42017013098E+02  0.38650655045E+03 -0.10586828817E+04  0.11306686416E+04  0.80308095652E+02 0.  0.
         24    2    4    4    0    0 -0.50327068711E+03 -0.20066794719E+03 -0.52490054966E+03  0.75880201846E+03  0.81920123636E+02 0.  0.
         11    1    3    3    0    0  0.20947860357E+02 -0.25382867949E+02 -0.56545428321E+02  0.65425440792E+02  0.00000000000E+00 0.  1.
        -11    1    3    3    0    0  0.44030581365E+03 -0.16045573531E+03 -0.42645290992E+03  0.63362239300E+03  0.00000000000E+00 0. -1.
          2    1    6    6  502    0 -0.38568735458E+03 -0.17781802927E+03 -0.37213853209E+03  0.56467784982E+03  0.00000000000E+00 0. -1.
          3    1    5    5  503    0  0.66171508704E+02  0.28822967356E+03 -0.79736824807E+03  0.85044173011E+03  0.00000000000E+00 0. -1.
         -4    1    5    5    0  503 -0.24154495606E+02  0.98276876892E+02 -0.26131463362E+03  0.28022691151E+03  0.00000000000E+00 0.  1.
         -1    1    6    6    0  502 -0.11758333253E+03 -0.22849917925E+02 -0.15276201757E+03  0.19412416864E+03  0.00000000000E+00 0.  1.
<mgrwt>
<rscale>  0 0.15587392E+04</rscale>
<asrwt>0</asrwt>
<pdfrwt beam="1">  1        2 0.40148979E-01 0.15587392E+04</pdfrwt>
<pdfrwt beam="2">  1       -2 0.35808464E+00 0.15587392E+04</pdfrwt>
<totfact> 0.17180310E+00</totfact>
</mgrwt>
</event>
<event>
12    1  0.1536832E-007  0.1483641E+04  0.7818608E-02  0.8895405E-01
         -2   -1    0    0    0  501 -0.00000000000E+00  0.00000000000E+00  0.42584086876E+03  0.42584086876E+03  0.00000000000E+00 0.  1.
          2   -1    0    0  501    0  0.00000000000E+00 -0.00000000000E+00 -0.12922607334E+04  0.12922607334E+04  0.00000000000E+00 0. -1.
         23    2    1    2    0    0 -0.20884348465E+03  0.25221229862E+03 -0.66957431121E+03  0.75087601920E+03  0.90875702573E+02 0.  0.
        254    2    1    2    0    0  0.20884348465E+03 -0.25221229862E+03 -0.19684555345E+03  0.96722558299E+03  0.88856654890E+03 0.  0.
        -24    2    4    4    0    0  0.44074188540E+03  0.95130518397E+02  0.73246908873E+02  0.46371158762E+03  0.79750246107E+02 0.  0.
         24    2    4    4    0    0 -0.23189840075E+03 -0.34734281702E+03 -0.27009246233E+03  0.50351399537E+03  0.78437902357E+02 0.  0.
         13    1    3    3    0    0 -0.20569353679E+03  0.20010165412E+03 -0.54874151965E+03  0.61924773592E+03  0.00000000000E+00 0. -1.
        -13    1    3    3    0    0 -0.31499478637E+01  0.52110644504E+02 -0.12083279156E+03  0.13162828328E+03  0.00000000000E+00 0.  1.
          4    1    6    6  502    0 -0.17999481714E+03 -0.23446982180E+03 -0.15320406843E+03  0.33293500585E+03  0.00000000000E+00 0. -1.
          3    1    5    5  503    0  0.15028987397E+03  0.80095116471E+01 -0.48444624518E+01  0.15058109878E+03  0.00000000000E+00 0. -1.
         -4    1    5    5    0  503  0.29045201143E+03  0.87121006750E+02  0.78091371325E+02  0.31313048884E+03  0.00000000000E+00 0.  1.
         -3    1    6    6    0  502 -0.51903583609E+02 -0.11287299521E+03 -0.11688839390E+03  0.17057898952E+03  0.00000000000E+00 0.  1.
<mgrwt>
<rscale>  0 0.14836407E+04</rscale>
<asrwt>0</asrwt>
<pdfrwt beam="1">  1        2 0.19880934E+00 0.14836407E+04</pdfrwt>
<pdfrwt beam="2">  1       -2 0.65513981E-01 0.14836407E+04</pdfrwt>
<totfact> 0.34684751E+01</totfact>
</mgrwt>
</event>
<event>
12    1  0.1536832E-007  0.1165756E+04  0.7818608E-02  0.9143370E-01
         -2   -1    0    0    0  501 -0.00000000000E+00  0.00000000000E+00  0.81658172847E+02  0.81658172847E+02  0.00000000000E+00 0.  1.
          2   -1    0    0  501    0  0.00000000000E+00 -0.00000000000E+00 -0.41605984696E+04  0.41605984696E+04  0.00000000000E+00 0. -1.
         23    2    1    2    0    0 -0.11557662146E+03  0.13301710966E+03 -0.35842888186E+03  0.40952683965E+03  0.90495647140E+02 0.  0.
        254    2    1    2    0    0  0.11557662146E+03 -0.13301710966E+03 -0.37205114149E+04  0.38327298028E+04  0.90363767408E+03 0.  0.
        -24    2    4    4    0    0 -0.10877670155E+03 -0.35577582027E+03 -0.31698185641E+04  0.31925175848E+04  0.77524158555E+02 0.  0.
         24    2    4    4    0    0  0.22435332302E+03  0.22275871061E+03 -0.55069285087E+03  0.64021221802E+03  0.81567220193E+02 0.  0.
         13    1    3    3    0    0 -0.48283697728E+02  0.73851247175E+02 -0.26829797677E+03  0.28243428707E+03  0.00000000000E+00 0. -1.
        -13    1    3    3    0    0 -0.67292923734E+02  0.59165862484E+02 -0.90130905092E+02  0.12709255258E+03  0.00000000000E+00 0.  1.
          4    1    6    6  502    0  0.97476201062E+02  0.89067848615E+02 -0.15443567627E+03  0.20318727701E+03  0.00000000000E+00 0. -1.
          1    1    5    5  503    0 -0.23568158443E+01 -0.52939777301E+02 -0.68599124134E+03  0.68803499751E+03  0.00000000000E+00 0. -1.
         -2    1    5    5    0  503 -0.10641988571E+03 -0.30283604297E+03 -0.24838273227E+04  0.25044825873E+04  0.00000000000E+00 0.  1.
         -3    1    6    6    0  502  0.12687712195E+03  0.13369086199E+03 -0.39625717459E+03  0.43702494102E+03  0.00000000000E+00 0.  1.
<mgrwt>
<rscale>  0 0.11657562E+04</rscale>
<asrwt>0</asrwt>
<pdfrwt beam="1">  1        2 0.64009221E+00 0.11657562E+04</pdfrwt>
<pdfrwt beam="2">  1       -2 0.12562793E-01 0.11657562E+04</pdfrwt>
<totfact> 0.12338503E+01</totfact>
</mgrwt>
</event>
<event>
12    1  0.1536832E-007  0.1547112E+04  0.7818608E-02  0.8853715E-01
         -1   -1    0    0    0  501 -0.00000000000E+00  0.00000000000E+00  0.11895885370E+04  0.11895885370E+04  0.00000000000E+00 0.  1.
          1   -1    0    0  501    0  0.00000000000E+00 -0.00000000000E+00 -0.50302154381E+03  0.50302154381E+03  0.00000000000E+00 0. -1.
         23    2    1    2    0    0 -0.52299013983E+02 -0.36396101315E+03  0.59158548190E+03  0.70247910617E+03  0.91108211773E+02 0.  0.
        254    2    1    2    0    0  0.52299013983E+02  0.36396101315E+03  0.94981511308E+02  0.99013097466E+03  0.91440420686E+03 0.  0.
        -24    2    4    4    0    0  0.13014202849E+03 -0.79218189754E+02 -0.32598509530E+03  0.36863645156E+03  0.80087963501E+02 0.  0.
         24    2    4    4    0    0 -0.77843014509E+02  0.44317920291E+03  0.42096660660E+03  0.62149452309E+03  0.81087715252E+02 0.  0.
         11    1    3    3    0    0 -0.51712310434E+02 -0.82684236193E+02  0.14935663421E+03  0.17837670854E+03  0.00000000000E+00 0. -1.
        -11    1    3    3    0    0 -0.58670354833E+00 -0.28127677696E+03  0.44222884769E+03  0.52410239763E+03  0.00000000000E+00 0.  1.
          2    1    6    6  502    0 -0.46372879214E+02  0.10036656169E+03  0.76156395984E+02  0.13425232691E+03  0.00000000000E+00 0. -1.
          1    1    5    5  503    0  0.33897542398E+02  0.60041915919E+01 -0.28962257579E+02  0.44987843484E+02  0.00000000000E+00 0. -1.
         -2    1    5    5    0  503  0.96244486094E+02 -0.85222381346E+02 -0.29702283772E+03  0.32364860808E+03  0.00000000000E+00 0.  1.
         -3    1    6    6    0  502 -0.31470135296E+02  0.34281264121E+03  0.34481021062E+03  0.48724219618E+03  0.00000000000E+00 0.  1.
<mgrwt>
<rscale>  0 0.15471117E+04</rscale>
<asrwt>0</asrwt>
<pdfrwt beam="1">  1        1 0.77387930E-01 0.15471117E+04</pdfrwt>
<pdfrwt beam="2">  1       -1 0.18301362E+00 0.15471117E+04</pdfrwt>
<totfact> 0.83861911E+00</totfact>
</mgrwt>
</event>
<event>
12    1  0.1536832E-007  0.2740105E+04  0.7818608E-02  0.8322108E-01
          2   -1    0    0  501    0  0.00000000000E+00  0.00000000000E+00  0.20916529654E+04  0.20916529654E+04  0.00000000000E+00 0. -1.
         -2   -1    0    0    0  501 -0.00000000000E+00 -0.00000000000E+00 -0.89739746775E+03  0.89739746775E+03  0.00000000000E+00 0.  1.
         23    2    1    2    0    0 -0.64939936694E+03  0.98736420508E+03  0.86046732015E+03  0.14643693554E+04  0.85825339267E+02 0.  0.
        254    2    1    2    0    0  0.64939936694E+03 -0.98736420508E+03  0.33378817748E+03  0.15246810777E+04  0.90367595410E+03 0.  0.
        -24    2    4    4    0    0 -0.50709454490E+02 -0.48582561262E+03  0.42931024398E+03  0.65446432067E+03  0.73609013032E+02 0.  0.
         24    2    4    4    0    0  0.70010882143E+03 -0.50153859246E+03 -0.95522066492E+02  0.87021675702E+03  0.80370501141E+02 0.  0.
         11    1    3    3    0    0 -0.14941228729E+03  0.25452041148E+03  0.17373271251E+03  0.34247295784E+03  0.00000000000E+00 0.  1.
        -11    1    3    3    0    0 -0.49998707964E+03  0.73284379360E+03  0.68673460763E+03  0.11218963976E+04  0.00000000000E+00 0. -1.
          4    1    6    6  502    0 -0.10360172257E+00 -0.44178796604E+01 -0.50780370379E+01  0.67316308699E+01  0.00000000000E+00 0. -1.
          1    1    5    5  503    0  0.28805586861E+00 -0.50164050546E+02  0.18425034348E+02  0.53441527243E+02  0.00000000000E+00 0. -1.
         -2    1    5    5    0  503 -0.50997510359E+02 -0.43566156207E+03  0.41088520963E+03  0.60102279343E+03  0.00000000000E+00 0.  1.
         -3    1    6    6    0  502  0.70021242315E+03 -0.49712071280E+03 -0.90444029455E+02  0.86348512615E+03  0.00000000000E+00 0.  1.
<mgrwt>
<rscale>  0 0.27401052E+04</rscale>
<asrwt>0</asrwt>
<pdfrwt beam="1">  1        2 0.32179276E+00 0.27401052E+04</pdfrwt>
<pdfrwt beam="2">  1       -2 0.13806115E+00 0.27401052E+04</pdfrwt>
<totfact> 0.19340915E+00</totfact>
</mgrwt>
</event>
<event>
12    1  0.1536832E-007  0.1567442E+04  0.7818608E-02  0.8840803E-01
         -1   -1    0    0    0  501 -0.00000000000E+00  0.00000000000E+00  0.32201864308E+03  0.32201864308E+03  0.00000000000E+00 0. -1.
          1   -1    0    0  501    0  0.00000000000E+00 -0.00000000000E+00 -0.19074008332E+04  0.19074008332E+04  0.00000000000E+00 0.  1.
         23    2    1    2    0    0 -0.42033513931E+03  0.13759026310E+03 -0.15110905261E+03  0.47585940927E+03  0.89417681576E+02 0.  0.
        254    2    1    2    0    0  0.42033513931E+03 -0.13759026310E+03 -0.14342731375E+04  0.17535600670E+04  0.90676389750E+03 0.  0.
        -24    2    4    4    0    0  0.19650943721E+02  0.16487653508E+03 -0.11641902524E+04  0.11786380687E+04  0.79235861973E+02 0.  0.
         24    2    4    4    0    0  0.40068419559E+03 -0.30246679818E+03 -0.27008288514E+03  0.57492199833E+03  0.74542274719E+02 0.  0.
         11    1    3    3    0    0 -0.34786726152E+03  0.12699372272E+03 -0.91578016708E+02  0.38147813881E+03  0.00000000000E+00 0. -1.
        -11    1    3    3    0    0 -0.72467877788E+02  0.10596540386E+02 -0.59531035898E+02  0.94381270464E+02  0.00000000000E+00 0.  1.
          2    1    6    6  502    0  0.30407338335E+03 -0.24431871099E+03 -0.24085367392E+03  0.45843510690E+03  0.00000000000E+00 0. -1.
          3    1    5    5  503    0  0.41425949821E+00  0.16398485598E+03 -0.10707117608E+04  0.10831966024E+04  0.00000000000E+00 0. -1.
         -4    1    5    5    0  503  0.19236684222E+02  0.89167909724E+00 -0.93478491588E+02  0.95441466361E+02  0.00000000000E+00 0.  1.
         -1    1    6    6    0  502  0.96610812236E+02 -0.58148087193E+02 -0.29229211222E+02  0.11648689142E+03  0.00000000000E+00 0.  1.
<mgrwt>
<rscale>  0 0.15674420E+04</rscale>
<asrwt>0</asrwt>
<pdfrwt beam="1">  1        1 0.29344628E+00 0.15674420E+04</pdfrwt>
<pdfrwt beam="2">  1       -1 0.49541331E-01 0.15674420E+04</pdfrwt>
<totfact> 0.13539468E+01</totfact>
</mgrwt>
</event>
<event>
12    1  0.1536832E-007  0.1557624E+04  0.7818608E-02  0.8847013E-01
          2   -1    0    0  501    0  0.00000000000E+00  0.00000000000E+00  0.22135641604E+04  0.22135641604E+04  0.00000000000E+00 0. -1.
         -2   -1    0    0    0  501 -0.00000000000E+00 -0.00000000000E+00 -0.27401410217E+03  0.27401410217E+03  0.00000000000E+00 0.  1.
         23    2    1    2    0    0  0.25630335117E+03  0.40424420979E+03  0.33983489176E+03  0.59415119399E+03  0.91777441047E+02 0.  0.
        254    2    1    2    0    0 -0.25630335117E+03 -0.40424420979E+03  0.15997151665E+04  0.18934270686E+04  0.89267724361E+03 0.  0.
        -24    2    4    4    0    0 -0.22676842072E+03  0.12834774294E+03  0.11794028086E+04  0.12103520333E+04  0.77871687072E+02 0.  0.
         24    2    4    4    0    0 -0.29534930454E+02 -0.53259195273E+03  0.42031235782E+03  0.68307503531E+03  0.73501874127E+02 0.  0.
         11    1    3    3    0    0  0.76000738378E+01 -0.40901572427E+01  0.10488723348E+02  0.13583218546E+02  0.00000000000E+00 0. -1.
        -11    1    3    3    0    0  0.24870327733E+03  0.40833436704E+03  0.32934616841E+03  0.58056797544E+03  0.00000000000E+00 0.  1.
          4    1    6    6  502    0 -0.35951588129E+02 -0.11464704085E+03  0.84405704356E+02  0.14683590702E+03  0.00000000000E+00 0. -1.
          1    1    5    5  503    0 -0.25720870381E+02  0.32324186843E+02  0.10002938652E+03  0.10822335420E+03  0.00000000000E+00 0. -1.
         -2    1    5    5    0  503 -0.20104755033E+03  0.96023556097E+02  0.10793734221E+04  0.11021286791E+04  0.00000000000E+00 0.  1.
         -1    1    6    6    0  502  0.64166576743E+01 -0.41794491189E+03  0.33590665346E+03  0.53623912829E+03  0.00000000000E+00 0.  1.
<mgrwt>
<rscale>  0 0.15576236E+04</rscale>
<asrwt>0</asrwt>
<pdfrwt beam="1">  1        2 0.34054832E+00 0.15576236E+04</pdfrwt>
<pdfrwt beam="2">  1       -2 0.42156017E-01 0.15576236E+04</pdfrwt>
<totfact> 0.26056382E+01</totfact>
</mgrwt>
</event>
<event>
12    1  0.1536832E-007  0.1258349E+04  0.7818608E-02  0.9063263E-01
         -1   -1    0    0    0  501 -0.00000000000E+00  0.00000000000E+00  0.48807701419E+03  0.48807701419E+03  0.00000000000E+00 0.  1.
          1   -1    0    0  501    0  0.00000000000E+00 -0.00000000000E+00 -0.81106105597E+03  0.81106105597E+03  0.00000000000E+00 0. -1.
         23    2    1    2    0    0  0.29016120115E+03 -0.17298085893E+02 -0.15507825392E+03  0.34076612483E+03  0.87060556844E+02 0.  0.
        254    2    1    2    0    0 -0.29016120115E+03  0.17298085893E+02 -0.16790578786E+03  0.95837194533E+03  0.89765900295E+03 0.  0.
        -24    2    4    4    0    0  0.93038134519E+02  0.36182808922E+03  0.63743436844E+02  0.38795524107E+03  0.82887771751E+02 0.  0.
         24    2    4    4    0    0 -0.38319933567E+03 -0.34453000333E+03 -0.23164922470E+03  0.57041670426E+03  0.78556980216E+02 0.  0.
         13    1    3    3    0    0  0.13680783727E+03 -0.48643664665E+02 -0.92720258381E+02  0.17227778953E+03  0.00000000000E+00 0. -1.
        -13    1    3    3    0    0  0.15335336388E+03  0.31345578772E+02 -0.62357995543E+02  0.16848833530E+03  0.00000000000E+00 0.  1.
          4    1    6    6  502    0 -0.16950540234E+02 -0.19378951646E+01  0.19559601855E+01  0.17172711846E+02  0.00000000000E+00 0. -1.
          3    1    5    5  503    0 -0.14527468622E+02  0.67719754816E+02  0.17089901189E+02  0.71337768816E+02  0.00000000000E+00 0. -1.
         -4    1    5    5    0  503  0.10756560314E+03  0.29410833441E+03  0.46653535655E+02  0.31661747225E+03  0.00000000000E+00 0.  1.
         -3    1    6    6    0  502 -0.36624879544E+03 -0.34259210817E+03 -0.23360518488E+03  0.55324399242E+03  0.00000000000E+00 0.  1.
<mgrwt>
<rscale>  0 0.12583485E+04</rscale>
<asrwt>0</asrwt>
<pdfrwt beam="1">  1        1 0.12477862E+00 0.12583485E+04</pdfrwt>
<pdfrwt beam="2">  1       -1 0.75088771E-01 0.12583485E+04</pdfrwt>
<totfact> 0.38024169E+01</totfact>
</mgrwt>
</event>
<event>
12    1  0.1536832E-007  0.1780297E+04  0.7818608E-02  0.8716848E-01
          1   -1    0    0  501    0  0.00000000000E+00  0.00000000000E+00  0.73614124434E+03  0.73614124434E+03  0.00000000000E+00 0. -1.
         -1   -1    0    0    0  501 -0.00000000000E+00 -0.00000000000E+00 -0.10763752225E+04  0.10763752225E+04  0.00000000000E+00 0.  1.
         23    2    1    2    0    0  0.51713573118E+03 -0.41522298585E+03 -0.10523588976E+03  0.67749795023E+03  0.89941023046E+02 0.  0.
        254    2    1    2    0    0 -0.51713573118E+03  0.41522298585E+03 -0.23499808835E+03  0.11350185166E+04  0.89061969380E+03 0.  0.
        -24    2    4    4    0    0 -0.27659301461E+02  0.43662375501E+03  0.18816478390E+03  0.48268297208E+03  0.78559055762E+02 0.  0.
         24    2    4    4    0    0 -0.48947642972E+03 -0.21400769155E+02 -0.42316287225E+03  0.65233554449E+03  0.80185272848E+02 0.  0.
         11    1    3    3    0    0  0.67990525323E+02 -0.30825173848E+02 -0.34041443787E+02  0.82047076557E+02  0.00000000000E+00 0. -1.
        -11    1    3    3    0    0  0.44914520586E+03 -0.38439781200E+03 -0.71194445972E+02  0.59545087367E+03  0.00000000000E+00 0.  1.
          2    1    6    6  502    0 -0.20831490117E+03 -0.11485913880E+01 -0.23166137389E+03  0.31155001118E+03  0.00000000000E+00 0. -1.
          3    1    5    5  503    0 -0.30175796599E+02  0.66446758423E+02  0.45251113778E+02  0.85868583915E+02  0.00000000000E+00 0. -1.
         -4    1    5    5    0  503  0.25164951382E+01  0.37017699658E+03  0.14291367012E+03  0.39681438816E+03  0.00000000000E+00 0.  1.
         -1    1    6    6    0  502 -0.28116152855E+03 -0.20252177767E+02 -0.19150149836E+03  0.34078553331E+03  0.00000000000E+00 0.  1.
<mgrwt>
<rscale>  0 0.17802968E+04</rscale>
<asrwt>0</asrwt>
<pdfrwt beam="1">  1        1 0.11325250E+00 0.17802968E+04</pdfrwt>
<pdfrwt beam="2">  1       -1 0.16559619E+00 0.17802968E+04</pdfrwt>
<totfact> 0.63216579E+00</totfact>
</mgrwt>
</event>
<event>
12    1  0.1536832E-007  0.4006473E+04  0.7818608E-02  0.8003242E-01
          2   -1    0    0  501    0  0.00000000000E+00  0.00000000000E+00  0.36866498593E+04  0.36866498593E+04  0.00000000000E+00 0.  1.
         -2   -1    0    0    0  501 -0.00000000000E+00 -0.00000000000E+00 -0.10885105124E+04  0.10885105124E+04  0.00000000000E+00 0. -1.
         23    2    1    2    0    0  0.29303754829E+03  0.18692146982E+04  0.11987333933E+04  0.22415741809E+04  0.88647997950E+02 0.  0.
        254    2    1    2    0    0 -0.29303754829E+03 -0.18692146982E+04  0.13994059536E+04  0.25335861908E+04  0.93855600273E+03 0.  0.
        -24    2    4    4    0    0  0.68697580587E+02 -0.75641267410E+03  0.79558540050E+02  0.76788469368E+03  0.80236216143E+02 0.  0.
         24    2    4    4    0    0 -0.36173512887E+03 -0.11128020241E+04  0.13198474136E+04  0.17657014971E+04  0.80770869381E+02 0.  0.
         13    1    3    3    0    0  0.14004811949E+02  0.92897755989E+02  0.83590142643E+02  0.12575150008E+03  0.00000000000E+00 0. -1.
        -13    1    3    3    0    0  0.27903273634E+03  0.17763169422E+04  0.11151432507E+04  0.21158226809E+04  0.00000000000E+00 0.  1.
          2    1    6    6  502    0 -0.14608071527E+02 -0.12566928413E+03  0.14177824970E+03  0.19001904330E+03  0.00000000000E+00 0. -1.
          1    1    5    5  503    0 -0.12922338886E+02 -0.76859164032E+02  0.22251859509E+02  0.81052225075E+02  0.00000000000E+00 0. -1.
         -2    1    5    5    0  503  0.81619919473E+02 -0.67955351006E+03  0.57306680541E+02  0.68683246860E+03  0.00000000000E+00 0.  1.
         -1    1    6    6    0  502 -0.34712705735E+03 -0.98713274001E+03  0.11780691639E+04  0.15756824538E+04  0.00000000000E+00 0.  1.
<mgrwt>
<rscale>  0 0.40064733E+04</rscale>
<asrwt>0</asrwt>
<pdfrwt beam="1">  1        2 0.56717689E+00 0.40064733E+04</pdfrwt>
<pdfrwt beam="2">  1       -2 0.16746316E+00 0.40064733E+04</pdfrwt>
<totfact> 0.10436775E-01</totfact>
</mgrwt>
</event>
<event>
12    1  0.1536832E-007  0.1322526E+04  0.7818608E-02  0.9011890E-01
         -1   -1    0    0    0  501 -0.00000000000E+00  0.00000000000E+00  0.28508977741E+03  0.28508977741E+03  0.00000000000E+00 0.  1.
          1   -1    0    0  501    0  0.00000000000E+00 -0.00000000000E+00 -0.15337923722E+04  0.15337923722E+04  0.00000000000E+00 0. -1.
         23    2    1    2    0    0  0.54698204306E+02 -0.29475350667E+03 -0.58094014310E+03  0.66001387145E+03  0.90858887221E+02 0.  0.
        254    2    1    2    0    0 -0.54698204306E+02  0.29475350667E+03 -0.66776245169E+03  0.11588682782E+04  0.89844169038E+03 0.  0.
        -24    2    4    4    0    0  0.40187680156E+03  0.25398194183E+03 -0.34778545892E+03  0.59449635005E+03  0.80370357617E+02 0.  0.
         24    2    4    4    0    0 -0.45657500587E+03  0.40771564844E+02 -0.31997699277E+03  0.56437192812E+03  0.77507037517E+02 0.  0.
         13    1    3    3    0    0 -0.23710582226E+02 -0.44359877949E+02 -0.10881177360E+03  0.11987490377E+03  0.00000000000E+00 0. -1.
        -13    1    3    3    0    0  0.78408786532E+02 -0.25039362872E+03 -0.47212836950E+03  0.54013896767E+03  0.00000000000E+00 0.  1.
          2    1    6    6  502    0 -0.76530362873E+02 -0.22061346516E+02 -0.57896601027E+02  0.98466318414E+02  0.00000000000E+00 0. -1.
          1    1    5    5  503    0  0.46856808321E+02  0.43144149642E+02 -0.80409401173E+02  0.10257996847E+03  0.00000000000E+00 0. -1.
         -2    1    5    5    0  503  0.35501999324E+03  0.21083779218E+03 -0.26737605775E+03  0.49191638158E+03  0.00000000000E+00 0.  1.
         -1    1    6    6    0  502 -0.38004464299E+03  0.62832911361E+02 -0.26208039175E+03  0.46590560971E+03  0.00000000000E+00 0.  1.
<mgrwt>
<rscale>  0 0.13225257E+04</rscale>
<asrwt>0</asrwt>
<pdfrwt beam="1">  1        1 0.23596805E+00 0.13225257E+04</pdfrwt>
<pdfrwt beam="2">  1       -1 0.43859966E-01 0.13225257E+04</pdfrwt>
<totfact> 0.31233144E+01</totfact>
</mgrwt>
</event>
<event>
12    1  0.1536832E-007  0.1080537E+04  0.7818608E-02  0.9224372E-01
          2   -1    0    0  501    0  0.00000000000E+00  0.00000000000E+00  0.37561784724E+03  0.37561784724E+03  0.00000000000E+00 0. -1.
         -2   -1    0    0    0  501 -0.00000000000E+00 -0.00000000000E+00 -0.77709327129E+03  0.77709327129E+03  0.00000000000E+00 0.  1.
         23    2    1    2    0    0  0.92747675426E+02 -0.96951483800E+02 -0.11212350838E+03  0.19788698360E+03  0.92659892283E+02 0.  0.
        254    2    1    2    0    0 -0.92747675426E+02  0.96951483800E+02 -0.28935191566E+03  0.95482413493E+03  0.89997937534E+03 0.  0.
        -24    2    4    4    0    0  0.37616159103E+03  0.18252959839E+03 -0.15841159533E+03  0.45426097074E+03  0.80275769421E+02 0.  0.
         24    2    4    4    0    0 -0.46890926645E+03 -0.85578114586E+02 -0.13094032034E+03  0.50056316419E+03  0.78858100349E+02 0.  0.
         13    1    3    3    0    0  0.30862875498E+02 -0.17096438955E+02  0.12524267248E+02  0.37438784423E+02  0.00000000000E+00 0. -1.
        -13    1    3    3    0    0  0.61884799928E+02 -0.79855044845E+02 -0.12464777563E+03  0.16044819917E+03  0.00000000000E+00 0.  1.
          2    1    6    6  502    0 -0.34939047586E+03 -0.82083572311E+02 -0.12771591464E+03  0.38094982914E+03  0.00000000000E+00 0. -1.
          1    1    5    5  503    0  0.25736164080E+03  0.11183699694E+03 -0.66904104682E+02  0.28847649343E+03  0.00000000000E+00 0. -1.
         -2    1    5    5    0  503  0.11879995023E+03  0.70692601448E+02 -0.91507490646E+02  0.16578447731E+03  0.00000000000E+00 0.  1.
         -3    1    6    6    0  502 -0.11951879059E+03 -0.34945422751E+01 -0.32244056944E+01  0.11961333505E+03  0.00000000000E+00 0.  1.
<mgrwt>
<rscale>  0 0.10805371E+04</rscale>
<asrwt>0</asrwt>
<pdfrwt beam="1">  1        2 0.57787361E-01 0.10805371E+04</pdfrwt>
<pdfrwt beam="2">  1       -2 0.11955281E+00 0.10805371E+04</pdfrwt>
<totfact> 0.45456973E+01</totfact>
</mgrwt>
</event>
<event>
12    1  0.1536832E-007  0.1260957E+04  0.7818608E-02  0.9061113E-01
          2   -1    0    0  501    0  0.00000000000E+00  0.00000000000E+00  0.11517397975E+04  0.11517397975E+04  0.00000000000E+00 0. -1.
         -2   -1    0    0    0  501 -0.00000000000E+00 -0.00000000000E+00 -0.34513256594E+03  0.34513256594E+03  0.00000000000E+00 0.  1.
         23    2    1    2    0    0 -0.10784166573E+02  0.28693031162E+03  0.34297423493E+03  0.45656473009E+03  0.91513523412E+02 0.  0.
        254    2    1    2    0    0  0.10784166573E+02 -0.28693031162E+03  0.46363299659E+03  0.10403076333E+04  0.88591145968E+03 0.  0.
        -24    2    4    4    0    0 -0.25400075028E+03  0.11666603914E+03 -0.87207473350E+02  0.30349457058E+03  0.79852771580E+02 0.  0.
         24    2    4    4    0    0  0.26478491686E+03 -0.40359635076E+03  0.55084046994E+03  0.73681306272E+03  0.80418900291E+02 0.  0.
         13    1    3    3    0    0 -0.89378076170E+01  0.16037974514E+03  0.25869545094E+03  0.30450760811E+03  0.00000000000E+00 0. -1.
        -13    1    3    3    0    0 -0.18463589557E+01  0.12655056647E+03  0.84278783984E+02  0.15205712198E+03  0.00000000000E+00 0.  1.
          2    1    6    6  502    0  0.56220303760E+02 -0.76505969097E+02  0.16059243515E+03  0.18655780897E+03  0.00000000000E+00 0. -1.
          3    1    5    5  503    0 -0.10570472684E+03  0.64017574242E+01 -0.31725708026E+02  0.11054859712E+03  0.00000000000E+00 0. -1.
         -4    1    5    5    0  503 -0.14829602344E+03  0.11026428172E+03 -0.55481765324E+02  0.19294597346E+03  0.00000000000E+00 0.  1.
         -1    1    6    6    0  502  0.20856461310E+03 -0.32709038166E+03  0.39024803479E+03  0.55025525374E+03  0.00000000000E+00 0.  1.
<mgrwt>
<rscale>  0 0.12609566E+04</rscale>
<asrwt>0</asrwt>
<pdfrwt beam="1">  1        2 0.17719074E+00 0.12609566E+04</pdfrwt>
<pdfrwt beam="2">  1       -2 0.53097318E-01 0.12609566E+04</pdfrwt>
<totfact> 0.66560544E+01</totfact>
</mgrwt>
</event>
<event>
12    1  0.1536832E-007  0.1629891E+04  0.7818608E-02  0.8802392E-01
          1   -1    0    0  501    0  0.00000000000E+00  0.00000000000E+00  0.15326155750E+04  0.15326155750E+04  0.00000000000E+00 0. -1.
         -1   -1    0    0    0  501 -0.00000000000E+00 -0.00000000000E+00 -0.43333507338E+03  0.43333507338E+03  0.00000000000E+00 0.  1.
         23    2    1    2    0    0 -0.12585684855E+03  0.21939369582E+03  0.97802947376E+03  0.10146307543E+04  0.94659262621E+02 0.  0.
        254    2    1    2    0    0  0.12585684855E+03 -0.21939369582E+03  0.12125102787E+03  0.95131989406E+03  0.90902925639E+03 0.  0.
        -24    2    4    4    0    0 -0.12818876145E+03 -0.38992547733E+03 -0.23093028937E+03  0.47794518816E+03  0.81416017468E+02 0.  0.
         24    2    4    4    0    0  0.25404561001E+03  0.17053178151E+03  0.35218131724E+03  0.47337470590E+03  0.80197702616E+02 0.  0.
         11    1    3    3    0    0 -0.78808292324E+02  0.18051216022E+03  0.85370204367E+03  0.87612930912E+03  0.00000000000E+00 0. -1.
        -11    1    3    3    0    0 -0.47048556230E+02  0.38881535608E+02  0.12432743009E+03  0.13850144522E+03  0.00000000000E+00 0.  1.
          4    1    6    6  502    0  0.10697090686E+03  0.11527241648E+03  0.15001592453E+03  0.21733679515E+03  0.00000000000E+00 0. -1.
          1    1    5    5  503    0 -0.18672942154E+02 -0.89536067560E+01 -0.20559603038E+02  0.29181211759E+02  0.00000000000E+00 0. -1.
         -2    1    5    5    0  503 -0.10951581930E+03 -0.38097187057E+03 -0.21037068633E+03  0.44876397640E+03  0.00000000000E+00 0.  1.
         -3    1    6    6    0  502  0.14707470315E+03  0.55259365028E+02  0.20216539271E+03  0.25603791075E+03  0.00000000000E+00 0.  1.
<mgrwt>
<rscale>  0 0.16298909E+04</rscale>
<asrwt>0</asrwt>
<pdfrwt beam="1">  1        1 0.23578701E+00 0.16298909E+04</pdfrwt>
<pdfrwt beam="2">  1       -1 0.66666935E-01 0.16298909E+04</pdfrwt>
<totfact> 0.13549999E+01</totfact>
</mgrwt>
</event>
<event>
12    1  0.1536832E-007  0.1768866E+04  0.7818608E-02  0.8723034E-01
         -1   -1    0    0    0  501 -0.00000000000E+00  0.00000000000E+00  0.41571595733E+03  0.41571595733E+03  0.00000000000E+00 0.  1.
          1   -1    0    0  501    0  0.00000000000E+00 -0.00000000000E+00 -0.18816255047E+04  0.18816255047E+04  0.00000000000E+00 0. -1.
         23    2    1    2    0    0  0.63014143896E+03  0.10106840937E+03 -0.71994887833E+03  0.96667392664E+03  0.94016150563E+02 0.  0.
        254    2    1    2    0    0 -0.63014143896E+03 -0.10106840937E+03 -0.74596066908E+03  0.13306675354E+04  0.89829043943E+03 0.  0.
        -24    2    4    4    0    0 -0.60933479248E+03  0.28147701170E+03 -0.62626250548E+03  0.92153766048E+03  0.80676740599E+02 0.  0.
         24    2    4    4    0    0 -0.20806646483E+02 -0.38254542107E+03 -0.11969816360E+03  0.40912987495E+03  0.79282334023E+02 0.  0.
         13    1    3    3    0    0  0.62508930137E+02 -0.16857017845E+02 -0.60417447999E+02  0.88553901214E+02  0.00000000000E+00 0.  1.
        -13    1    3    3    0    0  0.56763250883E+03  0.11792542722E+03 -0.65953143033E+03  0.87812002542E+03  0.00000000000E+00 0. -1.
          4    1    6    6  502    0 -0.32500221197E+02 -0.68713153794E+02 -0.11015024771E+02  0.76805550925E+02  0.00000000000E+00 0. -1.
          3    1    5    5  503    0 -0.13891556287E+03  0.45611626231E+02 -0.17724840417E+03  0.22977151877E+03  0.00000000000E+00 0. -1.
         -2    1    5    5    0  503 -0.47041922961E+03  0.23586538547E+03 -0.44901410131E+03  0.69176614171E+03  0.00000000000E+00 0.  1.
         -3    1    6    6    0  502  0.11693574713E+02 -0.31383226728E+03 -0.10868313883E+03  0.33232432403E+03  0.00000000000E+00 0.  1.
<mgrwt>
<rscale>  0 0.17688660E+04</rscale>
<asrwt>0</asrwt>
<pdfrwt beam="1">  1        1 0.28948085E+00 0.17688660E+04</pdfrwt>
<pdfrwt beam="2">  1       -1 0.63956300E-01 0.17688660E+04</pdfrwt>
<totfact> 0.84110474E+00</totfact>
</mgrwt>
</event>
<event>
12    1  0.1536832E-007  0.2200687E+04  0.7818608E-02  0.8518142E-01
          1   -1    0    0  501    0  0.00000000000E+00  0.00000000000E+00  0.15675278341E+04  0.15675278341E+04  0.00000000000E+00 0. -1.
         -1   -1    0    0    0  501 -0.00000000000E+00 -0.00000000000E+00 -0.77239837017E+03  0.77239837017E+03  0.00000000000E+00 0.  1.
         23    2    1    2    0    0 -0.45287150041E+03 -0.63287891280E+03 -0.17301777980E+03  0.80245149733E+03  0.91460042047E+02 0.  0.
        254    2    1    2    0    0  0.45287150041E+03  0.63287891280E+03  0.96814724372E+03  0.15374747069E+04  0.90603039396E+03 0.  0.
        -24    2    4    4    0    0  0.55285168342E+03  0.80336416774E+03  0.75801832836E+03  0.12377377889E+04  0.79775171677E+02 0.  0.
         24    2    4    4    0    0 -0.99980183010E+02 -0.17048525493E+03  0.21012891536E+03  0.29973691805E+03  0.81405158496E+02 0.  0.
         13    1    3    3    0    0 -0.20957699833E+03 -0.35137645523E+03 -0.59395893874E+02  0.41341964604E+03  0.00000000000E+00 0. -1.
        -13    1    3    3    0    0 -0.24329450208E+03 -0.28150245757E+03 -0.11362188593E+03  0.38903185130E+03  0.00000000000E+00 0.  1.
          2    1    6    6  502    0 -0.77278258049E+02 -0.17271282103E+03  0.17427647202E+03  0.25724295212E+03  0.00000000000E+00 0. -1.
          3    1    5    5  503    0  0.51589080993E+03  0.76843971998E+03  0.73513279552E+03  0.11819742629E+04  0.00000000000E+00 0. -1.
         -4    1    5    5    0  503  0.36960873492E+02  0.34924447759E+02  0.22885532839E+02  0.55763526017E+02  0.00000000000E+00 0.  1.
         -1    1    6    6    0  502 -0.22701924962E+02  0.22275660930E+01  0.35852443338E+02  0.42493965936E+02  0.00000000000E+00 0.  1.
<mgrwt>
<rscale>  0 0.22006871E+04</rscale>
<asrwt>0</asrwt>
<pdfrwt beam="1">  1        1 0.24115813E+00 0.22006871E+04</pdfrwt>
<pdfrwt beam="2">  1       -1 0.11883052E+00 0.22006871E+04</pdfrwt>
<totfact> 0.33961342E+00</totfact>
</mgrwt>
</event>
<event>
12    1  0.1536832E-007  0.2715428E+04  0.7818608E-02  0.8330017E-01
         -2   -1    0    0    0  501 -0.00000000000E+00  0.00000000000E+00  0.17912953128E+04  0.17912953128E+04  0.00000000000E+00 0.  1.
          2   -1    0    0  501    0  0.00000000000E+00 -0.00000000000E+00 -0.10290804466E+04  0.10290804466E+04  0.00000000000E+00 0. -1.
         23    2    1    2    0    0  0.46796560765E+03  0.10995203439E+04  0.17990391283E+03  0.12118046203E+04  0.90378223402E+02 0.  0.
        254    2    1    2    0    0 -0.46796560765E+03 -0.10995203439E+04  0.58231095332E+03  0.16085711391E+04  0.90580255380E+03 0.  0.
        -24    2    4    4    0    0 -0.69528025001E+03 -0.10304422315E+04  0.44016770226E+03  0.13208684877E+04  0.75631589303E+02 0.  0.
         24    2    4    4    0    0  0.22731464236E+03 -0.69078112461E+02  0.14214325106E+03  0.28770265136E+03  0.78258415048E+02 0.  0.
         13    1    3    3    0    0  0.20327421697E+03  0.36954925702E+03  0.71873862628E+02  0.42784683331E+03  0.00000000000E+00 0.  1.
        -13    1    3    3    0    0  0.26469139068E+03  0.72997108691E+03  0.10803005020E+03  0.78395778699E+03  0.00000000000E+00 0. -1.
          4    1    6    6  502    0  0.20602761017E+03 -0.37566032544E+02  0.10394226892E+03  0.23380029559E+03  0.00000000000E+00 0. -1.
          3    1    5    5  503    0 -0.30068309480E+03 -0.40694909194E+03  0.21119070490E+03  0.54828769890E+03  0.00000000000E+00 0. -1.
         -4    1    5    5    0  503 -0.39459715521E+03 -0.62349313953E+03  0.22897699736E+03  0.77258078882E+03  0.00000000000E+00 0.  1.
         -1    1    6    6    0  502  0.21287032188E+02 -0.31512079917E+02  0.38200982145E+02  0.53902355764E+02  0.00000000000E+00 0.  1.
<mgrwt>
<rscale>  0 0.27154278E+04</rscale>
<asrwt>0</asrwt>
<pdfrwt beam="1">  1        2 0.15832007E+00 0.27154278E+04</pdfrwt>
<pdfrwt beam="2">  1       -2 0.27558390E+00 0.27154278E+04</pdfrwt>
<totfact> 0.94742644E-01</totfact>
</mgrwt>
</event>
<event>
12    1  0.1536832E-007  0.1096455E+04  0.7818608E-02  0.9208654E-01
         -2   -1    0    0    0  501 -0.00000000000E+00  0.00000000000E+00  0.11180853853E+03  0.11180853853E+03  0.00000000000E+00 0.  1.
          2   -1    0    0  501    0  0.00000000000E+00 -0.00000000000E+00 -0.26881060139E+04  0.26881060139E+04  0.00000000000E+00 0. -1.
         23    2    1    2    0    0  0.93146594801E+02 -0.11013641464E+03 -0.39298839158E+03  0.42673779002E+03  0.82818763332E+02 0.  0.
        254    2    1    2    0    0 -0.93146594801E+02  0.11013641464E+03 -0.21833090838E+04  0.23731767624E+04  0.91887054166E+03 0.  0.
        -24    2    4    4    0    0  0.31143821989E+03  0.33167421491E+03 -0.11140256982E+04  0.12059152071E+04  0.78591863264E+02 0.  0.
         24    2    4    4    0    0 -0.40458481469E+03 -0.22153780027E+03 -0.10692833856E+04  0.11672615553E+04  0.79779135357E+02 0.  0.
         11    1    3    3    0    0  0.38788218105E+02 -0.97991842135E+02 -0.20263486946E+03  0.22840275241E+03  0.00000000000E+00 0.  1.
        -11    1    3    3    0    0  0.54358376696E+02 -0.12144572509E+02 -0.19035352212E+03  0.19833503761E+03  0.00000000000E+00 0. -1.
          4    1    6    6  502    0 -0.40571402075E+03 -0.21077426275E+03 -0.10407925584E+04  0.11367844149E+04  0.00000000000E+00 0. -1.
          1    1    5    5  503    0  0.20316383711E+03  0.17517546038E+03 -0.71974051900E+03  0.76810702465E+03  0.00000000000E+00 0. -1.
         -2    1    5    5    0  503  0.10827438277E+03  0.15649875453E+03 -0.39428517916E+03  0.43780818247E+03  0.00000000000E+00 0.  1.
         -3    1    6    6    0  502  0.11292060641E+01 -0.10763537515E+02 -0.28490827231E+02  0.30477140327E+02  0.00000000000E+00 0.  1.
<mgrwt>
<rscale>  0 0.10964547E+04</rscale>
<asrwt>0</asrwt>
<pdfrwt beam="1">  1        2 0.41355476E+00 0.10964547E+04</pdfrwt>
<pdfrwt beam="2">  1       -2 0.17201314E-01 0.10964547E+04</pdfrwt>
<totfact> 0.75410832E+01</totfact>
</mgrwt>
</event>
<event>
12    1  0.1536832E-007  0.1701895E+04  0.7818608E-02  0.8760284E-01
          2   -1    0    0  501    0  0.00000000000E+00  0.00000000000E+00  0.14969301579E+04  0.14969301579E+04  0.00000000000E+00 0. -1.
         -2   -1    0    0    0  501 -0.00000000000E+00 -0.00000000000E+00 -0.48373132254E+03  0.48373132254E+03  0.00000000000E+00 0.  1.
         23    2    1    2    0    0  0.44913454151E+03  0.40232849653E+03  0.36665807828E+03  0.71167222366E+03  0.91919269269E+02 0.  0.
        254    2    1    2    0    0 -0.44913454151E+03 -0.40232849653E+03  0.64654075705E+03  0.12689892567E+04  0.91034538924E+03 0.  0.
        -24    2    4    4    0    0 -0.49287310751E+03 -0.61722243631E+03  0.66370021950E+03  0.10347603959E+04  0.79647094274E+02 0.  0.
         24    2    4    4    0    0  0.43738566002E+02  0.21489393978E+03 -0.17159462453E+02  0.23422886082E+03  0.80475117753E+02 0.  0.
         11    1    3    3    0    0  0.83384403092E+02  0.37413225284E+02  0.76016205969E+02  0.11887460484E+03  0.00000000000E+00 0.  1.
        -11    1    3    3    0    0  0.36575013842E+03  0.36491527125E+03  0.29064187231E+03  0.59279761883E+03  0.00000000000E+00 0. -1.
          2    1    6    6  502    0  0.64453338874E+02  0.16481018082E+03 -0.27393008737E+02  0.17907262639E+03  0.00000000000E+00 0. -1.
          1    1    5    5  503    0 -0.39205476160E+03 -0.48292350311E+03  0.47866729347E+03  0.78488497488E+03  0.00000000000E+00 0. -1.
         -2    1    5    5    0  503 -0.10081834591E+03 -0.13429893320E+03  0.18503292603E+03  0.24987542105E+03  0.00000000000E+00 0.  1.
         -1    1    6    6    0  502 -0.20714772872E+02  0.50083758960E+02  0.10233546284E+02  0.55156234428E+02  0.00000000000E+00 0.  1.
<mgrwt>
<rscale>  0 0.17018954E+04</rscale>
<asrwt>0</asrwt>
<pdfrwt beam="1">  1        2 0.23029695E+00 0.17018954E+04</pdfrwt>
<pdfrwt beam="2">  1       -2 0.74420204E-01 0.17018954E+04</pdfrwt>
<totfact> 0.19697200E+01</totfact>
</mgrwt>
</event>
<event>
12    1  0.1536832E-007  0.1166700E+04  0.7818608E-02  0.9142514E-01
          2   -1    0    0  501    0  0.00000000000E+00  0.00000000000E+00  0.37851847350E+04  0.37851847350E+04  0.00000000000E+00 0.  1.
         -2   -1    0    0    0  501 -0.00000000000E+00 -0.00000000000E+00 -0.89902401761E+02  0.89902401761E+02  0.00000000000E+00 0. -1.
         23    2    1    2    0    0  0.54648648376E+02  0.16296137642E+02  0.53182543812E+02  0.12071338234E+03  0.92148243820E+02 0.  0.
        254    2    1    2    0    0 -0.54648648376E+02 -0.16296137642E+02  0.36420997894E+04  0.37543737544E+04  0.90949402023E+03 0.  0.
        -24    2    4    4    0    0 -0.34923884192E+03 -0.26903127227E+03  0.26212758892E+04  0.26592842431E+04  0.79748377726E+02 0.  0.
         24    2    4    4    0    0  0.29459019355E+03  0.25273513462E+03  0.10208239002E+04  0.10950895114E+04  0.80505728187E+02 0.  0.
         13    1    3    3    0    0 -0.18920382514E+02 -0.22590674409E+00  0.39888588457E+02  0.44148968248E+02  0.00000000000E+00 0.  1.
        -13    1    3    3    0    0  0.73569030890E+02  0.16522044386E+02  0.13293955355E+02  0.76564414095E+02  0.00000000000E+00 0. -1.
          4    1    6    6  502    0  0.13980560050E+03  0.68739498170E+02  0.38556597451E+03  0.41585074875E+03  0.00000000000E+00 0. -1.
          3    1    5    5  503    0 -0.22124424183E+03 -0.12226238077E+03  0.14190649847E+04  0.14414029746E+04  0.00000000000E+00 0. -1.
         -4    1    5    5    0  503 -0.12799460009E+03 -0.14676889149E+03  0.12022109045E+04  0.12178812685E+04  0.00000000000E+00 0.  1.
         -3    1    6    6    0  502  0.15478459305E+03  0.18399563645E+03  0.63525792570E+03  0.67923876262E+03  0.00000000000E+00 0.  1.
<mgrwt>
<rscale>  0 0.11667000E+04</rscale>
<asrwt>0</asrwt>
<pdfrwt beam="1">  1        2 0.58233599E+00 0.11667000E+04</pdfrwt>
<pdfrwt beam="2">  1       -2 0.13831142E-01 0.11667000E+04</pdfrwt>
<totfact> 0.20799528E+01</totfact>
</mgrwt>
</event>
<event>
12    1  0.1536832E-007  0.1851532E+04  0.7818608E-02  0.8679365E-01
         -2   -1    0    0    0  501 -0.00000000000E+00  0.00000000000E+00  0.36530239979E+03  0.36530239979E+03  0.00000000000E+00 0. -1.
          2   -1    0    0  501    0  0.00000000000E+00 -0.00000000000E+00 -0.23461180830E+04  0.23461180830E+04  0.00000000000E+00 0.  1.
         23    2    1    2    0    0 -0.19161144004E+03 -0.67358115271E+03 -0.73429751648E+03  0.10191290846E+04  0.94893282683E+02 0.  0.
        254    2    1    2    0    0  0.19161144004E+03  0.67358115271E+03 -0.12465181667E+04  0.16922913982E+04  0.90532652847E+03 0.  0.
        -24    2    4    4    0    0  0.98089559070E+02  0.88537151722E+03 -0.90760364565E+03  0.12741826169E+04  0.79326405218E+02 0.  0.
         24    2    4    4    0    0  0.93521880970E+02 -0.21179036451E+03 -0.33891452105E+03  0.41810878125E+03  0.79689394895E+02 0.  0.
         11    1    3    3    0    0 -0.17921945478E+03 -0.48659464727E+03 -0.55984900519E+03  0.76310213755E+03  0.00000000000E+00 0. -1.
        -11    1    3    3    0    0 -0.12391985255E+02 -0.18698650545E+03 -0.17444851129E+03  0.25602694703E+03  0.00000000000E+00 0.  1.
          2    1    6    6  502    0  0.85774840813E+02 -0.18945338259E+03 -0.24548354519E+03  0.32173293031E+03  0.00000000000E+00 0. -1.
          3    1    5    5  503    0  0.68391370222E+02  0.68586116485E+03 -0.74640990471E+03  0.10159776882E+04  0.00000000000E+00 0. -1.
         -4    1    5    5    0  503  0.29698188847E+02  0.19951035237E+03 -0.16119374094E+03  0.25820492877E+03  0.00000000000E+00 0.  1.
         -1    1    6    6    0  502  0.77470401562E+01 -0.22336981920E+02 -0.93430975862E+02  0.96375850933E+02  0.00000000000E+00 0.  1.
<mgrwt>
<rscale>  0 0.18515319E+04</rscale>
<asrwt>0</asrwt>
<pdfrwt beam="1">  1        2 0.36094125E+00 0.18515319E+04</pdfrwt>
<pdfrwt beam="2">  1       -2 0.56200368E-01 0.18515319E+04</pdfrwt>
<totfact> 0.11931622E+01</totfact>
</mgrwt>
</event>
<event>
12    1  0.1536832E-007  0.2536782E+04  0.7818608E-02  0.8389998E-01
          2   -1    0    0  501    0  0.00000000000E+00  0.00000000000E+00  0.30196117978E+04  0.30196117978E+04  0.00000000000E+00 0. -1.
         -2   -1    0    0    0  501 -0.00000000000E+00 -0.00000000000E+00 -0.53278898971E+03  0.53278898971E+03  0.00000000000E+00 0.  1.
         23    2    1    2    0    0 -0.44714601281E+03 -0.82326305734E+03  0.19147255884E+04  0.21336141114E+04  0.91833975002E+02 0.  0.
        254    2    1    2    0    0  0.44714601281E+03  0.82326305734E+03  0.57209721973E+03  0.14187866762E+04  0.89886527653E+03 0.  0.
        -24    2    4    4    0    0 -0.48980938734E+02  0.51909164978E+03  0.63785801679E+03  0.82769165964E+03  0.79720515720E+02 0.  0.
         24    2    4    4    0    0  0.49612695154E+03  0.30417140756E+03 -0.65760797055E+02  0.59109501655E+03  0.80041482599E+02 0.  0.
         13    1    3    3    0    0 -0.44152408759E+03 -0.78359549976E+03  0.18022704462E+04  0.20142353855E+04  0.00000000000E+00 0. -1.
        -13    1    3    3    0    0 -0.56219252155E+01 -0.39667557575E+02  0.11245514222E+03  0.11937872582E+03  0.00000000000E+00 0.  1.
          2    1    6    6  502    0  0.64050125407E+02  0.70070210125E+02  0.24439915358E+01  0.94964340708E+02  0.00000000000E+00 0. -1.
          1    1    5    5  503    0 -0.80966537088E+01  0.65925575726E+01  0.28878324918E+02  0.30707902349E+02  0.00000000000E+00 0. -1.
         -2    1    5    5    0  503 -0.40884285025E+02  0.51249909221E+03  0.60897969187E+03  0.79698375729E+03  0.00000000000E+00 0.  1.
         -1    1    6    6    0  502  0.43207682613E+03  0.23410119743E+03 -0.68204788591E+02  0.49613067584E+03  0.00000000000E+00 0.  1.
<mgrwt>
<rscale>  0 0.25367821E+04</rscale>
<asrwt>0</asrwt>
<pdfrwt beam="1">  1        2 0.46455565E+00 0.25367821E+04</pdfrwt>
<pdfrwt beam="2">  1       -2 0.81967539E-01 0.25367821E+04</pdfrwt>
<totfact> 0.19693694E+00</totfact>
</mgrwt>
</event>
<event>
12    1  0.1536832E-007  0.1502800E+04  0.7818608E-02  0.8882593E-01
          2   -1    0    0  501    0  0.00000000000E+00  0.00000000000E+00  0.18652437733E+04  0.18652437733E+04  0.00000000000E+00 0. -1.
         -2   -1    0    0    0  501 -0.00000000000E+00 -0.00000000000E+00 -0.30269592404E+03  0.30269592404E+03  0.00000000000E+00 0.  1.
         23    2    1    2    0    0  0.34648415085E+02 -0.34398127345E+03  0.83596559030E+03  0.90891462995E+03  0.88111901692E+02 0.  0.
        254    2    1    2    0    0 -0.34648415085E+02  0.34398127345E+03  0.72658225896E+03  0.12590250674E+04  0.96834844561E+03 0.  0.
        -24    2    4    4    0    0  0.71113664960E+02 -0.31269033695E+03  0.11062269289E+03  0.34898440996E+03  0.81977667975E+02 0.  0.
         24    2    4    4    0    0 -0.10576208005E+03  0.65667161040E+03  0.61595956606E+03  0.91004065742E+03  0.79778378299E+02 0.  0.
         11    1    3    3    0    0  0.33513589400E+02 -0.17292321721E+03  0.31922685757E+03  0.36459756762E+03  0.00000000000E+00 0. -1.
        -11    1    3    3    0    0  0.11348256851E+01 -0.17105805624E+03  0.51673873273E+03  0.54431706232E+03  0.00000000000E+00 0.  1.
          2    1    6    6  502    0 -0.10298356206E+03  0.60190625246E+03  0.59093308024E+03  0.84976388257E+03  0.00000000000E+00 0. -1.
          3    1    5    5  503    0  0.64117789850E+02 -0.13182124891E+03  0.24824012378E+02  0.14867469264E+03  0.00000000000E+00 0. -1.
         -4    1    5    5    0  503  0.69958751098E+01 -0.18086908804E+03  0.85798680516E+02  0.20030971733E+03  0.00000000000E+00 0.  1.
         -1    1    6    6    0  502 -0.27785179813E+01  0.54765357944E+02  0.25026485821E+02  0.60276774843E+02  0.00000000000E+00 0.  1.
<mgrwt>
<rscale>  0 0.15027996E+04</rscale>
<asrwt>0</asrwt>
<pdfrwt beam="1">  1        2 0.28696057E+00 0.15027996E+04</pdfrwt>
<pdfrwt beam="2">  1       -2 0.46568605E-01 0.15027996E+04</pdfrwt>
<totfact> 0.33525756E+01</totfact>
</mgrwt>
</event>
<event>
12    1  0.1536832E-007  0.1987901E+04  0.7818608E-02  0.8612298E-01
          2   -1    0    0  501    0  0.00000000000E+00  0.00000000000E+00  0.21627209964E+04  0.21627209964E+04  0.00000000000E+00 0. -1.
         -2   -1    0    0    0  501 -0.00000000000E+00 -0.00000000000E+00 -0.45680303812E+03  0.45680303812E+03  0.00000000000E+00 0.  1.
         23    2    1    2    0    0 -0.68122633617E+03 -0.53502614599E+02  0.16267849859E+03  0.70837704942E+03  0.91661875300E+02 0.  0.
        254    2    1    2    0    0  0.68122633617E+03  0.53502614599E+02  0.15432394597E+04  0.19111469851E+04  0.89663979267E+03 0.  0.
        -24    2    4    4    0    0  0.61701895593E+03 -0.26104201783E+03  0.13924582235E+04  0.15473853725E+04  0.81278901728E+02 0.  0.
         24    2    4    4    0    0  0.64207380237E+02  0.31454463243E+03  0.15078123618E+03  0.36376161255E+03  0.80787474971E+02 0.  0.
         13    1    3    3    0    0 -0.19793321285E+03  0.24241073337E+02  0.59691938283E+02  0.20815454326E+03  0.00000000000E+00 0. -1.
        -13    1    3    3    0    0 -0.48329312332E+03 -0.77743687936E+02  0.10298656031E+03  0.50022250616E+03  0.00000000000E+00 0.  1.
          2    1    6    6  502    0  0.29833560931E+02  0.19963083091E+03  0.52159690189E+02  0.20847816022E+03  0.00000000000E+00 0. -1.
          3    1    5    5  503    0  0.54608350226E+03 -0.25681737324E+03  0.12296674583E+04  0.13697607137E+04  0.00000000000E+00 0. -1.
         -2    1    5    5    0  503  0.70935453667E+02 -0.42246445918E+01  0.16279076516E+03  0.17762465885E+03  0.00000000000E+00 0.  1.
         -1    1    6    6    0  502  0.34373819306E+02  0.11491380152E+03  0.98621545993E+02  0.15528345233E+03  0.00000000000E+00 0.  1.
<mgrwt>
<rscale>  0 0.19879009E+04</rscale>
<asrwt>0</asrwt>
<pdfrwt beam="1">  1        2 0.33272630E+00 0.19879009E+04</pdfrwt>
<pdfrwt beam="2">  1       -2 0.70277392E-01 0.19879009E+04</pdfrwt>
<totfact> 0.92875848E+00</totfact>
</mgrwt>
</event>
<event>
12    1  0.1536832E-007  0.1479777E+04  0.7818608E-02  0.8898013E-01
         -2   -1    0    0    0  501 -0.00000000000E+00  0.00000000000E+00  0.27211933595E+03  0.27211933595E+03  0.00000000000E+00 0.  1.
          2   -1    0    0  501    0  0.00000000000E+00 -0.00000000000E+00 -0.20117469031E+04  0.20117469031E+04  0.00000000000E+00 0. -1.
         23    2    1    2    0    0 -0.34894902507E+03 -0.14567067204E+03 -0.18713387657E+03  0.43084028734E+03  0.87286302749E+02 0.  0.
        254    2    1    2    0    0  0.34894902507E+03  0.14567067204E+03 -0.15524936905E+04  0.18530259517E+04  0.93834063731E+03 0.  0.
        -24    2    4    4    0    0  0.31545947803E+03  0.51293941947E+03 -0.11541032717E+04  0.13042514895E+04  0.80598112384E+02 0.  0.
         24    2    4    4    0    0  0.33489547040E+02 -0.36726874743E+03 -0.39839041884E+03  0.54877446220E+03  0.80191034015E+02 0.  0.
         13    1    3    3    0    0 -0.21673160500E+03 -0.58730492522E+02 -0.74412919745E+02  0.23655684726E+03  0.00000000000E+00 0.  1.
        -13    1    3    3    0    0 -0.13221742006E+03 -0.86940179519E+02 -0.11272095683E+03  0.19428344008E+03  0.00000000000E+00 0. -1.
          4    1    6    6  502    0  0.35323408971E+02 -0.19585309308E+03 -0.16113097737E+03  0.25606516584E+03  0.00000000000E+00 0. -1.
          1    1    5    5  503    0  0.25708907406E+03  0.42375698359E+03 -0.10094750735E+04  0.11245909021E+04  0.00000000000E+00 0. -1.
         -2    1    5    5    0  503  0.58370403969E+02  0.89182435883E+02 -0.14462819821E+03  0.17966058735E+03  0.00000000000E+00 0.  1.
         -3    1    6    6    0  502 -0.18338619309E+01 -0.17141565436E+03 -0.23725944147E+03  0.29270929636E+03  0.00000000000E+00 0.  1.
<mgrwt>
<rscale>  0 0.14797773E+04</rscale>
<asrwt>0</asrwt>
<pdfrwt beam="1">  1        2 0.30949952E+00 0.14797773E+04</pdfrwt>
<pdfrwt beam="2">  1       -2 0.41864514E-01 0.14797773E+04</pdfrwt>
<totfact> 0.34449477E+01</totfact>
</mgrwt>
</event>
<event>
12    1  0.1536832E-007  0.1966513E+04  0.7818608E-02  0.8622439E-01
         -2   -1    0    0    0  501 -0.00000000000E+00  0.00000000000E+00  0.59372223639E+03  0.59372223639E+03  0.00000000000E+00 0.  1.
          2   -1    0    0  501    0  0.00000000000E+00 -0.00000000000E+00 -0.16283601746E+04  0.16283601746E+04  0.00000000000E+00 0. -1.
         23    2    1    2    0    0 -0.20774160953E+02 -0.21140080630E+03 -0.12278199716E+04  0.12495636890E+04  0.93518252704E+02 0.  0.
        254    2    1    2    0    0  0.20774160953E+02  0.21140080630E+03  0.19318203331E+03  0.97251872206E+03  0.92916710020E+03 0.  0.
        -24    2    4    4    0    0  0.26052707733E+03 -0.12092727332E+03 -0.23162583561E+03  0.37545509875E+03  0.69413543375E+02 0.  0.
         24    2    4    4    0    0 -0.23975291637E+03  0.33232807962E+03  0.42480786892E+03  0.59706362331E+03  0.89999063136E+02 0.  0.
         13    1    3    3    0    0  0.10061959213E+01 -0.11213347228E+03 -0.88260240991E+03  0.88969766888E+03  0.00000000000E+00 0. -1.
        -13    1    3    3    0    0 -0.21780356875E+02 -0.99267334025E+02 -0.34521756165E+03  0.35986602010E+03  0.00000000000E+00 0.  1.
          4    1    6    6  502    0 -0.14480820699E+03  0.26704595288E+03  0.32135972828E+03  0.44221604756E+03  0.00000000000E+00 0. -1.
          3    1    5    5  503    0  0.12742315356E+03 -0.90869328806E+02 -0.99137703820E+02  0.18526246058E+03  0.00000000000E+00 0. -1.
         -4    1    5    5    0  503  0.13310392376E+03 -0.30057944517E+02 -0.13248813179E+03  0.19019263817E+03  0.00000000000E+00 0.  1.
         -3    1    6    6    0  502 -0.94944709388E+02  0.65282126745E+02  0.10344814063E+03  0.15484757574E+03  0.00000000000E+00 0.  1.
<mgrwt>
<rscale>  0 0.19665133E+04</rscale>
<asrwt>0</asrwt>
<pdfrwt beam="1">  1        2 0.25051695E+00 0.19665133E+04</pdfrwt>
<pdfrwt beam="2">  1       -2 0.91341884E-01 0.19665133E+04</pdfrwt>
<totfact> 0.10229122E+01</totfact>
</mgrwt>
</event>
<event>
12    1  0.1536832E-007  0.2151152E+04  0.7818608E-02  0.8539039E-01
         -2   -1    0    0    0  501 -0.00000000000E+00  0.00000000000E+00  0.86888757370E+03  0.86888757370E+03  0.00000000000E+00 0.  1.
          2   -1    0    0  501    0  0.00000000000E+00 -0.00000000000E+00 -0.13314310536E+04  0.13314310536E+04  0.00000000000E+00 0. -1.
         23    2    1    2    0    0 -0.87932361180E+02 -0.79374305530E+03 -0.56422938704E+03  0.98563166150E+03  0.12391461969E+03 0.  0.
        254    2    1    2    0    0  0.87932361180E+02  0.79374305530E+03  0.10168590716E+03  0.12146869658E+04  0.90959565916E+03 0.  0.
        -24    2    4    4    0    0  0.34941823256E+03  0.66940007356E+03  0.34001971298E+03  0.83172200599E+03  0.77191517087E+02 0.  0.
         24    2    4    4    0    0 -0.26148587138E+03  0.12434298174E+03 -0.23833380582E+03  0.38296495979E+03  0.77608758462E+02 0.  0.
         13    1    3    3    0    0 -0.30791707192E+02 -0.16635447040E+03 -0.18326235635E+03  0.24941337236E+03  0.00000000000E+00 0.  1.
        -13    1    3    3    0    0 -0.57140653988E+02 -0.62738858489E+03 -0.38096703069E+03  0.73621828914E+03  0.00000000000E+00 0. -1.
          4    1    6    6  502    0 -0.24306209687E+03  0.98952798885E+02 -0.23340386071E+03  0.35120962620E+03  0.00000000000E+00 0. -1.
          3    1    5    5  503    0  0.19174265128E+03  0.30596279202E+03  0.19074299971E+03  0.40836425695E+03  0.00000000000E+00 0. -1.
         -4    1    5    5    0  503  0.15767558128E+03  0.36343728154E+03  0.14927671328E+03  0.42335774904E+03  0.00000000000E+00 0.  1.
         -3    1    6    6    0  502 -0.18423774519E+02  0.25390182855E+02 -0.49299451127E+01  0.31755333595E+02  0.00000000000E+00 0.  1.
<mgrwt>
<rscale>  0 0.21511522E+04</rscale>
<asrwt>0</asrwt>
<pdfrwt beam="1">  1        2 0.20483555E+00 0.21511522E+04</pdfrwt>
<pdfrwt beam="2">  1       -2 0.13367501E+00 0.21511522E+04</pdfrwt>
<totfact> 0.58857356E+00</totfact>
</mgrwt>
</event>
<event>
12    1  0.1536832E-007  0.1661281E+04  0.7818608E-02  0.8783761E-01
          2   -1    0    0  501    0  0.00000000000E+00  0.00000000000E+00  0.15016847707E+04  0.15016847707E+04  0.00000000000E+00 0. -1.
         -2   -1    0    0    0  501 -0.00000000000E+00 -0.00000000000E+00 -0.45945945097E+03  0.45945945097E+03  0.00000000000E+00 0.  1.
         23    2    1    2    0    0  0.18086695710E+03 -0.44659526349E+03  0.19329978221E+03  0.52729331322E+03  0.92267257566E+02 0.  0.
        254    2    1    2    0    0 -0.18086695710E+03  0.44659526349E+03  0.84892553754E+03  0.14338509085E+04  0.10502826638E+04 0.  0.
        -24    2    4    4    0    0  0.25669194272E+03  0.38267522182E+03  0.86574491366E+03  0.98402958764E+03  0.80429440974E+02 0.  0.
         24    2    4    4    0    0 -0.43755889982E+03  0.63920041676E+02 -0.16819376115E+02  0.44982132084E+03  0.80701714559E+02 0.  0.
         11    1    3    3    0    0  0.17835054164E+03 -0.35088259200E+03  0.17001392128E+03  0.42875662385E+03  0.00000000000E+00 0. -1.
        -11    1    3    3    0    0  0.25164154556E+01 -0.95712671496E+02  0.23285860932E+02  0.98536689365E+02  0.00000000000E+00 0.  1.
          4    1    6    6  502    0 -0.19497946331E+03  0.68142651839E+02 -0.16537476906E+02  0.20720497159E+03  0.00000000000E+00 0. -1.
          1    1    5    5  503    0  0.14934043231E+03  0.17057478515E+03  0.48133090776E+03  0.53205052844E+03  0.00000000000E+00 0. -1.
         -2    1    5    5    0  503  0.10735151041E+03  0.21210043667E+03  0.38441400590E+03  0.45197905920E+03  0.00000000000E+00 0.  1.
         -1    1    6    6    0  502 -0.24257943651E+03 -0.42226101638E+01 -0.28189920899E+00  0.24261634925E+03  0.00000000000E+00 0.  1.
<mgrwt>
<rscale>  0 0.16612805E+04</rscale>
<asrwt>0</asrwt>
<pdfrwt beam="1">  1        2 0.23102842E+00 0.16612805E+04</pdfrwt>
<pdfrwt beam="2">  1       -2 0.70686070E-01 0.16612805E+04</pdfrwt>
<totfact> 0.21995918E+01</totfact>
</mgrwt>
</event>
<event>
12    1  0.1536832E-007  0.1416664E+04  0.7818608E-02  0.8941844E-01
         -2   -1    0    0    0  501 -0.00000000000E+00  0.00000000000E+00  0.30888970202E+03  0.30888970202E+03  0.00000000000E+00 0.  1.
          2   -1    0    0  501    0  0.00000000000E+00 -0.00000000000E+00 -0.16243154304E+04  0.16243154304E+04  0.00000000000E+00 0. -1.
         23    2    1    2    0    0 -0.89141869789E+02  0.38890149216E+03 -0.21862653374E+03  0.46385193825E+03  0.90390352441E+02 0.  0.
        254    2    1    2    0    0  0.89141869789E+02 -0.38890149216E+03 -0.10967991946E+04  0.14693531941E+04  0.89265877706E+03 0.  0.
        -24    2    4    4    0    0  0.15125352221E+03  0.87294763034E+02 -0.93857874463E+03  0.95770244936E+03  0.75933642105E+02 0.  0.
         24    2    4    4    0    0 -0.62111652424E+02 -0.47619625519E+03 -0.15822044999E+03  0.51165074478E+03  0.78307362441E+02 0.  0.
         13    1    3    3    0    0  0.10410234993E+02  0.33244630801E+02 -0.33666676338E+00  0.34838079944E+02  0.00000000000E+00 0. -1.
        -13    1    3    3    0    0 -0.99552104783E+02  0.35565686136E+03 -0.21828986697E+03  0.42901385831E+03  0.00000000000E+00 0.  1.
          4    1    6    6  502    0 -0.49009926465E+02 -0.45526878955E+03 -0.13409413475E+03  0.47712983621E+03  0.00000000000E+00 0. -1.
          1    1    5    5  503    0  0.82293372331E+02  0.71925286032E+01 -0.48386161071E+03  0.49086249593E+03  0.00000000000E+00 0. -1.
         -2    1    5    5    0  503  0.68960149882E+02  0.80102234431E+02 -0.45471713392E+03  0.46683995343E+03  0.00000000000E+00 0.  1.
         -3    1    6    6    0  502 -0.13101725960E+02 -0.20927465649E+02 -0.24126315241E+02  0.34520908574E+02  0.00000000000E+00 0.  1.
<mgrwt>
<rscale>  0 0.14166641E+04</rscale>
<asrwt>0</asrwt>
<pdfrwt beam="1">  1        2 0.24989468E+00 0.14166641E+04</pdfrwt>
<pdfrwt beam="2">  1       -2 0.47521492E-01 0.14166641E+04</pdfrwt>
<totfact> 0.44082524E+01</totfact>
</mgrwt>
</event>
<event>
12    1  0.1536832E-007  0.1653487E+04  0.7818608E-02  0.8788346E-01
         -1   -1    0    0    0  501 -0.00000000000E+00  0.00000000000E+00  0.42786134165E+03  0.42786134165E+03  0.00000000000E+00 0.  1.
          1   -1    0    0  501    0  0.00000000000E+00 -0.00000000000E+00 -0.15974907952E+04  0.15974907952E+04  0.00000000000E+00 0. -1.
         23    2    1    2    0    0  0.43428931207E+03 -0.37973890300E+03 -0.42002042240E+03  0.71953492471E+03  0.92219908993E+02 0.  0.
        254    2    1    2    0    0 -0.43428931207E+03  0.37973890300E+03 -0.74960903115E+03  0.13058172121E+04  0.90024221792E+03 0.  0.
        -24    2    4    4    0    0  0.45601992554E+02  0.54680016341E+03 -0.36660772285E+03  0.66473934572E+03  0.80045080231E+02 0.  0.
         24    2    4    4    0    0 -0.47989130462E+03 -0.16706126041E+03 -0.38300130831E+03  0.64107786642E+03  0.78010894589E+02 0.  0.
         11    1    3    3    0    0  0.25081997108E+03 -0.19115828742E+03 -0.17843392672E+03  0.36234074425E+03  0.00000000000E+00 0.  1.
        -11    1    3    3    0    0  0.18346934099E+03 -0.18858061558E+03 -0.24158649569E+03  0.35719418046E+03  0.00000000000E+00 0. -1.
          2    1    6    6  502    0 -0.16899959239E+03 -0.35635459047E+02 -0.93494133525E+02  0.19639730440E+03  0.00000000000E+00 0. -1.
          1    1    5    5  503    0 -0.11408505234E+01 -0.27433314318E+01 -0.22186383135E+01  0.37080673170E+01  0.00000000000E+00 0. -1.
         -4    1    5    5    0  503  0.46742843077E+02  0.54954349484E+03 -0.36438908453E+03  0.66103127840E+03  0.00000000000E+00 0.  1.
         -1    1    6    6    0  502 -0.31089171223E+03 -0.13142580136E+03 -0.28950717478E+03  0.44468056203E+03  0.00000000000E+00 0.  1.
<mgrwt>
<rscale>  0 0.16534867E+04</rscale>
<asrwt>0</asrwt>
<pdfrwt beam="1">  1        1 0.24576782E+00 0.16534867E+04</pdfrwt>
<pdfrwt beam="2">  1       -1 0.65824821E-01 0.16534867E+04</pdfrwt>
<totfact> 0.12519007E+01</totfact>
</mgrwt>
</event>
<event>
12    1  0.1536832E-007  0.1719020E+04  0.7818608E-02  0.8750591E-01
          2   -1    0    0  501    0  0.00000000000E+00  0.00000000000E+00  0.20355567857E+04  0.20355567857E+04  0.00000000000E+00 0. -1.
         -2   -1    0    0    0  501 -0.00000000000E+00 -0.00000000000E+00 -0.36292629768E+03  0.36292629768E+03  0.00000000000E+00 0.  1.
         23    2    1    2    0    0 -0.32820839847E+03  0.26250022082E+03  0.12390490220E+04  0.13113262997E+04  0.87789900045E+02 0.  0.
        254    2    1    2    0    0  0.32820839847E+03 -0.26250022082E+03  0.43358146597E+03  0.10871567837E+04  0.90404085409E+03 0.  0.
        -24    2    4    4    0    0  0.12853291258E+02 -0.53226711940E+03  0.95083025573E+02  0.54593198269E+03  0.74346852495E+02 0.  0.
         24    2    4    4    0    0  0.31535510721E+03  0.26976689858E+03  0.33849844040E+03  0.54122480097E+03  0.78230862292E+02 0.  0.
         11    1    3    3    0    0 -0.21625829777E+03  0.11980583220E+03  0.75257619280E+03  0.79214393563E+03  0.00000000000E+00 0. -1.
        -11    1    3    3    0    0 -0.11195010071E+03  0.14269438862E+03  0.48647282921E+03  0.51918236406E+03  0.00000000000E+00 0.  1.
          4    1    6    6  502    0  0.23798100752E+02 -0.16251448360E+00  0.10525707116E+02  0.26022423420E+02  0.00000000000E+00 0. -1.
          3    1    5    5  503    0  0.22753203178E+02 -0.48844692424E+02  0.53131180277E+01  0.54145558045E+02  0.00000000000E+00 0. -1.
         -4    1    5    5    0  503 -0.98999119203E+01 -0.48342242698E+03  0.89769907545E+02  0.49178642464E+03  0.00000000000E+00 0.  1.
         -3    1    6    6    0  502  0.29155700646E+03  0.26992941306E+03  0.32797273328E+03  0.51520237755E+03  0.00000000000E+00 0.  1.
<mgrwt>
<rscale>  0 0.17190196E+04</rscale>
<asrwt>0</asrwt>
<pdfrwt beam="1">  1        2 0.31316258E+00 0.17190196E+04</pdfrwt>
<pdfrwt beam="2">  1       -2 0.55834816E-01 0.17190196E+04</pdfrwt>
<totfact> 0.18275587E+01</totfact>
</mgrwt>
</event>
<event>
12    1  0.1536832E-007  0.1483791E+04  0.7818608E-02  0.8895304E-01
          2   -1    0    0  501    0  0.00000000000E+00  0.00000000000E+00  0.91272856019E+03  0.91272856019E+03  0.00000000000E+00 0. -1.
         -2   -1    0    0    0  501 -0.00000000000E+00 -0.00000000000E+00 -0.60303690024E+03  0.60303690024E+03  0.00000000000E+00 0.  1.
         23    2    1    2    0    0 -0.26765145108E+03 -0.19672246483E+03 -0.25220133050E+03  0.43274685403E+03  0.11544393071E+03 0.  0.
        254    2    1    2    0    0  0.26765145108E+03  0.19672246483E+03  0.56189299045E+03  0.10830186064E+04  0.86421556435E+03 0.  0.
        -24    2    4    4    0    0 -0.27210681490E+03  0.24984025435E+03  0.24379005091E+03  0.44956983594E+03  0.78849077731E+02 0.  0.
         24    2    4    4    0    0  0.53975826597E+03 -0.53117789528E+02  0.31810293953E+03  0.63344877045E+03  0.76859478257E+02 0.  0.
         13    1    3    3    0    0 -0.16937595992E+03 -0.13179186248E+03 -0.91020246757E+02  0.23311369787E+03  0.00000000000E+00 0. -1.
        -13    1    3    3    0    0 -0.98275491157E+02 -0.64930602346E+02 -0.16118108374E+03  0.19963315616E+03  0.00000000000E+00 0.  1.
          2    1    6    6  502    0  0.29954112910E+03  0.85988653664E+01  0.16797778420E+03  0.34353364390E+03  0.00000000000E+00 0. -1.
          3    1    5    5  503    0 -0.41519469442E+02  0.88806666519E+01  0.14607132634E+02  0.44901012312E+02  0.00000000000E+00 0. -1.
         -4    1    5    5    0  503 -0.23058734545E+03  0.24095958770E+03  0.22918291828E+03  0.40466882363E+03  0.00000000000E+00 0.  1.
         -1    1    6    6    0  502  0.24021713687E+03 -0.61716654895E+02  0.15012515533E+03  0.28991512655E+03  0.00000000000E+00 0.  1.
<mgrwt>
<rscale>  0 0.14837911E+04</rscale>
<asrwt>0</asrwt>
<pdfrwt beam="1">  1        2 0.14041978E+00 0.14837911E+04</pdfrwt>
<pdfrwt beam="2">  1       -2 0.92774908E-01 0.14837911E+04</pdfrwt>
<totfact> 0.27398228E+01</totfact>
</mgrwt>
</event>
<event>
12    1  0.1536832E-007  0.1658670E+04  0.7818608E-02  0.8785294E-01
          3   -1    0    0  501    0  0.00000000000E+00  0.00000000000E+00  0.19831980625E+04  0.19831980625E+04  0.00000000000E+00 0. -1.
         -3   -1    0    0    0  501 -0.00000000000E+00 -0.00000000000E+00 -0.34681172367E+03  0.34681172367E+03  0.00000000000E+00 0.  1.
         23    2    1    2    0    0  0.52362681925E+03  0.13403188151E+03  0.34467964877E+03  0.64743392011E+03  0.90647832512E+02 0.  0.
        254    2    1    2    0    0 -0.52362681925E+03 -0.13403188151E+03  0.12917066901E+04  0.16825758661E+04  0.93295540130E+03 0.  0.
        -24    2    4    4    0    0 -0.52715604395E+03 -0.23200047621E+03  0.13968772841E+04  0.15130790908E+04  0.80152806658E+02 0.  0.
         24    2    4    4    0    0  0.35292246986E+01  0.97968594703E+02 -0.10517059404E+03  0.16949677530E+03  0.89766374626E+02 0.  0.
         11    1    3    3    0    0  0.86783963830E+02  0.36961014378E+01  0.90705995421E+02  0.12558939107E+03  0.00000000000E+00 0. -1.
        -11    1    3    3    0    0  0.43684285542E+03  0.13033578007E+03  0.25397365335E+03  0.52184452904E+03  0.00000000000E+00 0.  1.
          2    1    6    6  502    0  0.21437805357E+02  0.68569143516E+02 -0.15569030913E+02  0.73509874607E+02  0.00000000000E+00 0. -1.
          3    1    5    5  503    0 -0.35252591255E+03 -0.15202340174E+03  0.10248251635E+04  0.10943729937E+04  0.00000000000E+00 0. -1.
         -4    1    5    5    0  503 -0.17463013139E+03 -0.79977074469E+02  0.37205212065E+03  0.41870609705E+03  0.00000000000E+00 0.  1.
         -1    1    6    6    0  502 -0.17908580659E+02  0.29399451186E+02 -0.89601563125E+02  0.95986900698E+02  0.00000000000E+00 0.  1.
<mgrwt>
<rscale>  0 0.16586698E+04</rscale>
<asrwt>0</asrwt>
<pdfrwt beam="1">  1        3 0.30510739E+00 0.16586698E+04</pdfrwt>
<pdfrwt beam="2">  1       -3 0.53355651E-01 0.16586698E+04</pdfrwt>
<totfact> 0.31550873E-01</totfact>
</mgrwt>
</event>
<event>
12    1  0.1660381E-007  0.2782790E+04  0.7818608E-02  0.8308631E-01
          2   -1    0    0  501    0  0.00000000000E+00  0.00000000000E+00  0.12771393166E+04  0.12771393166E+04  0.00000000000E+00 0. -1.
         -2   -1    0    0    0  501 -0.00000000000E+00 -0.00000000000E+00 -0.15158719235E+04  0.15158719235E+04  0.00000000000E+00 0.  1.
         23    2    1    2    0    0  0.90252055668E+03 -0.94454775059E+02  0.74140474656E+03  0.11753628780E+04  0.91278896992E+02 0.  0.
        254    2    1    2    0    0 -0.90252055668E+03  0.94454775059E+02 -0.98013735340E+03  0.16176483621E+04  0.91249763396E+03 0.  0.
        -24    2    4    4    0    0 -0.83824656550E+03 -0.23696675403E+03 -0.91338535173E+03  0.12646395692E+04  0.78929666397E+02 0.  0.
         24    2    4    4    0    0 -0.64273991174E+02  0.33142152909E+03 -0.66752001664E+02  0.35300879282E+03  0.78663855706E+02 0.  0.
         13    1    3    3    0    0  0.73680618315E+03 -0.87528638400E+02  0.56021739656E+03  0.92972476867E+03  0.00000000000E+00 0. -1.
        -13    1    3    3    0    0  0.16571437352E+03 -0.69261366597E+01  0.18118735000E+03  0.24563810934E+03  0.00000000000E+00 0.  1.
          4    1    6    6  502    0 -0.27483685848E+01  0.11834810170E+01 -0.12355294129E+02  0.12712491896E+02  0.00000000000E+00 0. -1.
          1    1    5    5  503    0 -0.22220113915E+03 -0.27331702437E+02 -0.22775313604E+03  0.31936164325E+03  0.00000000000E+00 0. -1.
         -2    1    5    5    0  503 -0.61604542635E+03 -0.20963505159E+03 -0.68563221569E+03  0.94527792600E+03  0.00000000000E+00 0.  1.
         -1    1    6    6    0  502 -0.61525622589E+02  0.33023804807E+03 -0.54396707535E+02  0.34029630092E+03  0.00000000000E+00 0.  1.
<mgrwt>
<rscale>  0 0.27827897E+04</rscale>
<asrwt>0</asrwt>
<pdfrwt beam="1">  1        2 0.19648297E+00 0.27827897E+04</pdfrwt>
<pdfrwt beam="2">  1       -2 0.23321106E+00 0.27827897E+04</pdfrwt>
<totfact> 0.12127988E+00</totfact>
</mgrwt>
</event>
<event>
12    1  0.1536832E-007  0.1928760E+04  0.7818608E-02  0.8640672E-01
          2   -1    0    0  501    0  0.00000000000E+00  0.00000000000E+00  0.93907372309E+03  0.93907372309E+03  0.00000000000E+00 0. -1.
         -2   -1    0    0    0  501 -0.00000000000E+00 -0.00000000000E+00 -0.99036809208E+03  0.99036809208E+03  0.00000000000E+00 0.  1.
         23    2    1    2    0    0 -0.53359218696E+03 -0.50427075593E+03  0.15357423238E+03  0.75560513239E+03  0.91347982864E+02 0.  0.
        254    2    1    2    0    0  0.53359218696E+03  0.50427075593E+03 -0.20486860137E+03  0.11738366828E+04  0.89269916363E+03 0.  0.
        -24    2    4    4    0    0  0.11575523599E+03  0.64411347937E+03  0.45005393766E+02  0.66077904672E+03  0.79511094519E+02 0.  0.
         24    2    4    4    0    0  0.41783695098E+03 -0.13984272344E+03 -0.24987399513E+03  0.51305763606E+03  0.81531709034E+02 0.  0.
         11    1    3    3    0    0 -0.36756530196E+03 -0.36377952736E+03  0.66802032490E+02  0.52144252538E+03  0.00000000000E+00 0.  1.
        -11    1    3    3    0    0 -0.16602688500E+03 -0.14049122857E+03  0.86772199888E+02  0.23416260701E+03  0.00000000000E+00 0. -1.
          4    1    6    6  502    0  0.24351854346E+03 -0.60886963589E+02 -0.18183710530E+03  0.30995682958E+03  0.00000000000E+00 0. -1.
          1    1    5    5  503    0  0.23777726995E+02  0.18350567751E+03  0.47625197382E+02  0.19107033628E+03  0.00000000000E+00 0. -1.
         -2    1    5    5    0  503  0.91977508990E+02  0.46060780186E+03 -0.26198036161E+01  0.46970871044E+03  0.00000000000E+00 0.  1.
         -3    1    6    6    0  502  0.17431840752E+03 -0.78955759850E+02 -0.68036889833E+02  0.20310080648E+03  0.00000000000E+00 0.  1.
<mgrwt>
<rscale>  0 0.19287599E+04</rscale>
<asrwt>0</asrwt>
<pdfrwt beam="1">  1        2 0.14447288E+00 0.19287599E+04</pdfrwt>
<pdfrwt beam="2">  1       -2 0.15236432E+00 0.19287599E+04</pdfrwt>
<totfact> 0.74121628E+00</totfact>
</mgrwt>
</event>
<event>
12    1  0.1536832E-007  0.1582346E+04  0.7818608E-02  0.8831467E-01
         -2   -1    0    0    0  501 -0.00000000000E+00  0.00000000000E+00  0.13923411349E+04  0.13923411349E+04  0.00000000000E+00 0.  1.
          2   -1    0    0  501    0  0.00000000000E+00 -0.00000000000E+00 -0.44957008950E+03  0.44957008950E+03  0.00000000000E+00 0. -1.
         23    2    1    2    0    0 -0.29590541994E+03 -0.36936612612E+03  0.59539885613E+03  0.76591580670E+03  0.90199070921E+02 0.  0.
        254    2    1    2    0    0  0.29590541994E+03  0.36936612612E+03  0.34737218931E+03  0.10759954177E+04  0.90172465221E+03 0.  0.
        -24    2    4    4    0    0  0.46325703218E+03  0.47589145758E+03  0.32757425196E+01  0.66880056280E+03  0.78763602328E+02 0.  0.
         24    2    4    4    0    0 -0.16735161224E+03 -0.10652533146E+03  0.34409644679E+03  0.40719485493E+03  0.89727792975E+02 0.  0.
         11    1    3    3    0    0 -0.19995472550E+03 -0.27536376655E+03  0.48257249554E+03  0.59049412328E+03  0.00000000000E+00 0.  1.
        -11    1    3    3    0    0 -0.95950694444E+02 -0.94002359572E+02  0.11282636059E+03  0.17542168342E+03  0.00000000000E+00 0. -1.
          4    1    6    6  502    0 -0.14701716495E+03 -0.81321158210E+02  0.20841029565E+03  0.26769764455E+03  0.00000000000E+00 0. -1.
          1    1    5    5  503    0  0.35538479909E+03  0.40851341762E+03  0.81060383213E+01  0.54152310723E+03  0.00000000000E+00 0. -1.
         -2    1    5    5    0  503  0.10787223308E+03  0.67378039955E+02 -0.48302958018E+01  0.12727745557E+03  0.00000000000E+00 0.  1.
         -3    1    6    6    0  502 -0.20334447287E+02 -0.25204173248E+02  0.13568615113E+03  0.13949721038E+03  0.00000000000E+00 0.  1.
<mgrwt>
<rscale>  0 0.15823463E+04</rscale>
<asrwt>0</asrwt>
<pdfrwt beam="1">  1        2 0.69164630E-01 0.15823463E+04</pdfrwt>
<pdfrwt beam="2">  1       -2 0.21420633E+00 0.15823463E+04</pdfrwt>
<totfact> 0.71879517E+00</totfact>
</mgrwt>
</event>
<event>
12    1  0.1536832E-007  0.2233477E+04  0.7818608E-02  0.8504622E-01
          2   -1    0    0  501    0  0.00000000000E+00  0.00000000000E+00  0.22240459983E+04  0.22240459983E+04  0.00000000000E+00 0. -1.
         -2   -1    0    0    0  501 -0.00000000000E+00 -0.00000000000E+00 -0.56073715163E+03  0.56073715163E+03  0.00000000000E+00 0.  1.
         23    2    1    2    0    0 -0.49563791402E+03 -0.61686573285E+02  0.16873163789E+04  0.17620526752E+04  0.91273724625E+02 0.  0.
        254    2    1    2    0    0  0.49563791402E+03  0.61686573285E+02 -0.24007532193E+02  0.10227304747E+04  0.89215418348E+03 0.  0.
        -24    2    4    4    0    0 -0.43948721879E+02  0.75822488556E+01 -0.36542961397E+03  0.37627129657E+03  0.77796562921E+02 0.  0.
         24    2    4    4    0    0  0.53958663590E+03  0.54104324429E+02  0.34142208178E+03  0.64645917811E+03  0.85202203458E+02 0.  0.
         13    1    3    3    0    0 -0.73936898022E+01 -0.13587749981E+01  0.44129619720E+01  0.87170609584E+01  0.00000000000E+00 0.  1.
        -13    1    3    3    0    0 -0.48824422422E+03 -0.60327798287E+02  0.16829034169E+04  0.17533356143E+04  0.00000000000E+00 0. -1.
          2    1    6    6  502    0  0.49245798783E+03  0.59426865970E+02  0.33509453840E+03  0.59861070142E+03  0.00000000000E+00 0. -1.
          3    1    5    5  503    0 -0.13987060217E+02 -0.24450608613E+02 -0.26736407521E+03  0.26884385585E+03  0.00000000000E+00 0. -1.
         -4    1    5    5    0  503 -0.29961661662E+02  0.32032857469E+02 -0.98065538766E+02  0.10742744072E+03  0.00000000000E+00 0.  1.
         -1    1    6    6    0  502  0.47128648065E+02 -0.53225415405E+01  0.63275433750E+01  0.47848476696E+02  0.00000000000E+00 0.  1.
<mgrwt>
<rscale>  0 0.22334773E+04</rscale>
<asrwt>0</asrwt>
<pdfrwt beam="1">  1        2 0.34216092E+00 0.22334773E+04</pdfrwt>
<pdfrwt beam="2">  1       -2 0.86267255E-01 0.22334773E+04</pdfrwt>
<totfact> 0.53139935E+00</totfact>
</mgrwt>
</event>
<event>
12    1  0.1536832E-007  0.1690668E+04  0.7818608E-02  0.8766704E-01
         -2   -1    0    0    0  501 -0.00000000000E+00  0.00000000000E+00  0.91472952230E+03  0.91472952230E+03  0.00000000000E+00 0. -1.
          2   -1    0    0  501    0  0.00000000000E+00 -0.00000000000E+00 -0.78120354323E+03  0.78120354323E+03  0.00000000000E+00 0.  1.
         23    2    1    2    0    0  0.15620575005E+03 -0.29325743394E+03  0.54942663372E+03  0.64854592901E+03  0.91334753966E+02 0.  0.
        254    2    1    2    0    0 -0.15620575005E+03  0.29325743394E+03 -0.41590065466E+03  0.10473871365E+04  0.90202344775E+03 0.  0.
        -24    2    4    4    0    0 -0.35247245830E+03 -0.13277107444E+03 -0.42271692518E+03  0.57083233236E+03  0.72766481092E+02 0.  0.
         24    2    4    4    0    0  0.19626670825E+03  0.42602850838E+03  0.68162705197E+01  0.47655480416E+03  0.83887478806E+02 0.  0.
         11    1    3    3    0    0  0.69758433988E+02 -0.19445102459E+03  0.39575817036E+03  0.44643249152E+03  0.00000000000E+00 0. -1.
        -11    1    3    3    0    0  0.86447316058E+02 -0.98806409344E+02  0.15366846336E+03  0.20211343749E+03  0.00000000000E+00 0.  1.
          2    1    6    6  502    0  0.14569081729E+03  0.31337413868E+03  0.42065051786E+02  0.34813594129E+03  0.00000000000E+00 0. -1.
          3    1    5    5  503    0 -0.26918582419E+03 -0.67379478293E+02 -0.29693919333E+03  0.40641590345E+03  0.00000000000E+00 0. -1.
         -4    1    5    5    0  503 -0.83286634108E+02 -0.65391596149E+02 -0.12577773185E+03  0.16441642892E+03  0.00000000000E+00 0.  1.
         -1    1    6    6    0  502  0.50575890957E+02  0.11265436970E+03 -0.35248781267E+02  0.12841886286E+03  0.00000000000E+00 0.  1.
<mgrwt>
<rscale>  0 0.16906684E+04</rscale>
<asrwt>0</asrwt>
<pdfrwt beam="1">  1        2 0.12018516E+00 0.16906684E+04</pdfrwt>
<pdfrwt beam="2">  1       -2 0.14072762E+00 0.16906684E+04</pdfrwt>
<totfact> 0.11991465E+01</totfact>
</mgrwt>
</event>
<event>
12    1  0.1536832E-007  0.3828628E+04  0.7818608E-02  0.8040039E-01
         -1   -1    0    0    0  501 -0.00000000000E+00  0.00000000000E+00  0.19891697213E+04  0.19891697213E+04  0.00000000000E+00 0.  1.
          1   -1    0    0  501    0  0.00000000000E+00 -0.00000000000E+00 -0.18422754286E+04  0.18422754286E+04  0.00000000000E+00 0. -1.
         23    2    1    2    0    0  0.11274271351E+04 -0.41596767535E+03  0.14178217975E+04  0.18608605542E+04  0.91990764427E+02 0.  0.
        254    2    1    2    0    0 -0.11274271351E+04  0.41596767535E+03 -0.12709275049E+04  0.19705845956E+04  0.90764854108E+03 0.  0.
        -24    2    4    4    0    0  0.26197110924E+01 -0.17640701087E+02  0.10671950220E+03  0.13503720763E+03  0.80795656270E+02 0.  0.
         24    2    4    4    0    0 -0.11300468462E+04  0.43360837644E+03 -0.13776470071E+04  0.18355473880E+04  0.79377823798E+02 0.  0.
         11    1    3    3    0    0  0.57247900043E+02 -0.43667918221E+02  0.78104056388E+02  0.10622830492E+03  0.00000000000E+00 0. -1.
        -11    1    3    3    0    0  0.10701792350E+04 -0.37229975713E+03  0.13397177412E+04  0.17546322493E+04  0.00000000000E+00 0.  1.
          2    1    6    6  502    0 -0.18158252267E+03  0.39132871983E+02 -0.20963064433E+03  0.28008677450E+03  0.00000000000E+00 0. -1.
          1    1    5    5  503    0 -0.18111623947E+01  0.32134635958E+02  0.34157703231E+02  0.46932545503E+02  0.00000000000E+00 0. -1.
         -2    1    5    5    0  503  0.44308734871E+01 -0.49775337046E+02  0.72561798973E+02  0.88104662124E+02  0.00000000000E+00 0.  1.
         -1    1    6    6    0  502 -0.94846432349E+03  0.39447550445E+03 -0.11680163627E+04  0.15554606135E+04  0.00000000000E+00 0.  1.
<mgrwt>
<rscale>  0 0.38286282E+04</rscale>
<asrwt>0</asrwt>
<pdfrwt beam="1">  1        1 0.28342699E+00 0.38286282E+04</pdfrwt>
<pdfrwt beam="2">  1       -1 0.30602611E+00 0.38286282E+04</pdfrwt>
<totfact> 0.91340813E-02</totfact>
</mgrwt>
</event>
<event>
12    1  0.1536832E-007  0.2833564E+04  0.7818608E-02  0.8292923E-01
          2   -1    0    0  501    0  0.00000000000E+00  0.00000000000E+00  0.20891765091E+04  0.20891765091E+04  0.00000000000E+00 0. -1.
         -2   -1    0    0    0  501 -0.00000000000E+00 -0.00000000000E+00 -0.96079558564E+03  0.96079558564E+03  0.00000000000E+00 0.  1.
         23    2    1    2    0    0  0.12132250284E+04 -0.22044004258E+03  0.83996884020E+03  0.14948855261E+04  0.92877885773E+02 0.  0.
        254    2    1    2    0    0 -0.12132250284E+04  0.22044004258E+03  0.28841208324E+03  0.15550865686E+04  0.90255411156E+03 0.  0.
        -24    2    4    4    0    0 -0.12021521095E+04  0.44193096978E+03  0.18158898387E+03  0.12961502175E+04  0.80982411209E+02 0.  0.
         24    2    4    4    0    0 -0.11072918922E+02 -0.22149092719E+03  0.10682309938E+03  0.25893635113E+03  0.80349356015E+02 0.  0.
         13    1    3    3    0    0  0.10890182218E+04 -0.18435149752E+03  0.71994770651E+03  0.13184350049E+04  0.00000000000E+00 0.  1.
        -13    1    3    3    0    0  0.12420680660E+03 -0.36088545065E+02  0.12002113369E+03  0.17645052117E+03  0.00000000000E+00 0. -1.
          2    1    6    6  502    0  0.14750466764E+02 -0.80666213253E+02  0.77418597780E+02  0.11277523448E+03  0.00000000000E+00 0. -1.
          1    1    5    5  503    0 -0.11700596338E+04  0.44107471219E+03  0.16961392119E+03  0.12618856251E+04  0.00000000000E+00 0. -1.
         -2    1    5    5    0  503 -0.32092475628E+02  0.85625758467E+00  0.11975062679E+02  0.34264592441E+02  0.00000000000E+00 0.  1.
         -1    1    6    6    0  502 -0.25823385686E+02 -0.14082471394E+03  0.29404501598E+02  0.14616111665E+03  0.00000000000E+00 0.  1.
<mgrwt>
<rscale>  0 0.28335642E+04</rscale>
<asrwt>0</asrwt>
<pdfrwt beam="1">  1        2 0.32141177E+00 0.28335642E+04</pdfrwt>
<pdfrwt beam="2">  1       -2 0.14781471E+00 0.28335642E+04</pdfrwt>
<totfact> 0.16105872E+00</totfact>
</mgrwt>
</event>
<event>
12    1  0.1536832E-007  0.2357490E+04  0.7818608E-02  0.8455592E-01
          1   -1    0    0  501    0  0.00000000000E+00  0.00000000000E+00  0.11522257310E+04  0.11522257310E+04  0.00000000000E+00 0. -1.
         -1   -1    0    0    0  501 -0.00000000000E+00 -0.00000000000E+00 -0.12058743618E+04  0.12058743618E+04  0.00000000000E+00 0.  1.
         23    2    1    2    0    0  0.42242508446E+03 -0.88954551991E+03 -0.21903212246E+03  0.10128460011E+04  0.90264983456E+02 0.  0.
        254    2    1    2    0    0 -0.42242508446E+03  0.88954551991E+03  0.16538349158E+03  0.13452540917E+04  0.90145587141E+03 0.  0.
        -24    2    4    4    0    0 -0.24409893263E+03 -0.58019758477E+02  0.26358345978E+03  0.37255148497E+03  0.79798417249E+02 0.  0.
         24    2    4    4    0    0 -0.17832615183E+03  0.94756527839E+03 -0.98199968198E+02  0.97270260678E+03  0.82625385015E+02 0.  0.
         11    1    3    3    0    0  0.21732397884E+03 -0.55242960077E+03 -0.14930116412E+03  0.61212663166E+03  0.00000000000E+00 0. -1.
        -11    1    3    3    0    0  0.20510110562E+03 -0.33711591914E+03 -0.69730958344E+02  0.40071936941E+03  0.00000000000E+00 0.  1.
          2    1    6    6  502    0 -0.79834686755E+02  0.46623262810E+03 -0.73993532834E+01  0.47307630584E+03  0.00000000000E+00 0. -1.
          1    1    5    5  503    0 -0.11637063783E+03 -0.25939398964E+02  0.18218829020E+03  0.21773275099E+03  0.00000000000E+00 0. -1.
         -2    1    5    5    0  503 -0.12772829480E+03 -0.32080359513E+02  0.81395169585E+02  0.15481873398E+03  0.00000000000E+00 0.  1.
         -1    1    6    6    0  502 -0.98491465073E+02  0.48133265028E+03 -0.90800614915E+02  0.49962630094E+03  0.00000000000E+00 0.  1.
<mgrwt>
<rscale>  0 0.23574897E+04</rscale>
<asrwt>0</asrwt>
<pdfrwt beam="1">  1        1 0.17726550E+00 0.23574897E+04</pdfrwt>
<pdfrwt beam="2">  1       -1 0.18551913E+00 0.23574897E+04</pdfrwt>
<totfact> 0.19809011E+00</totfact>
</mgrwt>
</event>
<event>
12    1  0.1536832E-007  0.1662572E+04  0.7818608E-02  0.8783003E-01
          2   -1    0    0  501    0  0.00000000000E+00  0.00000000000E+00  0.56764790504E+03  0.56764790504E+03  0.00000000000E+00 0. -1.
         -2   -1    0    0    0  501 -0.00000000000E+00 -0.00000000000E+00 -0.12173687277E+04  0.12173687277E+04  0.00000000000E+00 0.  1.
         23    2    1    2    0    0 -0.46682864596E+03 -0.31332418554E+03 -0.26892415889E+03  0.62975287017E+03  0.90373913918E+02 0.  0.
        254    2    1    2    0    0  0.46682864596E+03  0.31332418554E+03 -0.38079666378E+03  0.11552637626E+04  0.93462678757E+03 0.  0.
        -24    2    4    4    0    0  0.71037184622E+03  0.32906474533E+03 -0.13217468664E+03  0.79794811489E+03  0.79619593993E+02 0.  0.
         24    2    4    4    0    0 -0.24354320025E+03 -0.15740559796E+02 -0.24862197715E+03  0.35731564769E+03  0.79375871337E+02 0.  0.
         11    1    3    3    0    0 -0.46021631733E+03 -0.31961669407E+03 -0.26482094562E+03  0.61974512753E+03  0.00000000000E+00 0.  1.
        -11    1    3    3    0    0 -0.66123286322E+01  0.62925085277E+01 -0.41032132672E+01  0.10007742634E+02  0.00000000000E+00 0. -1.
          4    1    6    6  502    0 -0.22973041225E+03  0.72044739741E+01 -0.22170752396E+03  0.31934650920E+03  0.00000000000E+00 0. -1.
          1    1    5    5  503    0  0.61066060648E+03  0.27338056112E+03 -0.13971346941E+03  0.68349335113E+03  0.00000000000E+00 0. -1.
         -2    1    5    5    0  503  0.99711239736E+02  0.55684184213E+02  0.75387827714E+01  0.11445476376E+03  0.00000000000E+00 0.  1.
         -3    1    6    6    0  502 -0.13812788000E+02 -0.22945033770E+02 -0.26914453186E+02  0.37969138486E+02  0.00000000000E+00 0.  1.
<mgrwt>
<rscale>  0 0.16625725E+04</rscale>
<asrwt>0</asrwt>
<pdfrwt beam="1">  1        2 0.87330448E-01 0.16625725E+04</pdfrwt>
<pdfrwt beam="2">  1       -2 0.18728749E+00 0.16625725E+04</pdfrwt>
<totfact> 0.81719401E+00</totfact>
</mgrwt>
</event>
<event>
12    1  0.1536832E-007  0.1322395E+04  0.7818608E-02  0.9011992E-01
         -2   -1    0    0    0  501 -0.00000000000E+00  0.00000000000E+00  0.10734357435E+04  0.10734357435E+04  0.00000000000E+00 0.  1.
          2   -1    0    0  501    0  0.00000000000E+00 -0.00000000000E+00 -0.40727351042E+03  0.40727351042E+03  0.00000000000E+00 0. -1.
         23    2    1    2    0    0 -0.48001175681E+02 -0.19053188556E+02  0.50670408516E+03  0.51736257357E+03  0.90817761214E+02 0.  0.
        254    2    1    2    0    0  0.48001175681E+02  0.19053188556E+02  0.15945814795E+03  0.96334668038E+03  0.94865314462E+03 0.  0.
        -24    2    4    4    0    0  0.28553203242E+03  0.39366451830E+03  0.13854604956E+03  0.51206954115E+03  0.80745975871E+02 0.  0.
         24    2    4    4    0    0 -0.23753085674E+03 -0.37461132974E+03  0.20912098394E+02  0.45127713923E+03  0.80369050368E+02 0.  0.
         13    1    3    3    0    0  0.20930096255E+02  0.91170037256E+01  0.54813757833E+02  0.59377914530E+02  0.00000000000E+00 0. -1.
        -13    1    3    3    0    0 -0.68931271936E+02 -0.28170192281E+02  0.45189032733E+03  0.45798465904E+03  0.00000000000E+00 0.  1.
          4    1    6    6  502    0 -0.16595161972E+03 -0.21416780189E+03  0.42563461929E+02  0.27426161916E+03  0.00000000000E+00 0. -1.
          1    1    5    5  503    0  0.65669534385E+02  0.41704238344E+02  0.16732492626E+02  0.79572027445E+02  0.00000000000E+00 0. -1.
         -4    1    5    5    0  503  0.21986249803E+03  0.35196027996E+03  0.12181355693E+03  0.43249751370E+03  0.00000000000E+00 0.  1.
         -3    1    6    6    0  502 -0.71579237021E+02 -0.16044352785E+03 -0.21651363535E+02  0.17701552007E+03  0.00000000000E+00 0.  1.
<mgrwt>
<rscale>  0 0.13223947E+04</rscale>
<asrwt>0</asrwt>
<pdfrwt beam="1">  1        2 0.62657464E-01 0.13223947E+04</pdfrwt>
<pdfrwt beam="2">  1       -2 0.16514396E+00 0.13223947E+04</pdfrwt>
<totfact> 0.17590759E+01</totfact>
</mgrwt>
</event>
<event>
12    1  0.1536832E-007  0.2279523E+04  0.7818608E-02  0.8486039E-01
          2   -1    0    0  501    0  0.00000000000E+00  0.00000000000E+00  0.62456641164E+03  0.62456641164E+03  0.00000000000E+00 0. -1.
         -2   -1    0    0    0  501 -0.00000000000E+00 -0.00000000000E+00 -0.20799336964E+04  0.20799336964E+04  0.00000000000E+00 0.  1.
         23    2    1    2    0    0 -0.10719462698E+03 -0.78861970017E+03 -0.12508505920E+04  0.14853110947E+04  0.90056231349E+02 0.  0.
        254    2    1    2    0    0  0.10719462698E+03  0.78861970017E+03 -0.20451669277E+03  0.12191890134E+04  0.90065701201E+03 0.  0.
        -24    2    4    4    0    0  0.24779145667E+03 -0.83077677204E+02 -0.18940964271E+03  0.33247032005E+03  0.79737033544E+02 0.  0.
         24    2    4    4    0    0 -0.14059682969E+03  0.87169737737E+03 -0.15107050068E+02  0.88671869337E+03  0.80112620550E+02 0.  0.
         13    1    3    3    0    0 -0.48700517806E+02 -0.56218003994E+03 -0.93897071892E+03  0.10954835228E+04  0.00000000000E+00 0.  1.
        -13    1    3    3    0    0 -0.58494109174E+02 -0.22643966023E+03 -0.31187987309E+03  0.38982757185E+03  0.00000000000E+00 0. -1.
          2    1    6    6  502    0 -0.16682628736E+01 -0.15650971152E+01  0.47739385813E+00  0.23367787425E+01  0.00000000000E+00 0. -1.
          1    1    5    5  503    0  0.10646194355E+03 -0.68931009849E+02 -0.59933313652E+02  0.14027698182E+03  0.00000000000E+00 0. -1.
         -2    1    5    5    0  503  0.14132951312E+03 -0.14146667355E+02 -0.12947632905E+03  0.19219333823E+03  0.00000000000E+00 0.  1.
         -1    1    6    6    0  502 -0.13892856682E+03  0.87326247449E+03 -0.15584443926E+02  0.88438191463E+03  0.00000000000E+00 0.  1.
<mgrwt>
<rscale>  0 0.22795234E+04</rscale>
<asrwt>0</asrwt>
<pdfrwt beam="1">  1        2 0.96087141E-01 0.22795234E+04</pdfrwt>
<pdfrwt beam="2">  1       -2 0.31998980E+00 0.22795234E+04</pdfrwt>
<totfact> 0.10278729E+00</totfact>
</mgrwt>
</event>
<event>
12    1  0.1536832E-007  0.1578629E+04  0.7818608E-02  0.8833786E-01
          2   -1    0    0  501    0  0.00000000000E+00  0.00000000000E+00  0.15250578021E+04  0.15250578021E+04  0.00000000000E+00 0. -1.
         -2   -1    0    0    0  501 -0.00000000000E+00 -0.00000000000E+00 -0.40852026011E+03  0.40852026011E+03  0.00000000000E+00 0.  1.
         23    2    1    2    0    0  0.17894095348E+02  0.96906835633E+02  0.99895743863E+03  0.10080448070E+04  0.92343029955E+02 0.  0.
        254    2    1    2    0    0 -0.17894095348E+02 -0.96906835633E+02  0.11758010337E+03  0.92553325527E+03  0.91272974777E+03 0.  0.
        -24    2    4    4    0    0 -0.34760104667E+03 -0.22988989340E+03  0.29713386835E+03  0.51800094905E+03  0.79753349509E+02 0.  0.
         24    2    4    4    0    0  0.32970695132E+03  0.13298305777E+03 -0.17955376498E+03  0.40753230622E+03  0.86324148965E+02 0.  0.
         11    1    3    3    0    0 -0.32725761352E+02  0.56793576092E+02  0.63764120361E+03  0.64100139647E+03  0.00000000000E+00 0. -1.
        -11    1    3    3    0    0  0.50619856700E+02  0.40113259542E+02  0.36131623502E+03  0.36704341048E+03  0.00000000000E+00 0.  1.
          4    1    6    6  502    0  0.16320975777E+03  0.35243330861E+02 -0.11954838760E+03  0.20535660296E+03  0.00000000000E+00 0. -1.
          3    1    5    5  503    0 -0.29791834996E+03 -0.21187873465E+03  0.28559311734E+03  0.46390879504E+03  0.00000000000E+00 0. -1.
         -4    1    5    5    0  503 -0.49682696708E+02 -0.18011158753E+02  0.11540751017E+02  0.54092154013E+02  0.00000000000E+00 0.  1.
         -3    1    6    6    0  502  0.16649719355E+03  0.97739726907E+02 -0.60005377387E+02  0.20217570327E+03  0.00000000000E+00 0.  1.
<mgrwt>
<rscale>  0 0.15786285E+04</rscale>
<asrwt>0</asrwt>
<pdfrwt beam="1">  1        2 0.23462428E+00 0.15786285E+04</pdfrwt>
<pdfrwt beam="2">  1       -2 0.62849271E-01 0.15786285E+04</pdfrwt>
<totfact> 0.27689823E+01</totfact>
</mgrwt>
</event>
<event>
12    1  0.1536832E-007  0.2149721E+04  0.7818608E-02  0.8539652E-01
         -1   -1    0    0    0  501 -0.00000000000E+00  0.00000000000E+00  0.15416985702E+04  0.15416985702E+04  0.00000000000E+00 0.  1.
          1   -1    0    0  501    0  0.00000000000E+00 -0.00000000000E+00 -0.74938451520E+03  0.74938451520E+03  0.00000000000E+00 0. -1.
         23    2    1    2    0    0  0.10747961248E+03 -0.39488388270E+03  0.11597651867E+04  0.12333083898E+04  0.92245044793E+02 0.  0.
        254    2    1    2    0    0 -0.10747961248E+03  0.39488388270E+03 -0.36745113171E+03  0.10577746955E+04  0.90353850189E+03 0.  0.
        -24    2    4    4    0    0 -0.31153451809E+03  0.13462722068E+03 -0.56584509607E+03  0.66465516965E+03  0.80047343991E+02 0.  0.
         24    2    4    4    0    0  0.20405490561E+03  0.26025666202E+03  0.19839396436E+03  0.39311952589E+03  0.76229009598E+02 0.  0.
         13    1    3    3    0    0  0.50911934254E+02 -0.83110459781E+02  0.36277349220E+03  0.37563809740E+03  0.00000000000E+00 0. -1.
        -13    1    3    3    0    0  0.56567678228E+02 -0.31177342292E+03  0.79699169449E+03  0.85767029245E+03  0.00000000000E+00 0.  1.
          2    1    6    6  502    0  0.11899372167E+03  0.10049262357E+03  0.67482514518E+02  0.16974145915E+03  0.00000000000E+00 0. -1.
          1    1    5    5  503    0 -0.16748529604E+03  0.61364371468E+02 -0.22245900292E+03  0.28514017334E+03  0.00000000000E+00 0. -1.
         -2    1    5    5    0  503 -0.14404922206E+03  0.73262849208E+02 -0.34338609316E+03  0.37951499631E+03  0.00000000000E+00 0.  1.
         -3    1    6    6    0  502  0.85061183938E+02  0.15976403846E+03  0.13091144985E+03  0.22337806673E+03  0.00000000000E+00 0.  1.
<mgrwt>
<rscale>  0 0.21497209E+04</rscale>
<asrwt>0</asrwt>
<pdfrwt beam="1">  1        1 0.11528993E+00 0.21497209E+04</pdfrwt>
<pdfrwt beam="2">  1       -1 0.23718439E+00 0.21497209E+04</pdfrwt>
<totfact> 0.18999167E+00</totfact>
</mgrwt>
</event>
<event>
12    1  0.1536832E-007  0.2042467E+04  0.7818608E-02  0.8587020E-01
          1   -1    0    0  501    0  0.00000000000E+00  0.00000000000E+00  0.10314758102E+04  0.10314758102E+04  0.00000000000E+00 0. -1.
         -1   -1    0    0    0  501 -0.00000000000E+00 -0.00000000000E+00 -0.10110925777E+04  0.10110925777E+04  0.00000000000E+00 0.  1.
         23    2    1    2    0    0 -0.12640727266E+02  0.80119997981E+03 -0.16119136521E+03  0.82250661164E+03  0.91941689927E+02 0.  0.
        254    2    1    2    0    0  0.12640727266E+02 -0.80119997981E+03  0.18157459771E+03  0.12200617763E+04  0.90194246370E+03 0.  0.
        -24    2    4    4    0    0  0.25241669641E+03 -0.33970969528E+03 -0.28534994339E+03  0.51664697809E+03  0.79891451871E+02 0.  0.
         24    2    4    4    0    0 -0.23977596914E+03 -0.46149028452E+03  0.46692454110E+03  0.70341479821E+03  0.79423253330E+02 0.  0.
         13    1    3    3    0    0 -0.96783938388E+01  0.48937198464E+03 -0.14391488023E+03  0.51018634185E+03  0.00000000000E+00 0.  1.
        -13    1    3    3    0    0 -0.29623334273E+01  0.31182799517E+03 -0.17276484978E+02  0.31232026979E+03  0.00000000000E+00 0. -1.
          4    1    6    6  502    0 -0.20337827361E+03 -0.42961661455E+03  0.44162231350E+03  0.64881694295E+03  0.00000000000E+00 0. -1.
          3    1    5    5  503    0  0.13291373376E+03 -0.22453457034E+03 -0.20725323443E+03  0.33322025311E+03  0.00000000000E+00 0. -1.
         -4    1    5    5    0  503  0.11950296265E+03 -0.11517512494E+03 -0.78096708962E+02  0.18342672498E+03  0.00000000000E+00 0.  1.
         -3    1    6    6    0  502 -0.36397695535E+02 -0.31873669969E+02  0.25302227606E+02  0.54597855263E+02  0.00000000000E+00 0.  1.
<mgrwt>
<rscale>  0 0.20424667E+04</rscale>
<asrwt>0</asrwt>
<pdfrwt beam="1">  1        1 0.15868859E+00 0.20424667E+04</pdfrwt>
<pdfrwt beam="2">  1       -1 0.15555270E+00 0.20424667E+04</pdfrwt>
<totfact> 0.41774982E+00</totfact>
</mgrwt>
</event>
<event>
12    1  0.1536832E-007  0.2720606E+04  0.7818608E-02  0.8328350E-01
          2   -1    0    0  501    0  0.00000000000E+00  0.00000000000E+00  0.10185962819E+04  0.10185962819E+04  0.00000000000E+00 0. -1.
         -2   -1    0    0    0  501 -0.00000000000E+00 -0.00000000000E+00 -0.18166412171E+04  0.18166412171E+04  0.00000000000E+00 0.  1.
         23    2    1    2    0    0  0.12092486962E+04 -0.77642015301E+02 -0.22290845207E+03  0.12355122727E+04  0.92150454216E+02 0.  0.
        254    2    1    2    0    0 -0.12092486962E+04  0.77642015301E+02 -0.57513648310E+03  0.15997252263E+04  0.87179592420E+03 0.  0.
        -24    2    4    4    0    0  0.21570480998E+02  0.10075174305E+03 -0.31219565027E+03  0.33835438508E+03  0.80008540026E+02 0.  0.
         24    2    4    4    0    0 -0.12308191772E+04 -0.23109727751E+02 -0.26294083283E+03  0.12613708412E+04  0.80427674631E+02 0.  0.
         11    1    3    3    0    0  0.11792238576E+04 -0.73926424854E+02 -0.23162382773E+03  0.12040280812E+04  0.00000000000E+00 0. -1.
        -11    1    3    3    0    0  0.30024838602E+02 -0.37155904466E+01  0.87153756603E+01  0.31484191563E+02  0.00000000000E+00 0.  1.
          4    1    6    6  502    0 -0.85563479316E+03 -0.51851957113E+02 -0.17300493158E+03  0.87448855400E+03  0.00000000000E+00 0. -1.
          1    1    5    5  503    0  0.16665436166E+02  0.11250973264E+03 -0.29949725925E+03  0.32036664152E+03  0.00000000000E+00 0. -1.
         -2    1    5    5    0  503  0.49050448318E+01 -0.11757989587E+02 -0.12698391027E+02  0.17987743566E+02  0.00000000000E+00 0.  1.
         -3    1    6    6    0  502 -0.37518438407E+03  0.28742229362E+02 -0.89935901251E+02  0.38688228718E+03  0.00000000000E+00 0.  1.
<mgrwt>
<rscale>  0 0.27206058E+04</rscale>
<asrwt>0</asrwt>
<pdfrwt beam="1">  1        2 0.15670712E+00 0.27206058E+04</pdfrwt>
<pdfrwt beam="2">  1       -2 0.27948326E+00 0.27206058E+04</pdfrwt>
<totfact> 0.91043787E-01</totfact>
</mgrwt>
</event>
<event>
12    1  0.1536832E-007  0.1611468E+04  0.7818608E-02  0.8813534E-01
         -2   -1    0    0    0  501 -0.00000000000E+00  0.00000000000E+00  0.18948037258E+04  0.18948037258E+04  0.00000000000E+00 0.  1.
          2   -1    0    0  501    0  0.00000000000E+00 -0.00000000000E+00 -0.34262493806E+03  0.34262493806E+03  0.00000000000E+00 0. -1.
         23    2    1    2    0    0  0.13079534007E+02  0.14042905973E+03  0.12615011213E+04  0.12724078629E+04  0.88007359348E+02 0.  0.
        254    2    1    2    0    0 -0.13079534007E+02 -0.14042905973E+03  0.29067766645E+03  0.96502080104E+03  0.90932955832E+03 0.  0.
        -24    2    4    4    0    0  0.33406176258E+03  0.22409370183E+03  0.14588773152E+03  0.43530504679E+03  0.79950016461E+02 0.  0.
         24    2    4    4    0    0 -0.34714129659E+03 -0.36452276156E+03  0.14478993492E+03  0.52971575425E+03  0.79061568056E+02 0.  0.
         11    1    3    3    0    0 -0.32057391007E+02  0.10195938940E+03  0.82702987759E+03  0.83390755593E+03  0.00000000000E+00 0.  1.
        -11    1    3    3    0    0  0.45136925014E+02  0.38469670331E+02  0.43447124374E+03  0.43850030692E+03  0.00000000000E+00 0. -1.
          4    1    6    6  502    0 -0.30920274839E+03 -0.35317788936E+03  0.12684751991E+03  0.48624197109E+03  0.00000000000E+00 0. -1.
          1    1    5    5  503    0  0.31856856708E+03  0.20909737583E+03  0.11575984600E+03  0.39825618194E+03  0.00000000000E+00 0. -1.
         -2    1    5    5    0  503  0.15493195504E+02  0.14996326000E+02  0.30127885522E+02  0.37048864847E+02  0.00000000000E+00 0.  1.
         -3    1    6    6    0  502 -0.37938548201E+02 -0.11344872201E+02  0.17942415016E+02  0.43473783151E+02  0.00000000000E+00 0.  1.
<mgrwt>
<rscale>  0 0.16114677E+04</rscale>
<asrwt>0</asrwt>
<pdfrwt beam="1">  1        2 0.52711530E-01 0.16114677E+04</pdfrwt>
<pdfrwt beam="2">  1       -2 0.29150826E+00 0.16114677E+04</pdfrwt>
<totfact> 0.32556687E+00</totfact>
</mgrwt>
</event>
<event>
12    1  0.1536832E-007  0.1990048E+04  0.7818608E-02  0.8611287E-01
          1   -1    0    0  501    0  0.00000000000E+00  0.00000000000E+00  0.61415947141E+03  0.61415947141E+03  0.00000000000E+00 0. -1.
         -1   -1    0    0    0  501 -0.00000000000E+00 -0.00000000000E+00 -0.16120784634E+04  0.16120784634E+04  0.00000000000E+00 0.  1.
         23    2    1    2    0    0 -0.66819722939E+03 -0.56985051354E+02 -0.85692914087E+03  0.10918517633E+04  0.89877067168E+02 0.  0.
        254    2    1    2    0    0  0.66819722939E+03  0.56985051354E+02 -0.14098985109E+03  0.11343861714E+04  0.90400166726E+03 0.  0.
        -24    2    4    4    0    0  0.51727274824E+03  0.20855535056E+03  0.29967099952E+03  0.63812360005E+03  0.79577576401E+02 0.  0.
         24    2    4    4    0    0  0.15092448115E+03 -0.15157029921E+03 -0.44066085062E+03  0.49626257139E+03  0.79641696902E+02 0.  0.
         13    1    3    3    0    0 -0.22693680710E+03 -0.38264299829E+02 -0.23368311179E+03  0.32798211505E+03  0.00000000000E+00 0. -1.
        -13    1    3    3    0    0 -0.44126042229E+03 -0.18720751525E+02 -0.62324602908E+03  0.76386964829E+03  0.00000000000E+00 0.  1.
          2    1    6    6  502    0  0.13853476222E+03 -0.15768194654E+03 -0.43103940177E+03  0.47942720248E+03  0.00000000000E+00 0. -1.
          1    1    5    5  503    0  0.38944274442E+03  0.19145201815E+03  0.24165964452E+03  0.49670807345E+03  0.00000000000E+00 0. -1.
         -2    1    5    5    0  503  0.12783000382E+03  0.17103332416E+02  0.58011355001E+02  0.14141552661E+03  0.00000000000E+00 0.  1.
         -1    1    6    6    0  502  0.12389718933E+02  0.61116473273E+01 -0.96214488494E+01  0.16835368907E+02  0.00000000000E+00 0.  1.
<mgrwt>
<rscale>  0 0.19900485E+04</rscale>
<asrwt>0</asrwt>
<pdfrwt beam="1">  1        1 0.94486075E-01 0.19900485E+04</pdfrwt>
<pdfrwt beam="2">  1       -1 0.24801206E+00 0.19900485E+04</pdfrwt>
<totfact> 0.22081139E+00</totfact>
</mgrwt>
</event>
<event>
12    1  0.1536832E-007  0.1354958E+04  0.7818608E-02  0.8987083E-01
          2   -1    0    0  501    0  0.00000000000E+00  0.00000000000E+00  0.18853112899E+03  0.18853112899E+03  0.00000000000E+00 0. -1.
         -2   -1    0    0    0  501 -0.00000000000E+00 -0.00000000000E+00 -0.24344931295E+04  0.24344931295E+04  0.00000000000E+00 0.  1.
         23    2    1    2    0    0 -0.21208329455E+03  0.28748373236E+03 -0.67098681633E+03  0.76568273701E+03  0.91763423383E+02 0.  0.
        254    2    1    2    0    0  0.21208329455E+03 -0.28748373236E+03 -0.15749751842E+04  0.18573415215E+04  0.91735733302E+03 0.  0.
        -24    2    4    4    0    0  0.22044983977E+03 -0.15212400031E+03 -0.16559929915E+04  0.16794398850E+04  0.80409552005E+02 0.  0.
         24    2    4    4    0    0 -0.83665452227E+01 -0.13535973205E+03  0.81017807270E+02  0.17790163654E+03  0.81809846902E+02 0.  0.
         13    1    3    3    0    0  0.19675316790E+01  0.40135122414E+02 -0.53548867985E+02  0.66949088826E+02  0.00000000000E+00 0. -1.
        -13    1    3    3    0    0 -0.21405082623E+03  0.24734860994E+03 -0.61743794835E+03  0.69873364819E+03  0.00000000000E+00 0.  1.
          2    1    6    6  502    0  0.17109256788E+02 -0.80531737924E+02  0.83673845298E+02  0.11738568851E+03  0.00000000000E+00 0. -1.
          1    1    5    5  503    0  0.20138766119E+03 -0.15901345179E+03 -0.15839621878E+04  0.16046116291E+04  0.00000000000E+00 0. -1.
         -4    1    5    5    0  503  0.19062178587E+02  0.68894514744E+01 -0.72030803703E+02  0.74828255868E+02  0.00000000000E+00 0.  1.
         -1    1    6    6    0  502 -0.25475802011E+02 -0.54827994122E+02 -0.26560380274E+01  0.60515948026E+02  0.00000000000E+00 0.  1.
<mgrwt>
<rscale>  0 0.13549579E+04</rscale>
<asrwt>0</asrwt>
<pdfrwt beam="1">  1        2 0.29004789E-01 0.13549579E+04</pdfrwt>
<pdfrwt beam="2">  1       -2 0.37453740E+00 0.13549579E+04</pdfrwt>
<totfact> 0.19852361E+00</totfact>
</mgrwt>
</event>
<event>
12    1  0.1536832E-007  0.1231429E+04  0.7818608E-02  0.9085783E-01
         -1   -1    0    0    0  501 -0.00000000000E+00  0.00000000000E+00  0.22207985612E+03  0.22207985612E+03  0.00000000000E+00 0.  1.
          1   -1    0    0  501    0  0.00000000000E+00 -0.00000000000E+00 -0.17070624851E+04  0.17070624851E+04  0.00000000000E+00 0. -1.
         23    2    1    2    0    0  0.24667387118E+03  0.10072148349E+03 -0.27589981590E+03  0.39483724238E+03  0.93717253424E+02 0.  0.
        254    2    1    2    0    0 -0.24667387118E+03 -0.10072148349E+03 -0.12090828131E+04  0.15343050989E+04  0.90621083172E+03 0.  0.
        -24    2    4    4    0    0  0.86687042773E+01  0.33335219668E+03 -0.83149447942E+03  0.89962996045E+03  0.82171545995E+02 0.  0.
         24    2    4    4    0    0 -0.25534257546E+03 -0.43407368018E+03 -0.37758833369E+03  0.63467513843E+03  0.81362097651E+02 0.  0.
         11    1    3    3    0    0  0.14948765625E+03  0.13450387842E+02 -0.16919909446E+03  0.22617649275E+03  0.00000000000E+00 0. -1.
        -11    1    3    3    0    0  0.97186214931E+02  0.87271095652E+02 -0.10670072144E+03  0.16866074963E+03  0.00000000000E+00 0.  1.
          4    1    6    6  502    0 -0.17272446854E+03 -0.35498949464E+03 -0.30886601057E+03  0.50124793847E+03  0.00000000000E+00 0. -1.
          1    1    5    5  503    0  0.26096993514E+02  0.56135452930E+02 -0.20901282140E+03  0.21798761813E+03  0.00000000000E+00 0. -1.
         -2    1    5    5    0  503 -0.17428289237E+02  0.27721674375E+03 -0.62248165801E+03  0.68164234232E+03  0.00000000000E+00 0.  1.
         -3    1    6    6    0  502 -0.82618106916E+02 -0.79084185540E+02 -0.68722323113E+02  0.13342719995E+03  0.00000000000E+00 0.  1.
<mgrwt>
<rscale>  0 0.12314287E+04</rscale>
<asrwt>0</asrwt>
<pdfrwt beam="1">  1        1 0.26262500E+00 0.12314287E+04</pdfrwt>
<pdfrwt beam="2">  1       -1 0.34166131E-01 0.12314287E+04</pdfrwt>
<totfact> 0.37723857E+01</totfact>
</mgrwt>
</event>
<event>
12    1  0.1536832E-007  0.1222874E+04  0.7818608E-02  0.9093068E-01
          2   -1    0    0  501    0  0.00000000000E+00  0.00000000000E+00  0.16499233217E+04  0.16499233217E+04  0.00000000000E+00 0. -1.
         -2   -1    0    0    0  501 -0.00000000000E+00 -0.00000000000E+00 -0.22658929281E+03  0.22658929281E+03  0.00000000000E+00 0.  1.
         23    2    1    2    0    0  0.18307630871E+03  0.18764365967E+03  0.38729409521E+03  0.47641673032E+03  0.90824594228E+02 0.  0.
        254    2    1    2    0    0 -0.18307630871E+03 -0.18764365967E+03  0.10360399337E+04  0.14000958842E+04  0.90452344521E+03 0.  0.
        -24    2    4    4    0    0  0.31668654287E+03 -0.22658143731E+03  0.26849571189E+03  0.47980524256E+03  0.80582934383E+02 0.  0.
         24    2    4    4    0    0 -0.49976285159E+03  0.38937777638E+02  0.76754422182E+03  0.92029064166E+03  0.80818774596E+02 0.  0.
         13    1    3    3    0    0  0.59907858178E+02  0.94135946328E+01  0.91399437409E+02  0.10968784980E+03  0.00000000000E+00 0. -1.
        -13    1    3    3    0    0  0.12316845053E+03  0.17823006504E+03  0.29589465780E+03  0.36672888052E+03  0.00000000000E+00 0.  1.
          2    1    6    6  502    0 -0.19081770644E+03  0.48119115046E+02  0.33777170427E+03  0.39091760069E+03  0.00000000000E+00 0. -1.
          1    1    5    5  503    0  0.18919915902E+03 -0.17846780746E+03  0.19428017418E+03  0.32464113442E+03  0.00000000000E+00 0. -1.
         -2    1    5    5    0  503  0.12748738385E+03 -0.48113629846E+02  0.74215537708E+02  0.15516410814E+03  0.00000000000E+00 0.  1.
         -1    1    6    6    0  502 -0.30894514515E+03 -0.91813374075E+01  0.42977251755E+03  0.52937304097E+03  0.00000000000E+00 0.  1.
<mgrwt>
<rscale>  0 0.12228736E+04</rscale>
<asrwt>0</asrwt>
<pdfrwt beam="1">  1        2 0.25383435E+00 0.12228736E+04</pdfrwt>
<pdfrwt beam="2">  1       -2 0.34859892E-01 0.12228736E+04</pdfrwt>
<totfact> 0.79521276E+01</totfact>
</mgrwt>
</event>
<event>
12    1  0.1536832E-007  0.1817619E+04  0.7818608E-02  0.8696985E-01
          1   -1    0    0  501    0  0.00000000000E+00  0.00000000000E+00  0.26979583636E+04  0.26979583636E+04  0.00000000000E+00 0. -1.
         -1   -1    0    0    0  501 -0.00000000000E+00 -0.00000000000E+00 -0.30613338542E+03  0.30613338542E+03  0.00000000000E+00 0.  1.
         23    2    1    2    0    0 -0.14852275045E+03 -0.63217906167E+03  0.66427713924E+03  0.93372894369E+03  0.94213847921E+02 0.  0.
        254    2    1    2    0    0  0.14852275045E+03  0.63217906167E+03  0.17275478389E+04  0.20703628053E+04  0.93822771036E+03 0.  0.
        -24    2    4    4    0    0 -0.12570076303E+03  0.26329306777E+03  0.22937599959E+02  0.30320256716E+03  0.79257440536E+02 0.  0.
         24    2    4    4    0    0  0.27422351348E+03  0.36888599390E+03  0.17046102390E+04  0.17671602382E+04  0.76706119175E+02 0.  0.
         11    1    3    3    0    0 -0.67533917112E+02 -0.25813557975E+03  0.33935901244E+03  0.43169357977E+03  0.00000000000E+00 0. -1.
        -11    1    3    3    0    0 -0.80988833343E+02 -0.37404348193E+03  0.32491812680E+03  0.50203536392E+03  0.00000000000E+00 0.  1.
          4    1    6    6  502    0  0.24874210613E+03  0.29698600542E+03  0.14841562933E+04  0.15338817509E+04  0.00000000000E+00 0. -1.
          1    1    5    5  503    0 -0.13047541908E+03  0.20019534963E+03  0.21228823057E+02  0.23990138792E+03  0.00000000000E+00 0. -1.
         -2    1    5    5    0  503  0.47746560543E+01  0.63097718136E+02  0.17087769017E+01  0.63301179237E+02  0.00000000000E+00 0.  1.
         -3    1    6    6    0  502  0.25481407348E+02  0.71899988483E+02  0.22045394566E+03  0.23327848727E+03  0.00000000000E+00 0.  1.
<mgrwt>
<rscale>  0 0.18176195E+04</rscale>
<asrwt>0</asrwt>
<pdfrwt beam="1">  1        1 0.41507050E+00 0.18176195E+04</pdfrwt>
<pdfrwt beam="2">  1       -1 0.47097446E-01 0.18176195E+04</pdfrwt>
<totfact> 0.41779120E+00</totfact>
</mgrwt>
</event>
<event>
12    1  0.1536832E-007  0.2078964E+04  0.7818608E-02  0.8570567E-01
          2   -1    0    0  501    0  0.00000000000E+00  0.00000000000E+00  0.32234793559E+04  0.32234793559E+04  0.00000000000E+00 0. -1.
         -2   -1    0    0    0  501 -0.00000000000E+00 -0.00000000000E+00 -0.33520401273E+03  0.33520401273E+03  0.00000000000E+00 0.  1.
         23    2    1    2    0    0  0.79102507838E+03  0.28022065930E+03  0.11320773510E+04  0.14121656673E+04  0.91479237257E+02 0.  0.
        254    2    1    2    0    0 -0.79102507838E+03 -0.28022065930E+03  0.17561979921E+04  0.21465177012E+04  0.90502075206E+03 0.  0.
        -24    2    4    4    0    0 -0.49795720384E+03 -0.35530230464E+02  0.16734789695E+04  0.17480465516E+04  0.76883750469E+02 0.  0.
         24    2    4    4    0    0 -0.29306787454E+03 -0.24469042884E+03  0.82719022644E+02  0.39847114965E+03  0.78578847917E+02 0.  0.
         11    1    3    3    0    0  0.14165669353E+03  0.28394029701E+02  0.24377811811E+03  0.28337362371E+03  0.00000000000E+00 0.  1.
        -11    1    3    3    0    0  0.64936838485E+03  0.25182662960E+03  0.88829923289E+03  0.11287920436E+04  0.00000000000E+00 0. -1.
          2    1    6    6  502    0 -0.44535078581E+02 -0.11693873607E+02 -0.60116099798E+01  0.46435539823E+02  0.00000000000E+00 0. -1.
          1    1    5    5  503    0 -0.19479508384E+03 -0.50423303536E+02  0.63481385510E+03  0.66594013609E+03  0.00000000000E+00 0. -1.
         -2    1    5    5    0  503 -0.30316211999E+03  0.14893073072E+02  0.10386651144E+04  0.10821064155E+04  0.00000000000E+00 0.  1.
         -1    1    6    6    0  502 -0.24853279596E+03 -0.23299655523E+03  0.88730632624E+02  0.35203560982E+03  0.00000000000E+00 0.  1.
<mgrwt>
<rscale>  0 0.20789644E+04</rscale>
<asrwt>0</asrwt>
<pdfrwt beam="1">  1        2 0.49591988E+00 0.20789644E+04</pdfrwt>
<pdfrwt beam="2">  1       -2 0.51569850E-01 0.20789644E+04</pdfrwt>
<totfact> 0.41164655E+00</totfact>
</mgrwt>
</event>
<event>
12    1  0.1536832E-007  0.1585147E+04  0.7818608E-02  0.8829725E-01
         -2   -1    0    0    0  501 -0.00000000000E+00  0.00000000000E+00  0.15983379173E+03  0.15983379173E+03  0.00000000000E+00 0.  1.
          2   -1    0    0  501    0  0.00000000000E+00 -0.00000000000E+00 -0.39301645071E+04  0.39301645071E+04  0.00000000000E+00 0. -1.
         23    2    1    2    0    0 -0.43331484174E+03  0.29436161359E+03 -0.10569611199E+04  0.11831892278E+04  0.91429907966E+02 0.  0.
        254    2    1    2    0    0  0.43331484174E+03 -0.29436161359E+03 -0.27133695954E+04  0.29068090710E+04  0.90152864755E+03 0.  0.
        -24    2    4    4    0    0  0.41663531309E+03 -0.58435375983E+03 -0.21500646169E+04  0.22678631531E+04  0.73287949029E+02 0.  0.
         24    2    4    4    0    0  0.16679528647E+02  0.28999214623E+03 -0.56330497846E+03  0.63894591789E+03  0.81029227299E+02 0.  0.
         13    1    3    3    0    0 -0.30703675608E+03  0.21084375961E+03 -0.65249703961E+03  0.75131820639E+03  0.00000000000E+00 0. -1.
        -13    1    3    3    0    0 -0.12627808566E+03  0.83517853984E+02 -0.40446408032E+03  0.43187102139E+03  0.00000000000E+00 0.  1.
          2    1    6    6  502    0  0.13084209872E+02  0.58558462223E+01 -0.52502821950E+02  0.54424569779E+02  0.00000000000E+00 0. -1.
          1    1    5    5  503    0  0.11157879770E+03 -0.20749940157E+03 -0.64923470525E+03  0.69066021476E+03  0.00000000000E+00 0. -1.
         -2    1    5    5    0  503  0.30505651539E+03 -0.37685435826E+03 -0.15008299117E+04  0.15772029383E+04  0.00000000000E+00 0.  1.
         -1    1    6    6    0  502  0.35953187749E+01  0.28413630001E+03 -0.51080215651E+03  0.58452134811E+03  0.00000000000E+00 0.  1.
<mgrwt>
<rscale>  0 0.15851474E+04</rscale>
<asrwt>0</asrwt>
<pdfrwt beam="1">  1        2 0.60464063E+00 0.15851474E+04</pdfrwt>
<pdfrwt beam="2">  1       -2 0.24589817E-01 0.15851474E+04</pdfrwt>
<totfact> 0.56310196E+00</totfact>
</mgrwt>
</event>
<event>
12    1  0.1536832E-007  0.1969732E+04  0.7818608E-02  0.8620904E-01
         -2   -1    0    0    0  501 -0.00000000000E+00  0.00000000000E+00  0.41295522984E+03  0.41295522984E+03  0.00000000000E+00 0.  1.
          2   -1    0    0  501    0  0.00000000000E+00 -0.00000000000E+00 -0.23488275588E+04  0.23488275588E+04  0.00000000000E+00 0. -1.
         23    2    1    2    0    0  0.51374738438E+03 -0.20343364726E+02  0.46391573706E+02  0.52426667277E+03  0.91395506580E+02 0.  0.
        254    2    1    2    0    0 -0.51374738438E+03  0.20343364726E+02 -0.19822639027E+04  0.22375161159E+04  0.90153089882E+03 0.  0.
        -24    2    4    4    0    0  0.13971671858E+03 -0.24250913646E+03 -0.87721579451E+03  0.92454426214E+03  0.83325265130E+02 0.  0.
         24    2    4    4    0    0 -0.65346410295E+03  0.26285250119E+03 -0.11050481082E+04  0.13129718538E+04  0.81590416804E+02 0.  0.
         13    1    3    3    0    0  0.43433669561E+03 -0.57795978323E+01  0.69935046335E+01  0.43443144225E+03  0.00000000000E+00 0.  1.
        -13    1    3    3    0    0  0.79410688766E+02 -0.14563766894E+02  0.39398069072E+02  0.89835230523E+02  0.00000000000E+00 0. -1.
          2    1    6    6  502    0 -0.44242768826E+03  0.14712167376E+03 -0.67962533037E+03  0.82418301118E+03  0.00000000000E+00 0. -1.
          1    1    5    5  503    0  0.14199071653E+03 -0.18930235977E+03 -0.75537409781E+03  0.79157234327E+03  0.00000000000E+00 0. -1.
         -2    1    5    5    0  503 -0.22739979582E+01 -0.53206776697E+02 -0.12184169670E+03  0.13297191887E+03  0.00000000000E+00 0.  1.
         -1    1    6    6    0  502 -0.21103641469E+03  0.11573082743E+03 -0.42542277783E+03  0.48878884259E+03  0.00000000000E+00 0.  1.
<mgrwt>
<rscale>  0 0.19697316E+04</rscale>
<asrwt>0</asrwt>
<pdfrwt beam="1">  1        2 0.36135809E+00 0.19697316E+04</pdfrwt>
<pdfrwt beam="2">  1       -2 0.63531574E-01 0.19697316E+04</pdfrwt>
<totfact> 0.90840764E+00</totfact>
</mgrwt>
</event>
<event>
12    1  0.1571014E-007  0.2385047E+04  0.7818608E-02  0.8445123E-01
          1   -1    0    0  501    0  0.00000000000E+00  0.00000000000E+00  0.18445244172E+04  0.18445244172E+04  0.00000000000E+00 0. -1.
         -1   -1    0    0    0  501 -0.00000000000E+00 -0.00000000000E+00 -0.77099137007E+03  0.77099137007E+03  0.00000000000E+00 0.  1.
         23    2    1    2    0    0 -0.78600132649E+01 -0.62934642833E+03 -0.42288596806E+03  0.76371381464E+03  0.91035938175E+02 0.  0.
        254    2    1    2    0    0  0.78600132649E+01  0.62934642833E+03  0.14964190152E+04  0.18518019726E+04  0.89093320183E+03 0.  0.
        -24    2    4    4    0    0 -0.10696758525E+03 -0.74342124047E+02  0.91730740038E+03  0.92976517806E+03  0.77727754579E+02 0.  0.
         24    2    4    4    0    0  0.11482759852E+03  0.70368855238E+03  0.57911161479E+03  0.92203679455E+03  0.80116365278E+02 0.  0.
         11    1    3    3    0    0 -0.37403504678E+02 -0.45511965249E+03 -0.27330496198E+03  0.53219218567E+03  0.00000000000E+00 0. -1.
        -11    1    3    3    0    0  0.29543491413E+02 -0.17422677584E+03 -0.14958100608E+03  0.23152162898E+03  0.00000000000E+00 0.  1.
          2    1    6    6  502    0  0.86997081496E+01  0.88514233149E+01  0.19904518372E+01  0.12569586911E+02  0.00000000000E+00 0. -1.
          1    1    5    5  503    0 -0.13901455686E+02 -0.22163936015E+02  0.55264676866E+02  0.61144705731E+02  0.00000000000E+00 0. -1.
         -2    1    5    5    0  503 -0.93066129569E+02 -0.52178188032E+02  0.86204272352E+03  0.86862047233E+03  0.00000000000E+00 0.  1.
         -1    1    6    6    0  502  0.10612789037E+03  0.69483712906E+03  0.57712116295E+03  0.90946720764E+03  0.00000000000E+00 0.  1.
<mgrwt>
<rscale>  0 0.23850471E+04</rscale>
<asrwt>0</asrwt>
<pdfrwt beam="1">  1        1 0.28377299E+00 0.23850471E+04</pdfrwt>
<pdfrwt beam="2">  1       -1 0.11861406E+00 0.23850471E+04</pdfrwt>
<totfact> 0.21714030E+00</totfact>
</mgrwt>
</event>
<event>
12    1  0.1536832E-007  0.1855068E+04  0.7818608E-02  0.8677551E-01
          2   -1    0    0  501    0  0.00000000000E+00  0.00000000000E+00  0.44011382996E+04  0.44011382996E+04  0.00000000000E+00 0.  1.
         -2   -1    0    0    0  501 -0.00000000000E+00 -0.00000000000E+00 -0.19547646064E+03  0.19547646064E+03  0.00000000000E+00 0. -1.
         23    2    1    2    0    0 -0.33819277564E+03  0.30972596024E+03  0.29190760738E+04  0.29561404389E+04  0.86351871142E+02 0.  0.
        254    2    1    2    0    0  0.33819277564E+03 -0.30972596024E+03  0.12865857651E+04  0.16404743214E+04  0.90859701963E+03 0.  0.
        -24    2    4    4    0    0 -0.27698037587E+03 -0.14174064435E+03  0.20060433858E+03  0.37855600758E+03  0.79082307398E+02 0.  0.
         24    2    4    4    0    0  0.61517315151E+03 -0.16798531589E+03  0.10859814265E+04  0.12619183138E+04  0.80156716156E+02 0.  0.
         11    1    3    3    0    0 -0.56632173594E+02  0.14155724120E+02  0.34967695699E+03  0.35451595431E+03  0.00000000000E+00 0. -1.
        -11    1    3    3    0    0 -0.28156060204E+03  0.29557023612E+03  0.25693991169E+04  0.26016244846E+04  0.00000000000E+00 0.  1.
          2    1    6    6  502    0  0.95909054996E+01 -0.77196564293E+01  0.48026934244E+02  0.49579884798E+02  0.00000000000E+00 0. -1.
          1    1    5    5  503    0 -0.74024905881E+02 -0.64237484259E+02  0.96893361602E+02  0.13782040704E+03  0.00000000000E+00 0. -1.
         -2    1    5    5    0  503 -0.20295546999E+03 -0.77503160087E+02  0.10371097697E+03  0.24073560054E+03  0.00000000000E+00 0.  1.
         -1    1    6    6    0  502  0.60558224601E+03 -0.16026565946E+03  0.10379544923E+04  0.12123384290E+04  0.00000000000E+00 0.  1.
<mgrwt>
<rscale>  0 0.18550676E+04</rscale>
<asrwt>0</asrwt>
<pdfrwt beam="1">  1        2 0.67709813E+00 0.18550676E+04</pdfrwt>
<pdfrwt beam="2">  1       -2 0.30073305E-01 0.18550676E+04</pdfrwt>
<totfact> 0.14973255E+00</totfact>
</mgrwt>
</event>
<event>
12    1  0.1536832E-007  0.1273040E+04  0.7818608E-02  0.9051222E-01
         -1   -1    0    0    0  501 -0.00000000000E+00  0.00000000000E+00  0.53877899463E+03  0.53877899463E+03  0.00000000000E+00 0.  1.
          1   -1    0    0  501    0  0.00000000000E+00 -0.00000000000E+00 -0.75199197378E+03  0.75199197378E+03  0.00000000000E+00 0. -1.
         23    2    1    2    0    0 -0.39712538998E+02  0.76094845455E+02  0.28489518820E+03  0.31147362700E+03  0.92103424467E+02 0.  0.
        254    2    1    2    0    0  0.39712538998E+02 -0.76094845455E+02 -0.49810816735E+03  0.97929734142E+03  0.83877531274E+03 0.  0.
        -24    2    4    4    0    0  0.11111309987E+03  0.35142500948E+03 -0.34823277107E+03  0.51332540245E+03  0.79945279414E+02 0.  0.
         24    2    4    4    0    0 -0.71400560868E+02 -0.42751985493E+03 -0.14987539627E+03  0.46597193897E+03  0.82437534182E+02 0.  0.
         11    1    3    3    0    0 -0.19045514217E+02 -0.16824538233E+02  0.29616236228E+02  0.39024583878E+02  0.00000000000E+00 0. -1.
        -11    1    3    3    0    0 -0.20667024781E+02  0.92919383688E+02  0.25527895197E+03  0.27244904312E+03  0.00000000000E+00 0.  1.
          2    1    6    6  502    0 -0.84906154268E+02 -0.28803051050E+03 -0.89142643062E+02  0.31323639767E+03  0.00000000000E+00 0. -1.
          3    1    5    5  503    0  0.99371121757E+02  0.21447997297E+03 -0.25215129100E+03  0.34562487207E+03  0.00000000000E+00 0. -1.
         -4    1    5    5    0  503  0.11741978108E+02  0.13694503651E+03 -0.96081480077E+02  0.16770053038E+03  0.00000000000E+00 0.  1.
         -1    1    6    6    0  502  0.13505593400E+02 -0.13948934443E+03 -0.60732753210E+02  0.15273554130E+03  0.00000000000E+00 0.  1.
<mgrwt>
<rscale>  0 0.12730396E+04</rscale>
<asrwt>0</asrwt>
<pdfrwt beam="1">  1        1 0.11569107E+00 0.12730396E+04</pdfrwt>
<pdfrwt beam="2">  1       -1 0.82889077E-01 0.12730396E+04</pdfrwt>
<totfact> 0.34730011E+01</totfact>
</mgrwt>
</event>
<event>
12    1  0.1536832E-007  0.2269739E+04  0.7818608E-02  0.8489949E-01
          2   -1    0    0  501    0  0.00000000000E+00  0.00000000000E+00  0.18558413734E+04  0.18558413734E+04  0.00000000000E+00 0. -1.
         -2   -1    0    0    0  501 -0.00000000000E+00 -0.00000000000E+00 -0.69398672701E+03  0.69398672701E+03  0.00000000000E+00 0.  1.
         23    2    1    2    0    0  0.16331909530E+01  0.82698956295E+03  0.83770148894E+03  0.11809091676E+04  0.94277637962E+02 0.  0.
        254    2    1    2    0    0 -0.16331909530E+01 -0.82698956295E+03  0.32415315744E+03  0.13689189328E+04  0.10416090296E+04 0.  0.
        -24    2    4    4    0    0  0.17498327929E+03 -0.26477516609E+03 -0.34363454924E+03  0.47446577909E+03  0.79423142049E+02 0.  0.
         24    2    4    4    0    0 -0.17661647024E+03 -0.56221439687E+03  0.66778770668E+03  0.89445315369E+03  0.82629397667E+02 0.  0.
         13    1    3    3    0    0  0.18599372681E+02  0.76943012389E+03  0.75004021465E+03  0.10746762191E+04  0.00000000000E+00 0. -1.
        -13    1    3    3    0    0 -0.16966181728E+02  0.57559439064E+02  0.87661274286E+02  0.10623294855E+03  0.00000000000E+00 0.  1.
          4    1    6    6  502    0 -0.25173187267E+02 -0.20770156486E+03  0.22057449050E+03  0.30401765617E+03  0.00000000000E+00 0. -1.
          3    1    5    5  503    0 -0.13175533165E+01 -0.21630194861E+02 -0.49746227104E+02  0.54261297327E+02  0.00000000000E+00 0. -1.
         -4    1    5    5    0  503  0.17630083260E+03 -0.24314497123E+03 -0.29388832214E+03  0.42020448177E+03  0.00000000000E+00 0.  1.
         -1    1    6    6    0  502 -0.15144328297E+03 -0.35451283201E+03  0.44721321618E+03  0.59043549753E+03  0.00000000000E+00 0.  1.
<mgrwt>
<rscale>  0 0.22697394E+04</rscale>
<asrwt>0</asrwt>
<pdfrwt beam="1">  1        2 0.28551406E+00 0.22697394E+04</pdfrwt>
<pdfrwt beam="2">  1       -2 0.10676719E+00 0.22697394E+04</pdfrwt>
<totfact> 0.51563434E+00</totfact>
</mgrwt>
</event>
<event>
12    1  0.1536832E-007  0.2096346E+04  0.7818608E-02  0.8562855E-01
          2   -1    0    0  501    0  0.00000000000E+00  0.00000000000E+00  0.10166198656E+04  0.10166198656E+04  0.00000000000E+00 0. -1.
         -2   -1    0    0    0  501 -0.00000000000E+00 -0.00000000000E+00 -0.10807055647E+04  0.10807055647E+04  0.00000000000E+00 0.  1.
         23    2    1    2    0    0  0.74106136129E+03  0.26038542087E+03 -0.37048204669E+03  0.87308507959E+03  0.89711207100E+02 0.  0.
        254    2    1    2    0    0 -0.74106136129E+03 -0.26038542087E+03  0.30639634749E+03  0.12242403507E+04  0.88764475211E+03 0.  0.
        -24    2    4    4    0    0 -0.93114700084E+03 -0.16557776820E+03  0.18606852764E+03  0.96717745296E+03  0.79749570784E+02 0.  0.
         24    2    4    4    0    0  0.19008563955E+03 -0.94807652666E+02  0.12032781986E+03  0.25706289775E+03  0.80507812055E+02 0.  0.
         11    1    3    3    0    0  0.15394021874E+03  0.58761859442E+02 -0.38905236999E+02  0.16930494540E+03  0.00000000000E+00 0. -1.
        -11    1    3    3    0    0  0.58712114255E+03  0.20162356142E+03 -0.33157680969E+03  0.70378013419E+03  0.00000000000E+00 0.  1.
          4    1    6    6  502    0  0.65149350704E+02 -0.43355210862E+02  0.88713907775E+02  0.11829737799E+03  0.00000000000E+00 0. -1.
          3    1    5    5  503    0 -0.25287309215E+03 -0.11274828452E+02  0.37538807347E+02  0.25589272078E+03  0.00000000000E+00 0. -1.
         -4    1    5    5    0  503 -0.67827390869E+03 -0.15430293975E+03  0.14852972029E+03  0.71128473218E+03  0.00000000000E+00 0.  1.
         -3    1    6    6    0  502  0.12493628885E+03 -0.51452441803E+02  0.31613912081E+02  0.13876551976E+03  0.00000000000E+00 0.  1.
<mgrwt>
<rscale>  0 0.20963461E+04</rscale>
<asrwt>0</asrwt>
<pdfrwt beam="1">  1        2 0.15640306E+00 0.20963461E+04</pdfrwt>
<pdfrwt beam="2">  1       -2 0.16626239E+00 0.20963461E+04</pdfrwt>
<totfact> 0.51354105E+00</totfact>
</mgrwt>
</event>
<event>
12    1  0.1536832E-007  0.2043761E+04  0.7818608E-02  0.8586430E-01
         -1   -1    0    0    0  501 -0.00000000000E+00  0.00000000000E+00  0.87173146011E+03  0.87173146011E+03  0.00000000000E+00 0.  1.
          1   -1    0    0  501    0  0.00000000000E+00 -0.00000000000E+00 -0.11978916161E+04  0.11978916161E+04  0.00000000000E+00 0. -1.
         23    2    1    2    0    0 -0.47321959339E+02 -0.72028398094E+03 -0.52552389802E+03  0.89742262873E+03  0.90242041920E+02 0.  0.
        254    2    1    2    0    0  0.47321959339E+02  0.72028398094E+03  0.19936374201E+03  0.11722004475E+04  0.90180907430E+03 0.  0.
        -24    2    4    4    0    0 -0.13856864146E+03  0.26423599634E+03  0.50136745656E+03  0.58884255658E+03  0.79651112878E+02 0.  0.
         24    2    4    4    0    0  0.18589060080E+03  0.45604798460E+03 -0.30200371456E+03  0.58335789093E+03  0.81025339110E+02 0.  0.
         13    1    3    3    0    0  0.25207409282E+02 -0.11952341437E+03 -0.95823360954E+02  0.15525262178E+03  0.00000000000E+00 0.  1.
        -13    1    3    3    0    0 -0.72529368621E+02 -0.60076056657E+03 -0.42970053707E+03  0.74217000695E+03  0.00000000000E+00 0. -1.
          4    1    6    6  502    0  0.18382688560E+03  0.37946136003E+03 -0.24298098001E+03  0.48664463859E+03  0.00000000000E+00 0. -1.
          1    1    5    5  503    0 -0.13618730930E+03  0.18598180379E+03  0.37209783994E+03  0.43771339600E+03  0.00000000000E+00 0. -1.
         -2    1    5    5    0  503 -0.23813321642E+01  0.78254192552E+02  0.12926961663E+03  0.15112916058E+03  0.00000000000E+00 0.  1.
         -3    1    6    6    0  502  0.20637151975E+01  0.76586624577E+02 -0.59022734548E+02  0.96713252340E+02  0.00000000000E+00 0.  1.
<mgrwt>
<rscale>  0 0.20437611E+04</rscale>
<asrwt>0</asrwt>
<pdfrwt beam="1">  1        1 0.18429102E+00 0.20437611E+04</pdfrwt>
<pdfrwt beam="2">  1       -1 0.13411253E+00 0.20437611E+04</pdfrwt>
<totfact> 0.46434459E+00</totfact>
</mgrwt>
</event>
<event>
12    1  0.1536832E-007  0.1808856E+04  0.7818608E-02  0.8701604E-01
         -1   -1    0    0    0  501 -0.00000000000E+00  0.00000000000E+00  0.50885975448E+03  0.50885975448E+03  0.00000000000E+00 0.  1.
          1   -1    0    0  501    0  0.00000000000E+00 -0.00000000000E+00 -0.16074965245E+04  0.16074965245E+04  0.00000000000E+00 0. -1.
         23    2    1    2    0    0  0.14930414412E+03  0.30127502381E+03  0.27095508679E+03  0.44160269919E+03  0.92400851993E+02 0.  0.
        254    2    1    2    0    0 -0.14930414412E+03 -0.30127502381E+03 -0.13695918568E+04  0.16747535798E+04  0.90330467250E+03 0.  0.
        -24    2    4    4    0    0 -0.26404199001E+03  0.22875620947E+03 -0.83631847702E+03  0.90986166023E+03  0.79825245880E+02 0.  0.
         24    2    4    4    0    0  0.11473784588E+03 -0.53003123329E+03 -0.53327337978E+03  0.76489191956E+03  0.81125023810E+02 0.  0.
         11    1    3    3    0    0  0.93256531951E+02  0.16354314996E+03  0.20678517373E+03  0.27964844130E+03  0.00000000000E+00 0. -1.
        -11    1    3    3    0    0  0.56047612173E+02  0.13773187386E+03  0.64169913069E+02  0.16195425789E+03  0.00000000000E+00 0.  1.
          2    1    6    6  502    0  0.27736914796E+02 -0.17803950535E+03 -0.12756516738E+03  0.22077199514E+03  0.00000000000E+00 0. -1.
          1    1    5    5  503    0 -0.11939583333E+03  0.10282912257E+03 -0.48011247245E+03  0.50530899425E+03  0.00000000000E+00 0. -1.
         -2    1    5    5    0  503 -0.14464615667E+03  0.12592708690E+03 -0.35620600458E+03  0.40455266598E+03  0.00000000000E+00 0.  1.
         -3    1    6    6    0  502  0.87000931084E+02 -0.35199172794E+03 -0.40570821240E+03  0.54411992442E+03  0.00000000000E+00 0.  1.
<mgrwt>
<rscale>  0 0.18088563E+04</rscale>
<asrwt>0</asrwt>
<pdfrwt beam="1">  1        1 0.24730715E+00 0.18088563E+04</pdfrwt>
<pdfrwt beam="2">  1       -1 0.78286117E-01 0.18088563E+04</pdfrwt>
<totfact> 0.84922416E+00</totfact>
</mgrwt>
</event>
<event>
12    1  0.1536832E-007  0.1456735E+04  0.7818608E-02  0.8913745E-01
         -2   -1    0    0    0  501 -0.00000000000E+00  0.00000000000E+00  0.21116772214E+03  0.21116772214E+03  0.00000000000E+00 0.  1.
          2   -1    0    0  501    0  0.00000000000E+00 -0.00000000000E+00 -0.25123111552E+04  0.25123111552E+04  0.00000000000E+00 0. -1.
         23    2    1    2    0    0  0.56035986336E+02 -0.10821439370E+03 -0.15100399040E+04  0.15176860009E+04  0.91103780305E+02 0.  0.
        254    2    1    2    0    0 -0.56035986336E+02  0.10821439370E+03 -0.79110352901E+03  0.12057928764E+04  0.90179891353E+03 0.  0.
        -24    2    4    4    0    0 -0.50657963428E+02  0.16890996160E+03 -0.97616320591E+03  0.99512472151E+03  0.79257822244E+02 0.  0.
         24    2    4    4    0    0 -0.53780229085E+01 -0.60695567904E+02  0.18505967691E+03  0.21066815492E+03  0.80131843765E+02 0.  0.
         11    1    3    3    0    0 -0.17098940804E+02 -0.64183662420E+02 -0.60922242730E+03  0.61283267066E+03  0.00000000000E+00 0.  1.
        -11    1    3    3    0    0  0.73134927141E+02 -0.44030731281E+02 -0.90081747673E+03  0.90485333024E+03  0.00000000000E+00 0. -1.
          2    1    6    6  502    0 -0.49331660267E+01  0.17677394003E+02  0.16091633955E+02  0.24408340155E+02  0.00000000000E+00 0. -1.
          3    1    5    5  503    0 -0.94592635510E+01  0.98281518775E+01 -0.16111066459E+02  0.21110108922E+02  0.00000000000E+00 0. -1.
         -4    1    5    5    0  503 -0.41198699877E+02  0.15908180973E+03 -0.96005213945E+03  0.97401461258E+03  0.00000000000E+00 0.  1.
         -1    1    6    6    0  502 -0.44485688180E+00 -0.78372961907E+02  0.16896804295E+03  0.18625981476E+03  0.00000000000E+00 0.  1.
<mgrwt>
<rscale>  0 0.14567347E+04</rscale>
<asrwt>0</asrwt>
<pdfrwt beam="1">  1        2 0.38650944E+00 0.14567347E+04</pdfrwt>
<pdfrwt beam="2">  1       -2 0.32487339E-01 0.14567347E+04</pdfrwt>
<totfact> 0.29397680E+01</totfact>
</mgrwt>
</event>
<event>
12    1  0.1536832E-007  0.2333033E+04  0.7818608E-02  0.8465009E-01
          2   -1    0    0  501    0  0.00000000000E+00  0.00000000000E+00  0.26080689218E+04  0.26080689218E+04  0.00000000000E+00 0. -1.
         -2   -1    0    0    0  501 -0.00000000000E+00 -0.00000000000E+00 -0.52175046429E+03  0.52175046429E+03  0.00000000000E+00 0.  1.
         23    2    1    2    0    0  0.23602535351E+02  0.98986517815E+02  0.22013942761E+04  0.22058624456E+04  0.96627942972E+02 0.  0.
        254    2    1    2    0    0 -0.23602535351E+02 -0.98986517815E+02 -0.11507581868E+03  0.92395694047E+03  0.91109745550E+03 0.  0.
        -24    2    4    4    0    0 -0.24087333266E+03  0.29516624041E+03 -0.23027503451E+03  0.45236232189E+03  0.80386608878E+02 0.  0.
         24    2    4    4    0    0  0.21727079731E+03 -0.39415275823E+03  0.11519921583E+03  0.47159461858E+03  0.81040907998E+02 0.  0.
         13    1    3    3    0    0  0.59618751467E+02  0.43072794575E+02  0.10875671372E+04  0.10900513470E+04  0.00000000000E+00 0.  1.
        -13    1    3    3    0    0 -0.36016216115E+02  0.55913723240E+02  0.11138271390E+04  0.11158110986E+04  0.00000000000E+00 0. -1.
          2    1    6    6  502    0  0.18246036299E+03 -0.33361612509E+03  0.65424164337E+02  0.38583911707E+03  0.00000000000E+00 0. -1.
          1    1    5    5  503    0 -0.20101897902E+03  0.27618660651E+03 -0.18240400278E+03  0.38724526049E+03  0.00000000000E+00 0. -1.
         -2    1    5    5    0  503 -0.39854353640E+02  0.18979633897E+02 -0.47871031726E+02  0.65117061401E+02  0.00000000000E+00 0.  1.
         -1    1    6    6    0  502  0.34810434315E+02 -0.60536633138E+02  0.49775051489E+02  0.85755501512E+02  0.00000000000E+00 0.  1.
<mgrwt>
<rscale>  0 0.23330334E+04</rscale>
<asrwt>0</asrwt>
<pdfrwt beam="1">  1        2 0.40124137E+00 0.23330334E+04</pdfrwt>
<pdfrwt beam="2">  1       -2 0.80269303E-01 0.23330334E+04</pdfrwt>
<totfact> 0.37339693E+00</totfact>
</mgrwt>
</event>
<event>
12    1  0.1536832E-007  0.2410470E+04  0.7818608E-02  0.8435594E-01
         -2   -1    0    0    0  501 -0.00000000000E+00  0.00000000000E+00  0.93187758331E+03  0.93187758331E+03  0.00000000000E+00 0.  1.
          2   -1    0    0  501    0  0.00000000000E+00 -0.00000000000E+00 -0.15587797371E+04  0.15587797371E+04  0.00000000000E+00 0. -1.
         23    2    1    2    0    0  0.18150214226E+03  0.59329407280E+01 -0.13257145196E+04  0.13413451905E+04  0.93325800340E+02 0.  0.
        254    2    1    2    0    0 -0.18150214226E+03 -0.59329407280E+01  0.69881236585E+03  0.11493121299E+04  0.89420435130E+03 0.  0.
        -24    2    4    4    0    0  0.21451463624E+02  0.33305329444E+03  0.66071462178E+03  0.74454954220E+03  0.80159510507E+02 0.  0.
         24    2    4    4    0    0 -0.20295360588E+03 -0.33898623517E+03  0.38097744070E+02  0.40476258772E+03  0.79243173447E+02 0.  0.
         13    1    3    3    0    0  0.39843777511E+02  0.20118052622E+02 -0.60865003768E+03  0.61028446729E+03  0.00000000000E+00 0.  1.
        -13    1    3    3    0    0  0.14165836474E+03 -0.14185111894E+02 -0.71706448195E+03  0.73106072317E+03  0.00000000000E+00 0. -1.
          2    1    6    6  502    0 -0.18177425524E+03 -0.31639502252E+03  0.55734096778E+02  0.36912596724E+03  0.00000000000E+00 0. -1.
          3    1    5    5  503    0 -0.19473576607E+02  0.24887249201E+03  0.48031423579E+03  0.54131183487E+03  0.00000000000E+00 0. -1.
         -4    1    5    5    0  503  0.40925040231E+02  0.84180802429E+02  0.18040038600E+03  0.20323770734E+03  0.00000000000E+00 0.  1.
         -1    1    6    6    0  502 -0.21179350643E+02 -0.22591212648E+02 -0.17636352708E+02  0.35636620483E+02  0.00000000000E+00 0.  1.
<mgrwt>
<rscale>  0 0.24104704E+04</rscale>
<asrwt>0</asrwt>
<pdfrwt beam="1">  1        2 0.23981226E+00 0.24104704E+04</pdfrwt>
<pdfrwt beam="2">  1       -2 0.14336578E+00 0.24104704E+04</pdfrwt>
<totfact> 0.35678138E+00</totfact>
</mgrwt>
</event>
<event>
12    1  0.1536832E-007  0.1220694E+04  0.7818608E-02  0.9094934E-01
          2   -1    0    0  501    0  0.00000000000E+00  0.00000000000E+00  0.58994257252E+03  0.58994257252E+03  0.00000000000E+00 0. -1.
         -2   -1    0    0    0  501 -0.00000000000E+00 -0.00000000000E+00 -0.63145704410E+03  0.63145704410E+03  0.00000000000E+00 0.  1.
         23    2    1    2    0    0  0.77260396383E+02 -0.25173429286E+03 -0.15637085305E+02  0.27951519641E+03  0.92438647437E+02 0.  0.
        254    2    1    2    0    0 -0.77260396383E+02  0.25173429286E+03 -0.25877386277E+02  0.94188442020E+03  0.90395646956E+03 0.  0.
        -24    2    4    4    0    0 -0.10657741651E+03  0.19584800749E+03 -0.44848733280E+03  0.50739471384E+03  0.81199262316E+02 0.  0.
         24    2    4    4    0    0  0.29317020132E+02  0.55886285365E+02  0.42260994652E+03  0.43448970636E+03  0.78736100186E+02 0.  0.
         11    1    3    3    0    0  0.44003888882E+02 -0.59358440754E+02  0.28779494522E+02  0.79297074539E+02  0.00000000000E+00 0. -1.
        -11    1    3    3    0    0  0.33256507501E+02 -0.19237585210E+03 -0.44416579827E+02  0.20021812188E+03  0.00000000000E+00 0.  1.
          4    1    6    6  502    0  0.36329584097E+02  0.70888413449E+02  0.38837898128E+03  0.39646341438E+03  0.00000000000E+00 0. -1.
          1    1    5    5  503    0 -0.82166139583E+02  0.97652832733E+02 -0.31516282805E+03  0.34002199697E+03  0.00000000000E+00 0. -1.
         -2    1    5    5    0  503 -0.24411276931E+02  0.98195174760E+02 -0.13332450475E+03  0.16737271687E+03  0.00000000000E+00 0.  1.
         -3    1    6    6    0  502 -0.70125639648E+01 -0.15002128083E+02  0.34230965244E+02  0.38026291982E+02  0.00000000000E+00 0.  1.
<mgrwt>
<rscale>  0 0.12206939E+04</rscale>
<asrwt>0</asrwt>
<pdfrwt beam="1">  1        2 0.90760396E-01 0.12206939E+04</pdfrwt>
<pdfrwt beam="2">  1       -2 0.97147238E-01 0.12206939E+04</pdfrwt>
<totfact> 0.44129813E+01</totfact>
</mgrwt>
</event>
<event>
12    1  0.1536832E-007  0.1200880E+04  0.7818608E-02  0.9112087E-01
         -2   -1    0    0    0  501 -0.00000000000E+00  0.00000000000E+00  0.47652830896E+03  0.47652830896E+03  0.00000000000E+00 0.  1.
          2   -1    0    0  501    0  0.00000000000E+00 -0.00000000000E+00 -0.75657207578E+03  0.75657207578E+03  0.00000000000E+00 0. -1.
         23    2    1    2    0    0  0.26567850566E+02 -0.15692009721E+03  0.11836158424E+03  0.21794416449E+03  0.90335079669E+02 0.  0.
        254    2    1    2    0    0 -0.26567850566E+02  0.15692009721E+03 -0.39840535106E+03  0.10151562203E+04  0.92004649892E+03 0.  0.
        -24    2    4    4    0    0 -0.35754255948E+03 -0.24092896773E+02 -0.49451676405E+03  0.61580850342E+03  0.79095723357E+02 0.  0.
         24    2    4    4    0    0  0.33097470891E+03  0.18101299398E+03  0.96111412988E+02  0.39934771683E+03  0.89057471927E+02 0.  0.
         11    1    3    3    0    0  0.29920544679E+02 -0.11448422922E+03  0.12798226314E+03  0.17430243088E+03  0.00000000000E+00 0.  1.
        -11    1    3    3    0    0 -0.33526941126E+01 -0.42435867984E+02 -0.96206788961E+01  0.43641733602E+02  0.00000000000E+00 0. -1.
          2    1    6    6  502    0  0.24241984919E+03  0.12314970894E+03  0.27572045593E+02  0.27330102779E+03  0.00000000000E+00 0. -1.
          3    1    5    5  503    0 -0.32411497405E+03 -0.63374200385E+01 -0.40604348774E+03  0.51957866896E+03  0.00000000000E+00 0. -1.
         -4    1    5    5    0  503 -0.33427585427E+02 -0.17755476735E+02 -0.88473276307E+02  0.96229834470E+02  0.00000000000E+00 0.  1.
         -1    1    6    6    0  502  0.88554859717E+02  0.57863285040E+02  0.68539367395E+02  0.12604668904E+03  0.00000000000E+00 0.  1.
<mgrwt>
<rscale>  0 0.12008797E+04</rscale>
<asrwt>0</asrwt>
<pdfrwt beam="1">  1        2 0.11639570E+00 0.12008797E+04</pdfrwt>
<pdfrwt beam="2">  1       -2 0.73312048E-01 0.12008797E+04</pdfrwt>
<totfact> 0.61465454E+01</totfact>
</mgrwt>
</event>
<event>
12    1  0.1536832E-007  0.1475913E+04  0.7818608E-02  0.8900631E-01
         -2   -1    0    0    0  501 -0.00000000000E+00  0.00000000000E+00  0.40993633615E+03  0.40993633615E+03  0.00000000000E+00 0.  1.
          2   -1    0    0  501    0  0.00000000000E+00 -0.00000000000E+00 -0.13284492979E+04  0.13284492979E+04  0.00000000000E+00 0. -1.
         23    2    1    2    0    0  0.32794715925E+03  0.49964207267E+02 -0.66866389873E+03  0.75234903273E+03  0.94190744327E+02 0.  0.
        254    2    1    2    0    0 -0.32794715925E+03 -0.49964207267E+02 -0.24984906306E+03  0.98603660136E+03  0.89431418620E+03 0.  0.
        -24    2    4    4    0    0  0.12904757492E+02 -0.40264183012E+03  0.36649901806E+02  0.41233010454E+03  0.79911974574E+02 0.  0.
         24    2    4    4    0    0 -0.34085191674E+03  0.35267762285E+03 -0.28649896487E+03  0.57370649682E+03  0.80597473976E+02 0.  0.
         11    1    3    3    0    0  0.19604301486E+03  0.52287656913E+02 -0.48925041310E+03  0.52965349943E+03  0.00000000000E+00 0. -1.
        -11    1    3    3    0    0  0.13190414439E+03 -0.23234496457E+01 -0.17941348564E+03  0.22269553331E+03  0.00000000000E+00 0.  1.
          4    1    6    6  502    0 -0.89683411486E+02  0.70521309649E+02 -0.32955570816E+02  0.11875369071E+03  0.00000000000E+00 0. -1.
          1    1    5    5  503    0  0.36104952364E+02 -0.12257750347E+03  0.29849308950E+02  0.13122420961E+03  0.00000000000E+00 0. -1.
         -2    1    5    5    0  503 -0.23200194871E+02 -0.28006432665E+03  0.68005928568E+01  0.28110589493E+03  0.00000000000E+00 0.  1.
         -3    1    6    6    0  502 -0.25116850525E+03  0.28215631320E+03 -0.25354339405E+03  0.45495280610E+03  0.00000000000E+00 0.  1.
<mgrwt>
<rscale>  0 0.14759128E+04</rscale>
<asrwt>0</asrwt>
<pdfrwt beam="1">  1        2 0.20437681E+00 0.14759128E+04</pdfrwt>
<pdfrwt beam="2">  1       -2 0.63067130E-01 0.14759128E+04</pdfrwt>
<totfact> 0.35874340E+01</totfact>
</mgrwt>
</event>
<event>
12    1  0.1536832E-007  0.1857617E+04  0.7818608E-02  0.8676245E-01
          1   -1    0    0  501    0  0.00000000000E+00  0.00000000000E+00  0.56399621569E+03  0.56399621569E+03  0.00000000000E+00 0. -1.
         -1   -1    0    0    0  501 -0.00000000000E+00 -0.00000000000E+00 -0.15295944500E+04  0.15295944500E+04  0.00000000000E+00 0.  1.
         23    2    1    2    0    0  0.15215175194E+03  0.22679435096E+03  0.36520618882E+03  0.46489713807E+03  0.90376741433E+02 0.  0.
        254    2    1    2    0    0 -0.15215175194E+03 -0.22679435096E+03 -0.13308044232E+04  0.16286935276E+04  0.89834089358E+03 0.  0.
        -24    2    4    4    0    0  0.34469153907E+03 -0.30621178369E+02 -0.78126000955E+03  0.85824196589E+03  0.80387535148E+02 0.  0.
         24    2    4    4    0    0 -0.49684329101E+03 -0.19617317259E+03 -0.54954441360E+03  0.77045156176E+03  0.79116224853E+02 0.  0.
         13    1    3    3    0    0  0.61425643332E+02  0.75736143609E+02  0.20384086982E+03  0.22596498250E+03  0.00000000000E+00 0. -1.
        -13    1    3    3    0    0  0.90726108605E+02  0.15105820735E+03  0.16136531900E+03  0.23893215557E+03  0.00000000000E+00 0.  1.
          4    1    6    6  502    0 -0.42846086358E+03 -0.15114792679E+03 -0.43001307196E+03  0.62556826122E+03  0.00000000000E+00 0. -1.
          3    1    5    5  503    0  0.17262065311E+03 -0.43285588096E+02 -0.46653677938E+03  0.49932764647E+03  0.00000000000E+00 0. -1.
         -4    1    5    5    0  503  0.17207088596E+03  0.12664409728E+02 -0.31472323017E+03  0.35891431941E+03  0.00000000000E+00 0.  1.
         -3    1    6    6    0  502 -0.68382427432E+02 -0.45025245803E+02 -0.11953134164E+03  0.14488330054E+03  0.00000000000E+00 0.  1.
<mgrwt>
<rscale>  0 0.18576173E+04</rscale>
<asrwt>0</asrwt>
<pdfrwt beam="1">  1        1 0.86768650E-01 0.18576173E+04</pdfrwt>
<pdfrwt beam="2">  1       -1 0.23532222E+00 0.18576173E+04</pdfrwt>
<totfact> 0.30589055E+00</totfact>
</mgrwt>
</event>
<event>
12    1  0.1536832E-007  0.3547031E+04  0.7818608E-02  0.8102734E-01
          1   -1    0    0  501    0  0.00000000000E+00  0.00000000000E+00  0.17500270318E+04  0.17500270318E+04  0.00000000000E+00 0. -1.
         -1   -1    0    0    0  501 -0.00000000000E+00 -0.00000000000E+00 -0.17973192111E+04  0.17973192111E+04  0.00000000000E+00 0.  1.
         23    2    1    2    0    0  0.12936104895E+04 -0.29010107721E+03  0.97511722343E+03  0.16482620080E+04  0.91254117344E+02 0.  0.
        254    2    1    2    0    0 -0.12936104895E+04  0.29010107721E+03 -0.10224094027E+04  0.18990842350E+04  0.89644476191E+03 0.  0.
        -24    2    4    4    0    0 -0.75153076693E+03 -0.13605422485E+03 -0.91889849243E+03  0.11976347403E+04  0.81518624445E+02 0.  0.
         24    2    4    4    0    0 -0.54207972258E+03  0.42615530207E+03 -0.10351091030E+03  0.70144949463E+03  0.76538342399E+02 0.  0.
         13    1    3    3    0    0  0.91399427274E+03 -0.21861812571E+03  0.73892504647E+03  0.11954871977E+04  0.00000000000E+00 0. -1.
        -13    1    3    3    0    0  0.37961621676E+03 -0.71482951502E+02  0.23619217696E+03  0.45277481030E+03  0.00000000000E+00 0.  1.
          4    1    6    6  502    0 -0.11604622374E+03  0.11576135821E+03 -0.51316071768E+02  0.17175784501E+03  0.00000000000E+00 0. -1.
          1    1    5    5  503    0 -0.60242624536E+02  0.11133562461E+02 -0.76571988903E+02  0.98063242393E+02  0.00000000000E+00 0. -1.
         -2    1    5    5    0  503 -0.69128814239E+03 -0.14718778732E+03 -0.84232650352E+03  0.10995714979E+04  0.00000000000E+00 0.  1.
         -3    1    6    6    0  502 -0.42603349883E+03  0.31039394386E+03 -0.52194838530E+02  0.52969164962E+03  0.00000000000E+00 0.  1.
<mgrwt>
<rscale>  0 0.35470310E+04</rscale>
<asrwt>0</asrwt>
<pdfrwt beam="1">  1        1 0.26923493E+00 0.35470310E+04</pdfrwt>
<pdfrwt beam="2">  1       -1 0.27651065E+00 0.35470310E+04</pdfrwt>
<totfact> 0.16786207E-01</totfact>
</mgrwt>
</event>
<event>
12    1  0.1536832E-007  0.1689907E+04  0.7818608E-02  0.8767142E-01
          2   -1    0    0  501    0  0.00000000000E+00  0.00000000000E+00  0.30064186427E+04  0.30064186427E+04  0.00000000000E+00 0. -1.
         -2   -1    0    0    0  501 -0.00000000000E+00 -0.00000000000E+00 -0.23747394020E+03  0.23747394020E+03  0.00000000000E+00 0.  1.
         23    2    1    2    0    0 -0.52733171055E+02  0.40956145468E+03  0.18124491445E+04  0.18611446948E+04  0.91467485148E+02 0.  0.
        254    2    1    2    0    0  0.52733171055E+02 -0.40956145468E+03  0.95649555792E+03  0.13827478881E+04  0.90916807974E+03 0.  0.
        -24    2    4    4    0    0 -0.18007322346E+03 -0.50333381925E+03  0.97931909582E+03  0.11185806900E+04  0.79909757207E+02 0.  0.
         24    2    4    4    0    0  0.23280639451E+03  0.93772364564E+02 -0.22823537893E+02  0.26416719806E+03  0.79191672329E+02 0.  0.
         13    1    3    3    0    0 -0.58384299966E+02  0.37828708344E+03  0.17463078362E+04  0.17877642190E+04  0.00000000000E+00 0. -1.
        -13    1    3    3    0    0  0.56511289107E+01  0.31274371244E+02  0.66141308327E+02  0.73380475754E+02  0.00000000000E+00 0.  1.
          2    1    6    6  502    0  0.16756639502E+03  0.10377573957E+03 -0.19886799653E+02  0.19809943378E+03  0.00000000000E+00 0. -1.
          3    1    5    5  503    0  0.25146360549E+01 -0.54695099413E+02  0.77125739964E+02  0.94584655517E+02  0.00000000000E+00 0. -1.
         -4    1    5    5    0  503 -0.18258785951E+03 -0.44863871983E+03  0.90219335585E+03  0.10239960345E+04  0.00000000000E+00 0.  1.
         -1    1    6    6    0  502  0.65239999493E+02 -0.10003375006E+02 -0.29367382401E+01  0.66067764279E+02  0.00000000000E+00 0.  1.
<mgrwt>
<rscale>  0 0.16899066E+04</rscale>
<asrwt>0</asrwt>
<pdfrwt beam="1">  1        2 0.46252592E+00 0.16899066E+04</pdfrwt>
<pdfrwt beam="2">  1       -2 0.36534454E-01 0.16899066E+04</pdfrwt>
<totfact> 0.11646714E+01</totfact>
</mgrwt>
</event>
<event>
12    1  0.1536832E-007  0.2095312E+04  0.7818608E-02  0.8563311E-01
         -1   -1    0    0    0  501 -0.00000000000E+00  0.00000000000E+00  0.16541081575E+04  0.16541081575E+04  0.00000000000E+00 0.  1.
          1   -1    0    0  501    0  0.00000000000E+00 -0.00000000000E+00 -0.66354952633E+03  0.66354952633E+03  0.00000000000E+00 0. -1.
         23    2    1    2    0    0  0.57627557498E+03  0.61297793834E+02  0.10983725167E+04  0.12452734670E+04  0.91830629192E+02 0.  0.
        254    2    1    2    0    0 -0.57627557498E+03 -0.61297793834E+02 -0.10781388549E+03  0.10723842168E+04  0.89584212713E+03 0.  0.
        -24    2    4    4    0    0  0.15750715881E+03 -0.38802631722E+02 -0.26245115899E+03  0.31799076767E+03  0.76963420932E+02 0.  0.
         24    2    4    4    0    0 -0.73378273379E+03 -0.22495162111E+02  0.15463727350E+03  0.75439344915E+03  0.79080067272E+02 0.  0.
         13    1    3    3    0    0  0.53705429839E+03  0.73889935984E+02  0.10503863772E+04  0.11820315492E+04  0.00000000000E+00 0.  1.
        -13    1    3    3    0    0  0.39221276588E+02 -0.12592142151E+02  0.47986139516E+02  0.63241917798E+02  0.00000000000E+00 0. -1.
          2    1    6    6  502    0 -0.73372268663E+03 -0.24979686866E+02  0.15027080352E+03  0.74936925478E+03  0.00000000000E+00 0. -1.
          3    1    5    5  503    0  0.12782622753E+03 -0.46208529347E+02 -0.25078547150E+03  0.28525098658E+03  0.00000000000E+00 0. -1.
         -4    1    5    5    0  503  0.29680931277E+02  0.74058976249E+01 -0.11665687493E+02  0.32739781090E+02  0.00000000000E+00 0.  1.
         -1    1    6    6    0  502 -0.60047164068E-01  0.24845247547E+01  0.43664699843E+01  0.50241943675E+01  0.00000000000E+00 0.  1.
<mgrwt>
<rscale>  0 0.20953116E+04</rscale>
<asrwt>0</asrwt>
<pdfrwt beam="1">  1        1 0.10208454E+00 0.20953116E+04</pdfrwt>
<pdfrwt beam="2">  1       -1 0.25447818E+00 0.20953116E+04</pdfrwt>
<totfact> 0.17711431E+00</totfact>
</mgrwt>
</event>
<event>
12    1  0.1536832E-007  0.2015988E+04  0.7818608E-02  0.8599182E-01
         -2   -1    0    0    0  501 -0.00000000000E+00  0.00000000000E+00  0.10126673328E+04  0.10126673328E+04  0.00000000000E+00 0.  1.
          2   -1    0    0  501    0  0.00000000000E+00 -0.00000000000E+00 -0.10033420119E+04  0.10033420119E+04  0.00000000000E+00 0. -1.
         23    2    1    2    0    0  0.44703112164E+02  0.80266158173E+03 -0.43631395078E+01  0.80896816200E+03  0.90257781411E+02 0.  0.
        254    2    1    2    0    0 -0.44703112164E+02 -0.80266158173E+03  0.13688460319E+02  0.12070411827E+04  0.90027610197E+03 0.  0.
        -24    2    4    4    0    0  0.30147234132E+03 -0.52014037229E+03  0.29361534868E+03  0.67380915435E+03  0.79857523374E+02 0.  0.
         24    2    4    4    0    0 -0.34617545349E+03 -0.28252120945E+03 -0.27992688836E+03  0.53323202835E+03  0.79508835027E+02 0.  0.
         11    1    3    3    0    0  0.80708509365E-01  0.46703600982E+03 -0.38786531992E+02  0.46864382643E+03  0.00000000000E+00 0.  1.
        -11    1    3    3    0    0  0.44622403655E+02  0.33562557191E+03  0.34423392484E+02  0.34032433557E+03  0.00000000000E+00 0. -1.
          4    1    6    6  502    0  0.29197372745E+01 -0.18827344331E+01 -0.92614609050E+01  0.98916233649E+01  0.00000000000E+00 0. -1.
          3    1    5    5  503    0  0.80687520679E+01 -0.39610025791E+02  0.37989094747E+02  0.55472788129E+02  0.00000000000E+00 0. -1.
         -2    1    5    5    0  503  0.29340358926E+03 -0.48053034649E+03  0.25562625394E+03  0.61833636622E+03  0.00000000000E+00 0.  1.
         -3    1    6    6    0  502 -0.34909519076E+03 -0.28063847502E+03 -0.27066542746E+03  0.52334040499E+03  0.00000000000E+00 0.  1.
<mgrwt>
<rscale>  0 0.20159878E+04</rscale>
<asrwt>0</asrwt>
<pdfrwt beam="1">  1        2 0.15436031E+00 0.20159878E+04</pdfrwt>
<pdfrwt beam="2">  1       -2 0.15579497E+00 0.20159878E+04</pdfrwt>
<totfact> 0.62960679E+00</totfact>
</mgrwt>
</event>
<event>
12    1  0.1536832E-007  0.1529073E+04  0.7818608E-02  0.8865347E-01
          1   -1    0    0  501    0  0.00000000000E+00  0.00000000000E+00  0.56826823512E+03  0.56826823512E+03  0.00000000000E+00 0. -1.
         -1   -1    0    0    0  501 -0.00000000000E+00 -0.00000000000E+00 -0.10285920050E+04  0.10285920050E+04  0.00000000000E+00 0.  1.
         23    2    1    2    0    0  0.21214019206E+03  0.28951541881E+03 -0.50853444371E+03  0.62903984855E+03  0.90891208647E+02 0.  0.
        254    2    1    2    0    0 -0.21214019206E+03 -0.28951541881E+03  0.48210673863E+02  0.96782039154E+03  0.89751289817E+03 0.  0.
        -24    2    4    4    0    0 -0.32512939572E+03  0.24262923172E+03  0.59075116242E+02  0.41757357684E+03  0.79370993875E+02 0.  0.
         24    2    4    4    0    0  0.11298920367E+03 -0.53214465053E+03 -0.10864442379E+02  0.55024681470E+03  0.81908679253E+02 0.  0.
         13    1    3    3    0    0  0.19328197784E+03  0.28898068476E+03 -0.45734301426E+03  0.57448271672E+03  0.00000000000E+00 0.  1.
        -13    1    3    3    0    0  0.18858214221E+02  0.53473405332E+00 -0.51191429459E+02  0.54557131836E+02  0.00000000000E+00 0. -1.
          4    1    6    6  502    0  0.12213986275E+02 -0.62788177044E+01 -0.54759197310E+01  0.14784813472E+02  0.00000000000E+00 0. -1.
          1    1    5    5  503    0 -0.10497473488E+03  0.44471411300E+02  0.39774201277E+02  0.12074513851E+03  0.00000000000E+00 0. -1.
         -2    1    5    5    0  503 -0.22015466084E+03  0.19815782042E+03  0.19300914965E+02  0.29682843833E+03  0.00000000000E+00 0.  1.
         -3    1    6    6    0  502  0.10077521739E+03 -0.52586583283E+03 -0.53885226482E+01  0.53546200122E+03  0.00000000000E+00 0.  1.
<mgrwt>
<rscale>  0 0.15290731E+04</rscale>
<asrwt>0</asrwt>
<pdfrwt beam="1">  1        1 0.87425882E-01 0.15290731E+04</pdfrwt>
<pdfrwt beam="2">  1       -1 0.15824492E+00 0.15290731E+04</pdfrwt>
<totfact> 0.10769922E+01</totfact>
</mgrwt>
</event>
<event>
12    1  0.1536832E-007  0.1584540E+04  0.7818608E-02  0.8830102E-01
          1   -1    0    0  501    0  0.00000000000E+00  0.00000000000E+00  0.13570619031E+04  0.13570619031E+04  0.00000000000E+00 0. -1.
         -1   -1    0    0    0  501 -0.00000000000E+00 -0.00000000000E+00 -0.46253744297E+03  0.46253744297E+03  0.00000000000E+00 0.  1.
         23    2    1    2    0    0  0.35180972990E+02  0.29898258030E+03  0.78332782324E+03  0.84385501096E+03  0.88659554927E+02 0.  0.
        254    2    1    2    0    0 -0.35180972990E+02 -0.29898258030E+03  0.11119663689E+03  0.97574433511E+03  0.92145755803E+03 0.  0.
        -24    2    4    4    0    0 -0.17414191177E+03 -0.46101926837E+03 -0.24252339148E+03  0.55505162052E+03  0.80003342298E+02 0.  0.
         24    2    4    4    0    0  0.13896093878E+03  0.16203668808E+03  0.35372002837E+03  0.42069271459E+03  0.79362905997E+02 0.  0.
         11    1    3    3    0    0 -0.21193093553E+02  0.84253612686E+02  0.15834233705E+03  0.18061039330E+03  0.00000000000E+00 0.  1.
        -11    1    3    3    0    0  0.56374066543E+02  0.21472896761E+03  0.62498548619E+03  0.66324461766E+03  0.00000000000E+00 0. -1.
          4    1    6    6  502    0  0.82570953459E+02  0.42746954587E+02  0.17943603097E+03  0.20209540740E+03  0.00000000000E+00 0. -1.
          3    1    5    5  503    0 -0.87818760548E+02 -0.18107089174E+03 -0.13797561601E+03  0.24400014990E+03  0.00000000000E+00 0. -1.
         -4    1    5    5    0  503 -0.86323151218E+02 -0.27994837663E+03 -0.10454777548E+03  0.31105147061E+03  0.00000000000E+00 0.  1.
         -3    1    6    6    0  502  0.56389985316E+02  0.11928973349E+03  0.17428399740E+03  0.21859730719E+03  0.00000000000E+00 0.  1.
<mgrwt>
<rscale>  0 0.15845402E+04</rscale>
<asrwt>0</asrwt>
<pdfrwt beam="1">  1        1 0.20877875E+00 0.15845402E+04</pdfrwt>
<pdfrwt beam="2">  1       -1 0.71159607E-01 0.15845402E+04</pdfrwt>
<totfact> 0.15785606E+01</totfact>
</mgrwt>
</event>
<event>
12    1  0.1536832E-007  0.2696055E+04  0.7818608E-02  0.8336286E-01
         -2   -1    0    0    0  501 -0.00000000000E+00  0.00000000000E+00  0.80742326563E+03  0.80742326563E+03  0.00000000000E+00 0.  1.
          2   -1    0    0  501    0  0.00000000000E+00 -0.00000000000E+00 -0.22505899110E+04  0.22505899110E+04  0.00000000000E+00 0. -1.
         23    2    1    2    0    0  0.93750918333E+01 -0.43101005365E+03  0.62596563744E+03  0.76561213260E+03  0.92040206579E+02 0.  0.
        254    2    1    2    0    0 -0.93750918333E+01  0.43101005365E+03 -0.20691322828E+04  0.22924010441E+04  0.88765792074E+03 0.  0.
        -24    2    4    4    0    0  0.22783096868E+03  0.45269048906E+02 -0.91307809106E+02  0.26197661004E+03  0.79614013381E+02 0.  0.
         24    2    4    4    0    0 -0.23720606052E+03  0.38574100474E+03 -0.19778244737E+04  0.20304244340E+04  0.75966410296E+02 0.  0.
         13    1    3    3    0    0 -0.27001909663E+02 -0.46095875590E+02  0.91691377625E+02  0.10611899737E+03  0.00000000000E+00 0. -1.
        -13    1    3    3    0    0  0.36377001496E+02 -0.38491417806E+03  0.53427425982E+03  0.65949313523E+03  0.00000000000E+00 0.  1.
          4    1    6    6  502    0 -0.22470154434E+03  0.38561081317E+03 -0.19355983985E+04  0.19863855727E+04  0.00000000000E+00 0. -1.
          3    1    5    5  503    0  0.18410224445E+03  0.61387858991E+02 -0.93298264054E+02  0.21532921706E+03  0.00000000000E+00 0. -1.
         -4    1    5    5    0  503  0.43728724229E+02 -0.16118810085E+02  0.19904549487E+01  0.46647392983E+02  0.00000000000E+00 0.  1.
         -3    1    6    6    0  502 -0.12504516172E+02  0.13019156937E+00 -0.42226075244E+02  0.44038861305E+02  0.00000000000E+00 0.  1.
<mgrwt>
<rscale>  0 0.26960554E+04</rscale>
<asrwt>0</asrwt>
<pdfrwt beam="1">  1        2 0.34624461E+00 0.26960554E+04</pdfrwt>
<pdfrwt beam="2">  1       -2 0.12421896E+00 0.26960554E+04</pdfrwt>
<totfact> 0.20667055E+00</totfact>
</mgrwt>
</event>
<event>
12    1  0.1536832E-007  0.1614476E+04  0.7818608E-02  0.8811704E-01
         -1   -1    0    0    0  501 -0.00000000000E+00  0.00000000000E+00  0.49129591009E+03  0.49129591009E+03  0.00000000000E+00 0.  1.
          1   -1    0    0  501    0  0.00000000000E+00 -0.00000000000E+00 -0.13263560395E+04  0.13263560395E+04  0.00000000000E+00 0. -1.
         23    2    1    2    0    0 -0.34183933626E+03 -0.42637865212E+03 -0.20274635736E+03  0.59058525942E+03  0.95036710882E+02 0.  0.
        254    2    1    2    0    0  0.34183933626E+03  0.42637865212E+03 -0.63231377207E+03  0.12270666902E+04  0.89845371000E+03 0.  0.
        -24    2    4    4    0    0  0.21061800160E+02  0.64465116969E+03 -0.32762499651E+03  0.72781033101E+03  0.79693221604E+02 0.  0.
         24    2    4    4    0    0  0.32077753610E+03 -0.21827251757E+03 -0.30468877555E+03  0.49925635917E+03  0.76684696221E+02 0.  0.
         13    1    3    3    0    0 -0.11955916394E+03 -0.99885918392E+02 -0.89606019976E+02  0.17972431441E+03  0.00000000000E+00 0. -1.
        -13    1    3    3    0    0 -0.22228017233E+03 -0.32649273373E+03 -0.11314033738E+03  0.41086094501E+03  0.00000000000E+00 0.  1.
          2    1    6    6  502    0  0.32406175233E+03 -0.21024428081E+03 -0.30147553447E+03  0.49000630080E+03  0.00000000000E+00 0. -1.
          3    1    5    5  503    0 -0.28720272350E+02  0.28047747391E+03 -0.15482336477E+03  0.32165624772E+03  0.00000000000E+00 0. -1.
         -4    1    5    5    0  503  0.49782072509E+02  0.36417369578E+03 -0.17280163174E+03  0.40615408329E+03  0.00000000000E+00 0.  1.
         -1    1    6    6    0  502 -0.32842162294E+01 -0.80282367608E+01 -0.32132410828E+01  0.92500583774E+01  0.00000000000E+00 0.  1.
<mgrwt>
<rscale>  0 0.16144761E+04</rscale>
<asrwt>0</asrwt>
<pdfrwt beam="1">  1        1 0.20405478E+00 0.16144761E+04</pdfrwt>
<pdfrwt beam="2">  1       -1 0.75583985E-01 0.16144761E+04</pdfrwt>
<totfact> 0.14603372E+01</totfact>
</mgrwt>
</event>
<event>
12    1  0.1536832E-007  0.1914007E+04  0.7818608E-02  0.8647916E-01
         -2   -1    0    0    0  501 -0.00000000000E+00  0.00000000000E+00  0.39635151526E+03  0.39635151526E+03  0.00000000000E+00 0.  1.
          2   -1    0    0  501    0  0.00000000000E+00 -0.00000000000E+00 -0.23107148011E+04  0.23107148011E+04  0.00000000000E+00 0. -1.
         23    2    1    2    0    0  0.46078910828E+03 -0.13277944206E+03 -0.15811909810E+04  0.16547079699E+04  0.89087399970E+02 0.  0.
        254    2    1    2    0    0 -0.46078910828E+03  0.13277944206E+03 -0.33317230489E+03  0.10523583465E+04  0.87549832788E+03 0.  0.
        -24    2    4    4    0    0 -0.28620332593E+03 -0.31068621523E+03 -0.37044204370E+03  0.56742112929E+03  0.79379859604E+02 0.  0.
         24    2    4    4    0    0 -0.17458578235E+03  0.44346565730E+03  0.37269738810E+02  0.48493721719E+03  0.81443763334E+02 0.  0.
         13    1    3    3    0    0  0.22965349966E+02  0.41749279040E+00 -0.16031926378E+03  0.16195631491E+03  0.00000000000E+00 0.  1.
        -13    1    3    3    0    0  0.43782375831E+03 -0.13319693485E+03 -0.14208717172E+04  0.14927516550E+04  0.00000000000E+00 0. -1.
          4    1    6    6  502    0 -0.32156174040E+02  0.15840007688E+03  0.38983205337E+02  0.16626573364E+03  0.00000000000E+00 0. -1.
          3    1    5    5  503    0 -0.23676763155E+03 -0.20528549191E+03 -0.27278628628E+03  0.41546769131E+03  0.00000000000E+00 0. -1.
         -4    1    5    5    0  503 -0.49435694378E+02 -0.10540072332E+03 -0.97655757421E+02  0.15195343798E+03  0.00000000000E+00 0.  1.
         -1    1    6    6    0  502 -0.14242960831E+03  0.28506558042E+03 -0.17134665274E+01  0.31867148355E+03  0.00000000000E+00 0.  1.
<mgrwt>
<rscale>  0 0.19140066E+04</rscale>
<asrwt>0</asrwt>
<pdfrwt beam="1">  1        2 0.35549459E+00 0.19140066E+04</pdfrwt>
<pdfrwt beam="2">  1       -2 0.60977156E-01 0.19140066E+04</pdfrwt>
<totfact> 0.10470184E+01</totfact>
</mgrwt>
</event>
<event>
12    1  0.1536832E-007  0.2517487E+04  0.7818608E-02  0.8396782E-01
         -1   -1    0    0    0  501 -0.00000000000E+00  0.00000000000E+00  0.80499484768E+03  0.80499484768E+03  0.00000000000E+00 0.  1.
          1   -1    0    0  501    0  0.00000000000E+00 -0.00000000000E+00 -0.19682556643E+04  0.19682556643E+04  0.00000000000E+00 0. -1.
         23    2    1    2    0    0  0.55601806683E+03  0.21176456214E+03 -0.14472056455E+04  0.15673469334E+04  0.90398610925E+02 0.  0.
        254    2    1    2    0    0 -0.55601806683E+03 -0.21176456214E+03  0.28394482894E+03  0.12059035785E+04  0.10097417761E+04 0.  0.
        -24    2    4    4    0    0  0.20441651163E+03  0.18813413725E+03  0.16915736813E+03  0.33512518964E+03  0.80710059562E+02 0.  0.
         24    2    4    4    0    0 -0.76043457846E+03 -0.39989869939E+03  0.11478746082E+03  0.87077838888E+03  0.83060962510E+02 0.  0.
         13    1    3    3    0    0  0.10673856058E+02 -0.84306326954E+01 -0.28991408507E+02  0.32023562231E+02  0.00000000000E+00 0.  1.
        -13    1    3    3    0    0  0.54534421077E+03  0.22019519484E+03 -0.14182142370E+04  0.15353233712E+04  0.00000000000E+00 0. -1.
          4    1    6    6  502    0 -0.60092278419E+02 -0.28817625651E+02 -0.13180569832E+02  0.67935740924E+02  0.00000000000E+00 0. -1.
          3    1    5    5  503    0 -0.68373446096E+01  0.10454870977E+02  0.12766226857E+02  0.17861415303E+02  0.00000000000E+00 0. -1.
         -4    1    5    5    0  503  0.21125385624E+03  0.17767926627E+03  0.15639114127E+03  0.31726377434E+03  0.00000000000E+00 0.  1.
         -3    1    6    6    0  502 -0.70034230004E+03 -0.37108107374E+03  0.12796803065E+03  0.80284264796E+03  0.00000000000E+00 0.  1.
<mgrwt>
<rscale>  0 0.25174874E+04</rscale>
<asrwt>0</asrwt>
<pdfrwt beam="1">  1        1 0.30280856E+00 0.25174874E+04</pdfrwt>
<pdfrwt beam="2">  1       -1 0.12384536E+00 0.25174874E+04</pdfrwt>
<totfact> 0.15906559E+00</totfact>
</mgrwt>
</event>
<event>
12    1  0.1536832E-007  0.1649631E+04  0.7818608E-02  0.8790625E-01
          2   -1    0    0  501    0  0.00000000000E+00  0.00000000000E+00  0.66195755116E+03  0.66195755116E+03  0.00000000000E+00 0. -1.
         -2   -1    0    0    0  501 -0.00000000000E+00 -0.00000000000E+00 -0.10277410422E+04  0.10277410422E+04  0.00000000000E+00 0.  1.
         23    2    1    2    0    0 -0.18037927863E+03  0.47622915391E+03  0.12048868835E+03  0.53147814875E+03  0.92847226021E+02 0.  0.
        254    2    1    2    0    0  0.18037927863E+03 -0.47622915391E+03 -0.48627217936E+03  0.11582204446E+04  0.91961028409E+03 0.  0.
        -24    2    4    4    0    0  0.28300325780E+03 -0.65435734859E+03 -0.11483472443E+03  0.72629113087E+03  0.77700767542E+02 0.  0.
         24    2    4    4    0    0 -0.10262397917E+03  0.17812819467E+03 -0.37143745494E+03  0.43192931370E+03  0.79597828274E+02 0.  0.
         13    1    3    3    0    0  0.10799762067E+02  0.38440066482E+02  0.92680693320E+01  0.40989885106E+02  0.00000000000E+00 0.  1.
        -13    1    3    3    0    0 -0.19117904070E+03  0.43778908743E+03  0.11122061902E+03  0.49048826364E+03  0.00000000000E+00 0. -1.
          4    1    6    6  502    0 -0.30266425611E+01  0.62379163918E+02 -0.68590201928E+02  0.92762796728E+02  0.00000000000E+00 0. -1.
          1    1    5    5  503    0  0.62413825630E+02 -0.87320284227E+02 -0.12112399663E+01  0.10733957690E+03  0.00000000000E+00 0. -1.
         -2    1    5    5    0  503  0.22058943217E+03 -0.56703706436E+03 -0.11362348446E+03  0.61895155397E+03  0.00000000000E+00 0.  1.
         -3    1    6    6    0  502 -0.99597336608E+02  0.11574903075E+03 -0.30284725301E+03  0.33916651697E+03  0.00000000000E+00 0.  1.
<mgrwt>
<rscale>  0 0.16496314E+04</rscale>
<asrwt>0</asrwt>
<pdfrwt beam="1">  1        2 0.10183962E+00 0.16496314E+04</pdfrwt>
<pdfrwt beam="2">  1       -2 0.15811400E+00 0.16496314E+04</pdfrwt>
<totfact> 0.10915866E+01</totfact>
</mgrwt>
</event>
<event>
12    1  0.1536832E-007  0.3033386E+04  0.7818608E-02  0.8234261E-01
         -2   -1    0    0    0  501 -0.00000000000E+00  0.00000000000E+00  0.92882071913E+03  0.92882071913E+03  0.00000000000E+00 0.  1.
          2   -1    0    0  501    0  0.00000000000E+00 -0.00000000000E+00 -0.24766432739E+04  0.24766432739E+04  0.00000000000E+00 0. -1.
         23    2    1    2    0    0  0.10261453969E+04 -0.38957698373E+03 -0.16478942996E+04  0.19822389169E+04  0.94714830873E+02 0.  0.
        254    2    1    2    0    0 -0.10261453969E+04  0.38957698373E+03  0.10007174474E+03  0.14232250762E+04  0.90045025497E+03 0.  0.
        -24    2    4    4    0    0  0.47651291833E+02  0.21966731318E+02  0.25734783827E+03  0.27476565232E+03  0.80715989360E+02 0.  0.
         24    2    4    4    0    0 -0.10737966887E+04  0.36761025241E+03 -0.15727609352E+03  0.11484594239E+04  0.77760223531E+02 0.  0.
         13    1    3    3    0    0  0.10289376335E+03 -0.13399199994E+02 -0.13208892843E+03  0.16797068230E+03  0.00000000000E+00 0.  1.
        -13    1    3    3    0    0  0.92325163352E+03 -0.37617778374E+03 -0.15158053711E+04  0.18142682346E+04  0.00000000000E+00 0. -1.
          4    1    6    6  502    0 -0.53888748137E+03  0.22419098821E+03 -0.70630857155E+02  0.58792009215E+03  0.00000000000E+00 0. -1.
          3    1    5    5  503    0  0.86364244706E+00 -0.26925657318E+02  0.52154520520E+02  0.58701200251E+02  0.00000000000E+00 0. -1.
         -4    1    5    5    0  503  0.46787649386E+02  0.48892388636E+02  0.20519331775E+03  0.21606445207E+03  0.00000000000E+00 0.  1.
         -3    1    6    6    0  502 -0.53490920734E+03  0.14341926421E+03 -0.86645236369E+02  0.56053933174E+03  0.00000000000E+00 0.  1.
<mgrwt>
<rscale>  0 0.30333860E+04</rscale>
<asrwt>0</asrwt>
<pdfrwt beam="1">  1        2 0.38102205E+00 0.30333860E+04</pdfrwt>
<pdfrwt beam="2">  1       -2 0.14289549E+00 0.30333860E+04</pdfrwt>
<totfact> 0.10436451E+00</totfact>
</mgrwt>
</event>
<event>
12    1  0.1536832E-007  0.2529443E+04  0.7818608E-02  0.8392571E-01
         -2   -1    0    0    0  501 -0.00000000000E+00  0.00000000000E+00  0.13270186361E+04  0.13270186361E+04  0.00000000000E+00 0.  1.
          2   -1    0    0  501    0  0.00000000000E+00 -0.00000000000E+00 -0.12053488720E+04  0.12053488720E+04  0.00000000000E+00 0. -1.
         23    2    1    2    0    0 -0.88434940818E+03  0.30900572140E+03 -0.52960845239E+03  0.10798647175E+04  0.89801356645E+02 0.  0.
        254    2    1    2    0    0  0.88434940818E+03 -0.30900572140E+03  0.65127821646E+03  0.14525027906E+04  0.89891191445E+03 0.  0.
        -24    2    4    4    0    0  0.46221284776E+03 -0.38180848945E+03 -0.70937444614E+02  0.60908376855E+03  0.80823739132E+02 0.  0.
         24    2    4    4    0    0  0.42213656042E+03  0.72802768057E+02  0.72221566107E+03  0.84341902208E+03  0.79124376904E+02 0.  0.
         13    1    3    3    0    0 -0.77303507073E+03  0.25478238537E+03 -0.42751432699E+03  0.91938337175E+03  0.00000000000E+00 0. -1.
        -13    1    3    3    0    0 -0.11131433746E+03  0.54223336030E+02 -0.10209412541E+03  0.16048134576E+03  0.00000000000E+00 0.  1.
          4    1    6    6  502    0  0.28580817820E+03  0.21587328003E+02  0.42761031078E+03  0.51478432896E+03  0.00000000000E+00 0. -1.
          3    1    5    5  503    0  0.68048252828E+02 -0.63195147710E+02 -0.40569295956E+02  0.10134130047E+03  0.00000000000E+00 0. -1.
         -4    1    5    5    0  503  0.39416459494E+03 -0.31861334174E+03 -0.30368148658E+02  0.50774246808E+03  0.00000000000E+00 0.  1.
         -3    1    6    6    0  502  0.13632838222E+03  0.51215440054E+02  0.29460535029E+03  0.32863469311E+03  0.00000000000E+00 0.  1.
<mgrwt>
<rscale>  0 0.25294430E+04</rscale>
<asrwt>0</asrwt>
<pdfrwt beam="1">  1        2 0.18543829E+00 0.25294430E+04</pdfrwt>
<pdfrwt beam="2">  1       -2 0.20415671E+00 0.25294430E+04</pdfrwt>
<totfact> 0.20897858E+00</totfact>
</mgrwt>
</event>
<event>
12    1  0.1536832E-007  0.1849404E+04  0.7818608E-02  0.8680459E-01
         -2   -1    0    0    0  501 -0.00000000000E+00  0.00000000000E+00  0.11840824087E+04  0.11840824087E+04  0.00000000000E+00 0. -1.
          2   -1    0    0  501    0  0.00000000000E+00 -0.00000000000E+00 -0.72214057232E+03  0.72214057232E+03  0.00000000000E+00 0.  1.
         23    2    1    2    0    0 -0.47240767647E+02 -0.59413213498E+03 -0.15264710190E+03  0.62211214271E+03  0.92182950947E+02 0.  0.
        254    2    1    2    0    0  0.47240767647E+02  0.59413213498E+03  0.61458893828E+03  0.12841108383E+04  0.95707700737E+03 0.  0.
        -24    2    4    4    0    0 -0.25095172046E+03  0.10358107126E+03  0.64446717642E+03  0.70392671971E+03  0.80430596834E+02 0.  0.
         24    2    4    4    0    0  0.29819248811E+03  0.49055106372E+03 -0.29878238136E+02  0.58018411860E+03  0.78497109975E+02 0.  0.
         13    1    3    3    0    0  0.36640032416E+01 -0.34554315216E+03 -0.12225444467E+03  0.36655101168E+03  0.00000000000E+00 0.  1.
        -13    1    3    3    0    0 -0.50904770888E+02 -0.24858898283E+03 -0.30392657235E+02  0.25556113103E+03  0.00000000000E+00 0. -1.
          4    1    6    6  502    0  0.11293953749E+03  0.16271195114E+03  0.25030373602E+02  0.19964227451E+03  0.00000000000E+00 0. -1.
          1    1    5    5  503    0 -0.53660770224E+02  0.17028708043E+02  0.66609210155E+02  0.87213772055E+02  0.00000000000E+00 0. -1.
         -2    1    5    5    0  503 -0.19729095024E+03  0.86552363221E+02  0.57785796626E+03  0.61671294765E+03  0.00000000000E+00 0.  1.
         -3    1    6    6    0  502  0.18525295062E+03  0.32783911258E+03 -0.54908611738E+02  0.38054184408E+03  0.00000000000E+00 0.  1.
<mgrwt>
<rscale>  0 0.18494042E+04</rscale>
<asrwt>0</asrwt>
<pdfrwt beam="1">  1        2 0.11109855E+00 0.18494042E+04</pdfrwt>
<pdfrwt beam="2">  1       -2 0.18216652E+00 0.18494042E+04</pdfrwt>
<totfact> 0.64830589E+00</totfact>
</mgrwt>
</event>
<event>
12    1  0.1536832E-007  0.2340870E+04  0.7818608E-02  0.8461979E-01
          1   -1    0    0  501    0  0.00000000000E+00  0.00000000000E+00  0.25943103854E+04  0.25943103854E+04  0.00000000000E+00 0. -1.
         -1   -1    0    0    0  501 -0.00000000000E+00 -0.00000000000E+00 -0.52804699066E+03  0.52804699066E+03  0.00000000000E+00 0.  1.
         23    2    1    2    0    0  0.85157806334E+02 -0.55794870668E+03  0.19621283026E+04  0.20436653027E+04  0.89787428058E+02 0.  0.
        254    2    1    2    0    0 -0.85157806334E+02  0.55794870668E+03  0.10413509220E+03  0.10786920734E+04  0.91333118889E+03 0.  0.
        -24    2    4    4    0    0  0.32830780949E+03  0.20449497472E+02 -0.12151523902E+03  0.35950559570E+03  0.79209344789E+02 0.  0.
         24    2    4    4    0    0 -0.41346561583E+03  0.53749920921E+03  0.22565033122E+03  0.71918647774E+03  0.80323735051E+02 0.  0.
         11    1    3    3    0    0  0.23757832307E+02 -0.94736951118E+02  0.23603913273E+03  0.25544861848E+03  0.00000000000E+00 0.  1.
        -11    1    3    3    0    0  0.61399974027E+02 -0.46321175556E+03  0.17260891699E+04  0.17882166842E+04  0.00000000000E+00 0. -1.
          4    1    6    6  502    0 -0.39928358383E+03  0.53043838727E+03  0.20862099760E+03  0.69592742700E+03  0.00000000000E+00 0. -1.
          3    1    5    5  503    0  0.24386773226E+03  0.15885508914E+02 -0.12574321923E+03  0.27483663768E+03  0.00000000000E+00 0. -1.
         -4    1    5    5    0  503  0.84440077237E+02  0.45639885579E+01  0.42279802033E+01  0.84668958018E+02  0.00000000000E+00 0.  1.
         -3    1    6    6    0  502 -0.14182032001E+02  0.70608219380E+01  0.17029333616E+02  0.23259050744E+02  0.00000000000E+00 0.  1.
<mgrwt>
<rscale>  0 0.23408697E+04</rscale>
<asrwt>0</asrwt>
<pdfrwt beam="1">  1        1 0.39912467E+00 0.23408697E+04</pdfrwt>
<pdfrwt beam="2">  1       -1 0.81238000E-01 0.23408697E+04</pdfrwt>
<totfact> 0.15831010E+00</totfact>
</mgrwt>
</event>
<event>
12    1  0.1536832E-007  0.1508926E+04  0.7818608E-02  0.8878539E-01
         -2   -1    0    0    0  501 -0.00000000000E+00  0.00000000000E+00  0.10803802557E+04  0.10803802557E+04  0.00000000000E+00 0.  1.
          2   -1    0    0  501    0  0.00000000000E+00 -0.00000000000E+00 -0.52686491404E+03  0.52686491404E+03  0.00000000000E+00 0. -1.
         23    2    1    2    0    0 -0.10185787568E+03 -0.19107693293E+03  0.63774374747E+03  0.67930860048E+03  0.88643477496E+02 0.  0.
        254    2    1    2    0    0  0.10185787568E+03  0.19107693293E+03 -0.84228405806E+02  0.92793656926E+03  0.89837989241E+03 0.  0.
        -24    2    4    4    0    0 -0.16669890778E+02 -0.33009577963E+03  0.10538978577E+03  0.35576643924E+03  0.78877394486E+02 0.  0.
         24    2    4    4    0    0  0.11852776646E+03  0.52117271256E+03 -0.18961819157E+03  0.57217013002E+03  0.75853618028E+02 0.  0.
         13    1    3    3    0    0 -0.11697569886E+03 -0.18040619573E+03  0.57464213101E+03  0.61354974396E+03  0.00000000000E+00 0.  1.
        -13    1    3    3    0    0  0.15117823178E+02 -0.10670737203E+02  0.63101616462E+02  0.65758856515E+02  0.00000000000E+00 0. -1.
          2    1    6    6  502    0  0.12480480635E+02  0.93843900753E+02 -0.51875370648E+01  0.94812186169E+02  0.00000000000E+00 0. -1.
          3    1    5    5  503    0  0.29619406942E+01 -0.96159600843E+02 -0.50290383544E+01  0.96336561874E+02  0.00000000000E+00 0. -1.
         -4    1    5    5    0  503 -0.19631831472E+02 -0.23393617879E+03  0.11041882412E+03  0.25942987737E+03  0.00000000000E+00 0.  1.
         -1    1    6    6    0  502  0.10604728583E+03  0.42732881181E+03 -0.18443065451E+03  0.47735794385E+03  0.00000000000E+00 0.  1.
<mgrwt>
<rscale>  0 0.15089260E+04</rscale>
<asrwt>0</asrwt>
<pdfrwt beam="1">  1        2 0.81056141E-01 0.15089260E+04</pdfrwt>
<pdfrwt beam="2">  1       -2 0.16621235E+00 0.15089260E+04</pdfrwt>
<totfact> 0.12675836E+01</totfact>
</mgrwt>
</event>
<event>
12    1  0.1536832E-007  0.1745549E+04  0.7818608E-02  0.8735804E-01
         -2   -1    0    0    0  501 -0.00000000000E+00  0.00000000000E+00  0.81648661272E+03  0.81648661272E+03  0.00000000000E+00 0.  1.
          2   -1    0    0  501    0  0.00000000000E+00 -0.00000000000E+00 -0.93294328464E+03  0.93294328464E+03  0.00000000000E+00 0. -1.
         23    2    1    2    0    0  0.26716154022E+03  0.53141100637E+03  0.17181204232E+03  0.62596273473E+03  0.92396001653E+02 0.  0.
        254    2    1    2    0    0 -0.26716154022E+03 -0.53141100637E+03 -0.28826871424E+03  0.11234671626E+04  0.90846390552E+03 0.  0.
        -24    2    4    4    0    0 -0.88064575041E+02 -0.60763197787E+03 -0.52155887729E+03  0.80955780269E+03  0.79926112904E+02 0.  0.
         24    2    4    4    0    0 -0.17909696518E+03  0.76220971495E+02  0.23329016305E+03  0.31390935994E+03  0.78926716959E+02 0.  0.
         11    1    3    3    0    0  0.14718319879E+03  0.30907743190E+03  0.51667972340E+02  0.34620995405E+03  0.00000000000E+00 0.  1.
        -11    1    3    3    0    0  0.11997834142E+03  0.22233357448E+03  0.12014406998E+03  0.27975278069E+03  0.00000000000E+00 0. -1.
          2    1    6    6  502    0 -0.14138877995E+03  0.34777493660E+02  0.20415005992E+03  0.25075387959E+03  0.00000000000E+00 0. -1.
          1    1    5    5  503    0 -0.70349311400E+02 -0.58316169416E+03 -0.50739102374E+03  0.77619085161E+03  0.00000000000E+00 0. -1.
         -4    1    5    5    0  503 -0.17715263641E+02 -0.24470283712E+02 -0.14167853543E+02  0.33366951086E+02  0.00000000000E+00 0.  1.
         -1    1    6    6    0  502 -0.37708185227E+02  0.41443477835E+02  0.29140103123E+02  0.63155480350E+02  0.00000000000E+00 0.  1.
<mgrwt>
<rscale>  0 0.17455494E+04</rscale>
<asrwt>0</asrwt>
<pdfrwt beam="1">  1        2 0.14352974E+00 0.17455494E+04</pdfrwt>
<pdfrwt beam="2">  1       -2 0.12561333E+00 0.17455494E+04</pdfrwt>
<totfact> 0.12513099E+01</totfact>
</mgrwt>
</event>
<event>
12    1  0.1536832E-007  0.1506526E+04  0.7818608E-02  0.8880125E-01
          1   -1    0    0  501    0  0.00000000000E+00  0.00000000000E+00  0.69339608690E+03  0.69339608690E+03  0.00000000000E+00 0. -1.
         -1   -1    0    0    0  501 -0.00000000000E+00 -0.00000000000E+00 -0.81829896171E+03  0.81829896171E+03  0.00000000000E+00 0.  1.
         23    2    1    2    0    0  0.24707522981E+03  0.32027705737E+03  0.23128792340E+03  0.47517152313E+03  0.93114500610E+02 0.  0.
        254    2    1    2    0    0 -0.24707522981E+03 -0.32027705737E+03 -0.35619079820E+03  0.10365235255E+04  0.88537312558E+03 0.  0.
        -24    2    4    4    0    0 -0.19056079479E+03 -0.44548704439E+02 -0.61222403339E+03  0.64778150789E+03  0.80651170596E+02 0.  0.
         24    2    4    4    0    0 -0.56514435019E+02 -0.27572835293E+03  0.25603323519E+03  0.38874201760E+03  0.79670149680E+02 0.  0.
         11    1    3    3    0    0  0.81952602400E+02  0.13256482725E+03  0.41473604832E+02  0.16127529991E+03  0.00000000000E+00 0.  1.
        -11    1    3    3    0    0  0.16512262740E+03  0.18771223011E+03  0.18981431857E+03  0.31389622322E+03  0.00000000000E+00 0. -1.
          4    1    6    6  502    0 -0.39481930584E+02 -0.26334972077E+03  0.25327730765E+03  0.36750686095E+03  0.00000000000E+00 0. -1.
          3    1    5    5  503    0 -0.12015010069E+03 -0.49347411054E+02 -0.48716306703E+03  0.50418158192E+03  0.00000000000E+00 0. -1.
         -4    1    5    5    0  503 -0.70410694100E+02  0.47987066148E+01 -0.12506096636E+03  0.14359992596E+03  0.00000000000E+00 0.  1.
         -3    1    6    6    0  502 -0.17032504435E+02 -0.12378632152E+02  0.27559275433E+01  0.21235156649E+02  0.00000000000E+00 0.  1.
<mgrwt>
<rscale>  0 0.15065262E+04</rscale>
<asrwt>0</asrwt>
<pdfrwt beam="1">  1        1 0.10667632E+00 0.15065262E+04</pdfrwt>
<pdfrwt beam="2">  1       -1 0.12589215E+00 0.15065262E+04</pdfrwt>
<totfact> 0.14696078E+01</totfact>
</mgrwt>
</event>
<event>
12    1  0.1536832E-007  0.1305202E+04  0.7818608E-02  0.9025450E-01
          1   -1    0    0  501    0  0.00000000000E+00  0.00000000000E+00  0.10351762539E+04  0.10351762539E+04  0.00000000000E+00 0. -1.
         -1   -1    0    0    0  501 -0.00000000000E+00 -0.00000000000E+00 -0.41141569852E+03  0.41141569852E+03  0.00000000000E+00 0.  1.
         23    2    1    2    0    0  0.15019491066E+03 -0.27246853871E+03  0.44829940561E+02  0.32667691981E+03  0.88940826370E+02 0.  0.
        254    2    1    2    0    0 -0.15019491066E+03  0.27246853871E+03  0.57893061479E+03  0.11199150326E+04  0.90678079361E+03 0.  0.
        -24    2    4    4    0    0 -0.39187861657E+03 -0.18032914304E+03  0.25223352629E+03  0.50634924777E+03  0.81733463003E+02 0.  0.
         24    2    4    4    0    0  0.24168370592E+03  0.45279768175E+03  0.32669708850E+03  0.61356578480E+03  0.79342487636E+02 0.  0.
         13    1    3    3    0    0  0.75320458741E+02 -0.80016081034E+02 -0.16812583079E+02  0.11116837535E+03  0.00000000000E+00 0. -1.
        -13    1    3    3    0    0  0.74874451916E+02 -0.19245245767E+03  0.61642523641E+02  0.21550854446E+03  0.00000000000E+00 0.  1.
          4    1    6    6  502    0  0.21314121682E+03  0.40027734109E+03  0.25516564271E+03  0.52034664726E+03  0.00000000000E+00 0. -1.
          1    1    5    5  503    0 -0.25603743495E+03 -0.15300004374E+03  0.14806512781E+03  0.33299769302E+03  0.00000000000E+00 0. -1.
         -2    1    5    5    0  503 -0.13584118162E+03 -0.27329099298E+02  0.10416839848E+03  0.17335155475E+03  0.00000000000E+00 0.  1.
         -3    1    6    6    0  502  0.28542489096E+02  0.52520340654E+02  0.71531445793E+02  0.93219137539E+02  0.00000000000E+00 0.  1.
<mgrwt>
<rscale>  0 0.13052015E+04</rscale>
<asrwt>0</asrwt>
<pdfrwt beam="1">  1        1 0.15925788E+00 0.13052015E+04</pdfrwt>
<pdfrwt beam="2">  1       -1 0.63294723E-01 0.13052015E+04</pdfrwt>
<totfact> 0.35328570E+01</totfact>
</mgrwt>
</event>
<event>
12    1  0.1536832E-007  0.1432517E+04  0.7818608E-02  0.8930612E-01
         -1   -1    0    0    0  501 -0.00000000000E+00  0.00000000000E+00  0.11873466285E+04  0.11873466285E+04  0.00000000000E+00 0.  1.
          1   -1    0    0  501    0  0.00000000000E+00 -0.00000000000E+00 -0.43207762919E+03  0.43207762919E+03  0.00000000000E+00 0. -1.
         23    2    1    2    0    0  0.66265510368E+02  0.24228837742E+03 -0.13513857370E+03  0.29921719255E+03  0.90408619725E+02 0.  0.
        254    2    1    2    0    0 -0.66265510368E+02 -0.24228837742E+03  0.89040757305E+03  0.13202070652E+04  0.94182072239E+03 0.  0.
        -24    2    4    4    0    0 -0.27096725066E+03  0.24206659253E+03  0.62117689123E+03  0.72407460782E+03  0.80023879827E+02 0.  0.
         24    2    4    4    0    0  0.20470174029E+03 -0.48435496995E+03  0.26923068182E+03  0.59613245736E+03  0.79913749074E+02 0.  0.
         13    1    3    3    0    0  0.25562148808E+02  0.13115655968E+03 -0.12055743259E+03  0.17997100086E+03  0.00000000000E+00 0. -1.
        -13    1    3    3    0    0  0.40703361560E+02  0.11113181774E+03 -0.14581141107E+02  0.11924619169E+03  0.00000000000E+00 0.  1.
          2    1    6    6  502    0  0.16820960027E+03 -0.44402882461E+03  0.22224281110E+03  0.52425941460E+03  0.00000000000E+00 0. -1.
          1    1    5    5  503    0 -0.24908649479E+03  0.24458563970E+03  0.57071750753E+03  0.66901770563E+03  0.00000000000E+00 0. -1.
         -2    1    5    5    0  503 -0.21880755868E+02 -0.25190471753E+01  0.50459383698E+02  0.55056902194E+02  0.00000000000E+00 0.  1.
         -1    1    6    6    0  502  0.36492140021E+02 -0.40326145343E+02  0.46987870721E+02  0.71873042766E+02  0.00000000000E+00 0.  1.
<mgrwt>
<rscale>  0 0.14325165E+04</rscale>
<asrwt>0</asrwt>
<pdfrwt beam="1">  1        1 0.66473482E-01 0.14325165E+04</pdfrwt>
<pdfrwt beam="2">  1       -1 0.18266871E+00 0.14325165E+04</pdfrwt>
<totfact> 0.10476426E+01</totfact>
</mgrwt>
</event>
<event>
12    1  0.3009331E-007  0.1960168E+04  0.7818608E-02  0.8625473E-01
          1   -1    0    0  501    0  0.00000000000E+00  0.00000000000E+00  0.16844962296E+04  0.16844962296E+04  0.00000000000E+00 0. -1.
         -1   -1    0    0    0  501 -0.00000000000E+00 -0.00000000000E+00 -0.57023856666E+03  0.57023856666E+03  0.00000000000E+00 0.  1.
         23    2    1    2    0    0  0.10266907562E+03 -0.32656780102E+03 -0.35451130093E+03  0.50122909460E+03  0.91459690779E+02 0.  0.
        254    2    1    2    0    0 -0.10266907562E+03  0.32656780102E+03  0.14687689639E+04  0.17535057017E+04  0.89460187166E+03 0.  0.
        -24    2    4    4    0    0 -0.68350549230E+01  0.97614256477E+02  0.14871537509E+04  0.14925664711E+04  0.80951410757E+02 0.  0.
         24    2    4    4    0    0 -0.95834020696E+02  0.22895354454E+03 -0.18384787005E+02  0.26093923055E+03  0.78405335049E+02 0.  0.
         11    1    3    3    0    0  0.19681269122E+02 -0.36653452889E+01 -0.29308368575E+02  0.35493204685E+02  0.00000000000E+00 0. -1.
        -11    1    3    3    0    0  0.82987806498E+02 -0.32290245573E+03 -0.32520293235E+03  0.46573588992E+03  0.00000000000E+00 0.  1.
          2    1    6    6  502    0 -0.99173185125E+02  0.22360598181E+03 -0.31262111692E+02  0.24660145048E+03  0.00000000000E+00 0. -1.
          1    1    5    5  503    0  0.23635961572E+02  0.90818614985E+02  0.12175369166E+04  0.12211481576E+04  0.00000000000E+00 0. -1.
         -2    1    5    5    0  503 -0.30471016495E+02  0.67956414920E+01  0.26961683428E+03  0.27141831352E+03  0.00000000000E+00 0.  1.
         -1    1    6    6    0  502  0.33391644286E+01  0.53475627296E+01  0.12877324687E+02  0.14337780070E+02  0.00000000000E+00 0.  1.
<mgrwt>
<rscale>  0 0.19601681E+04</rscale>
<asrwt>0</asrwt>
<pdfrwt beam="1">  1        1 0.25915326E+00 0.19601681E+04</pdfrwt>
<pdfrwt beam="2">  1       -1 0.87729011E-01 0.19601681E+04</pdfrwt>
<totfact> 0.58083444E+00</totfact>
</mgrwt>
</event>
<event>
12    1  0.1536832E-007  0.1759962E+04  0.7818608E-02  0.8727886E-01
          1   -1    0    0  501    0  0.00000000000E+00  0.00000000000E+00  0.53476922330E+03  0.53476922330E+03  0.00000000000E+00 0. -1.
         -1   -1    0    0    0  501 -0.00000000000E+00 -0.00000000000E+00 -0.14480390761E+04  0.14480390761E+04  0.00000000000E+00 0.  1.
         23    2    1    2    0    0  0.23549446167E+02  0.12816608966E+02 -0.10599271952E+04  0.10641899609E+04  0.91300448184E+02 0.  0.
        254    2    1    2    0    0 -0.23549446167E+02 -0.12816608966E+02  0.14665734238E+03  0.91861833854E+03  0.90643942652E+03 0.  0.
        -24    2    4    4    0    0  0.13881600319E+03 -0.15370430401E+03  0.47157406164E+03  0.52096559767E+03  0.78282581268E+02 0.  0.
         24    2    4    4    0    0 -0.16236544935E+03  0.14088769505E+03 -0.32491671926E+03  0.39765274088E+03  0.79655170025E+02 0.  0.
         13    1    3    3    0    0  0.16662167550E+02  0.24434499494E+02 -0.10381063759E+04  0.10385275732E+04  0.00000000000E+00 0.  1.
        -13    1    3    3    0    0  0.68872786172E+01 -0.11617890529E+02 -0.21820819294E+02  0.25662387686E+02  0.00000000000E+00 0. -1.
          4    1    6    6  502    0 -0.13185188720E+03  0.14618717295E+03 -0.26405176075E+03  0.32936141554E+03  0.00000000000E+00 0. -1.
          1    1    5    5  503    0  0.14809042598E+03 -0.15141113403E+03  0.45366601929E+03  0.50066851592E+03  0.00000000000E+00 0. -1.
         -2    1    5    5    0  503 -0.92744227942E+01 -0.22931699883E+01  0.17908042349E+02  0.20297081749E+02  0.00000000000E+00 0.  1.
         -3    1    6    6    0  502 -0.30513562154E+02 -0.52994779016E+01 -0.60864958509E+02  0.68291325332E+02  0.00000000000E+00 0.  1.
<mgrwt>
<rscale>  0 0.17599622E+04</rscale>
<asrwt>0</asrwt>
<pdfrwt beam="1">  1        1 0.82272189E-01 0.17599622E+04</pdfrwt>
<pdfrwt beam="2">  1       -1 0.22277524E+00 0.17599622E+04</pdfrwt>
<totfact> 0.40286280E+00</totfact>
</mgrwt>
</event>
<event>
12    1  0.1536832E-007  0.1567693E+04  0.7818608E-02  0.8840645E-01
         -1   -1    0    0    0  501 -0.00000000000E+00  0.00000000000E+00  0.32563488999E+03  0.32563488999E+03  0.00000000000E+00 0.  1.
          1   -1    0    0  501    0  0.00000000000E+00 -0.00000000000E+00 -0.18868220314E+04  0.18868220314E+04  0.00000000000E+00 0. -1.
         23    2    1    2    0    0  0.25086909913E+03 -0.73041776339E+02  0.10250688202E+03  0.29609734224E+03  0.94316325389E+02 0.  0.
        254    2    1    2    0    0 -0.25086909913E+03  0.73041776339E+02 -0.16636940234E+04  0.19163595791E+04  0.91448664671E+03 0.  0.
        -24    2    4    4    0    0  0.19051807532E+03 -0.21307504949E+03 -0.11088803798E+04  0.11478127759E+04  0.78487948605E+02 0.  0.
         24    2    4    4    0    0 -0.44138717445E+03  0.28611682583E+03 -0.55481364362E+03  0.76854680324E+03  0.78489068237E+02 0.  0.
         13    1    3    3    0    0  0.17657162330E+03 -0.44015420042E+01  0.66376175810E+02  0.18868679986E+03  0.00000000000E+00 0.  1.
        -13    1    3    3    0    0  0.74297475829E+02 -0.68640234335E+02  0.36130706212E+02  0.10741054239E+03  0.00000000000E+00 0. -1.
          4    1    6    6  502    0 -0.99776887804E+02  0.48242442977E+02 -0.77625503934E+02  0.13530883011E+03  0.00000000000E+00 0. -1.
          3    1    5    5  503    0  0.52409089694E+02 -0.57777978454E+02 -0.45687741957E+03  0.46348892543E+03  0.00000000000E+00 0. -1.
         -4    1    5    5    0  503  0.13810898563E+03 -0.15529707104E+03 -0.65200296021E+03  0.68432385046E+03  0.00000000000E+00 0.  1.
         -3    1    6    6    0  502 -0.34161028664E+03  0.23787438285E+03 -0.47718813969E+03  0.63323797313E+03  0.00000000000E+00 0.  1.
<mgrwt>
<rscale>  0 0.15676927E+04</rscale>
<asrwt>0</asrwt>
<pdfrwt beam="1">  1        1 0.29028031E+00 0.15676927E+04</pdfrwt>
<pdfrwt beam="2">  1       -1 0.50097676E-01 0.15676927E+04</pdfrwt>
<totfact> 0.13686899E+01</totfact>
</mgrwt>
</event>
<event>
12    1  0.1536832E-007  0.1434445E+04  0.7818608E-02  0.8929256E-01
         -2   -1    0    0    0  501 -0.00000000000E+00  0.00000000000E+00  0.47989849049E+03  0.47989849049E+03  0.00000000000E+00 0.  1.
          2   -1    0    0  501    0  0.00000000000E+00 -0.00000000000E+00 -0.10719100028E+04  0.10719100028E+04  0.00000000000E+00 0. -1.
         23    2    1    2    0    0  0.17867516890E+03 -0.14049769448E+03 -0.56945521025E+03  0.62004726164E+03  0.92276497871E+02 0.  0.
        254    2    1    2    0    0 -0.17867516890E+03  0.14049769448E+03 -0.22556302053E+02  0.93176123163E+03  0.90333038688E+03 0.  0.
        -24    2    4    4    0    0  0.28318476616E+03  0.26918605581E+03 -0.15776238446E+03  0.42749731932E+03  0.72182017477E+02 0.  0.
         24    2    4    4    0    0 -0.46185993506E+03 -0.12868836133E+03  0.13520608240E+03  0.50426391231E+03  0.78269499655E+02 0.  0.
         11    1    3    3    0    0  0.95388683208E+02 -0.24878115721E+02 -0.29111233156E+03  0.30735046951E+03  0.00000000000E+00 0.  1.
        -11    1    3    3    0    0  0.83286485696E+02 -0.11561957876E+03 -0.27834287869E+03  0.31269679213E+03  0.00000000000E+00 0. -1.
          2    1    6    6  502    0 -0.30425985794E+03 -0.90891132121E+02  0.50968180405E+02  0.32161003477E+03  0.00000000000E+00 0. -1.
          3    1    5    5  503    0  0.28688271742E+03  0.26461390752E+03 -0.15909829634E+03  0.42146705862E+03  0.00000000000E+00 0. -1.
         -4    1    5    5    0  503 -0.36979512587E+01  0.45721482904E+01  0.13359118813E+01  0.60302606955E+01  0.00000000000E+00 0.  1.
         -1    1    6    6    0  502 -0.15760007712E+03 -0.37797229212E+02  0.84237901998E+02  0.18265387753E+03  0.00000000000E+00 0.  1.
<mgrwt>
<rscale>  0 0.14344448E+04</rscale>
<asrwt>0</asrwt>
<pdfrwt beam="1">  1        2 0.16490923E+00 0.14344448E+04</pdfrwt>
<pdfrwt beam="2">  1       -2 0.73830537E-01 0.14344448E+04</pdfrwt>
<totfact> 0.36413045E+01</totfact>
</mgrwt>
</event>
<event>
12    1  0.1536832E-007  0.1748169E+04  0.7818608E-02  0.8734359E-01
          2   -1    0    0  501    0  0.00000000000E+00  0.00000000000E+00  0.75532468274E+03  0.75532468274E+03  0.00000000000E+00 0.  1.
         -2   -1    0    0    0  501 -0.00000000000E+00 -0.00000000000E+00 -0.10115174859E+04  0.10115174859E+04  0.00000000000E+00 0. -1.
         23    2    1    2    0    0  0.13689121040E+03  0.18705237723E+03  0.50447212062E+03  0.56277205673E+03  0.92154609463E+02 0.  0.
        254    2    1    2    0    0 -0.13689121040E+03 -0.18705237723E+03 -0.76066492373E+03  0.12040701119E+04  0.90412715520E+03 0.  0.
        -24    2    4    4    0    0  0.25261087747E+03 -0.15535127472E+03  0.40175620906E+02  0.30939594184E+03  0.78520661870E+02 0.  0.
         24    2    4    4    0    0 -0.38950208786E+03 -0.31701102505E+02 -0.80084054464E+03  0.89467417002E+03  0.79871498094E+02 0.  0.
         11    1    3    3    0    0  0.66302607321E+02  0.39331668779E+02  0.98861494948E+02  0.12536590880E+03  0.00000000000E+00 0. -1.
        -11    1    3    3    0    0  0.70588603075E+02  0.14772070845E+03  0.40561062567E+03  0.43740614793E+03  0.00000000000E+00 0.  1.
          2    1    6    6  502    0 -0.23928135929E+03 -0.52694196132E+01 -0.56748426933E+03  0.61589100628E+03  0.00000000000E+00 0. -1.
          3    1    5    5  503    0  0.16720061149E+03 -0.14361353226E+03  0.33258575945E+02  0.22290586355E+03  0.00000000000E+00 0. -1.
         -4    1    5    5    0  503  0.85410265978E+02 -0.11737742467E+02  0.69170449606E+01  0.86490078296E+02  0.00000000000E+00 0.  1.
         -1    1    6    6    0  502 -0.15022072858E+03 -0.26431682892E+02 -0.23335627531E+03  0.27878316373E+03  0.00000000000E+00 0.  1.
<mgrwt>
<rscale>  0 0.17481695E+04</rscale>
<asrwt>0</asrwt>
<pdfrwt beam="1">  1        2 0.11620380E+00 0.17481695E+04</pdfrwt>
<pdfrwt beam="2">  1       -2 0.15561808E+00 0.17481695E+04</pdfrwt>
<totfact> 0.95614211E+00</totfact>
</mgrwt>
</event>
<event>
12    1  0.1536832E-007  0.1829701E+04  0.7818608E-02  0.8690662E-01
          2   -1    0    0  501    0  0.00000000000E+00  0.00000000000E+00  0.13188803422E+04  0.13188803422E+04  0.00000000000E+00 0. -1.
         -2   -1    0    0    0  501 -0.00000000000E+00 -0.00000000000E+00 -0.63459237981E+03  0.63459237981E+03  0.00000000000E+00 0.  1.
         23    2    1    2    0    0 -0.50334100533E+03  0.44089563799E+03  0.80714049781E+01  0.67524980823E+03  0.90310711926E+02 0.  0.
        254    2    1    2    0    0  0.50334100533E+03 -0.44089563799E+03  0.67621655738E+03  0.12782229138E+04  0.85372352288E+03 0.  0.
        -24    2    4    4    0    0 -0.62024851201E+02 -0.30021719436E+03  0.60869728054E+03  0.68628675141E+03  0.80620592119E+02 0.  0.
         24    2    4    4    0    0  0.56536585653E+03 -0.14067844363E+03  0.67519276844E+02  0.59193616234E+03  0.80003695592E+02 0.  0.
         11    1    3    3    0    0 -0.17513613534E+03  0.17738438259E+03  0.42789506813E+02  0.25292059422E+03  0.00000000000E+00 0.  1.
        -11    1    3    3    0    0 -0.32820486999E+03  0.26351125540E+03 -0.34718101835E+02  0.42232921401E+03  0.00000000000E+00 0. -1.
          2    1    6    6  502    0  0.21123968190E+03 -0.50670114682E+02  0.64255416601E+02  0.22653569762E+03  0.00000000000E+00 0. -1.
          1    1    5    5  503    0 -0.64159406608E+01 -0.11372730723E+02  0.36997107232E+01  0.13571704318E+02  0.00000000000E+00 0. -1.
         -2    1    5    5    0  503 -0.55608910540E+02 -0.28884446364E+03  0.60499756981E+03  0.67271504709E+03  0.00000000000E+00 0.  1.
         -1    1    6    6    0  502  0.35412617463E+03 -0.90008328947E+02  0.32638602430E+01  0.36540046473E+03  0.00000000000E+00 0.  1.
<mgrwt>
<rscale>  0 0.18297010E+04</rscale>
<asrwt>0</asrwt>
<pdfrwt beam="1">  1        2 0.20290467E+00 0.18297010E+04</pdfrwt>
<pdfrwt beam="2">  1       -2 0.97629597E-01 0.18297010E+04</pdfrwt>
<totfact> 0.13271983E+01</totfact>
</mgrwt>
</event>
<event>
12    1  0.1536832E-007  0.2174402E+04  0.7818608E-02  0.8529159E-01
         -2   -1    0    0    0  501 -0.00000000000E+00  0.00000000000E+00  0.30665284008E+03  0.30665284008E+03  0.00000000000E+00 0.  1.
          2   -1    0    0  501    0  0.00000000000E+00 -0.00000000000E+00 -0.38545404995E+04  0.38545404995E+04  0.00000000000E+00 0. -1.
         23    2    1    2    0    0  0.53207538538E+03 -0.14452070020E+03 -0.27883984555E+04  0.28439187069E+04  0.93366033717E+02 0.  0.
        254    2    1    2    0    0 -0.53207538538E+03  0.14452070020E+03 -0.75948920387E+03  0.13172746326E+04  0.92433660454E+03 0.  0.
        -24    2    4    4    0    0 -0.47828113378E+03  0.33167461569E+03 -0.89220360348E+03  0.10683140655E+04  0.80664607039E+02 0.  0.
         24    2    4    4    0    0 -0.53794251599E+02 -0.18715391549E+03  0.13271439961E+03  0.24896056715E+03  0.80298459160E+02 0.  0.
         11    1    3    3    0    0  0.43359171015E+02 -0.37419942842E+02 -0.22691090992E+03  0.23402741479E+03  0.00000000000E+00 0. -1.
        -11    1    3    3    0    0  0.48871621436E+03 -0.10710075736E+03 -0.25614875456E+04  0.26098912921E+04  0.00000000000E+00 0.  1.
          4    1    6    6  502    0 -0.70003402087E+02 -0.17693558165E+03  0.12768309365E+03  0.22914983911E+03  0.00000000000E+00 0. -1.
          1    1    5    5  503    0 -0.28337877232E+03  0.23476799206E+03 -0.51796816789E+03  0.63538221697E+03  0.00000000000E+00 0. -1.
         -2    1    5    5    0  503 -0.19490236146E+03  0.96906623632E+02 -0.37423543559E+03  0.43293184852E+03  0.00000000000E+00 0.  1.
         -3    1    6    6    0  502  0.16209150488E+02 -0.10218333839E+02  0.50313059596E+01  0.19810728045E+02  0.00000000000E+00 0.  1.
<mgrwt>
<rscale>  0 0.21744018E+04</rscale>
<asrwt>0</asrwt>
<pdfrwt beam="1">  1        2 0.59300627E+00 0.21744018E+04</pdfrwt>
<pdfrwt beam="2">  1       -2 0.47177357E-01 0.21744018E+04</pdfrwt>
<totfact> 0.17507342E+00</totfact>
</mgrwt>
</event>
<event>
12    1  0.1536832E-007  0.1016681E+04  0.7818608E-02  0.9290436E-01
          2   -1    0    0  501    0  0.00000000000E+00  0.00000000000E+00  0.93495630068E+03  0.93495630068E+03  0.00000000000E+00 0. -1.
         -2   -1    0    0    0  501 -0.00000000000E+00 -0.00000000000E+00 -0.27638740750E+03  0.27638740750E+03  0.00000000000E+00 0.  1.
         23    2    1    2    0    0  0.75781238910E+02 -0.51181769213E+00  0.99982240091E+02  0.15363684966E+03  0.88683567309E+02 0.  0.
        254    2    1    2    0    0 -0.75781238910E+02  0.51181769213E+00  0.55858665309E+03  0.10577068585E+04  0.89497580494E+03 0.  0.
        -24    2    4    4    0    0 -0.18562061686E+03  0.34652946416E+01 -0.20067464853E+03  0.28615299277E+03  0.84535194066E+02 0.  0.
         24    2    4    4    0    0  0.10983937795E+03 -0.29534769495E+01  0.75926130163E+03  0.77155386575E+03  0.82123270925E+02 0.  0.
         11    1    3    3    0    0  0.17899203366E+02 -0.22448098624E+02 -0.74380366539E+01  0.29658438972E+02  0.00000000000E+00 0.  1.
        -11    1    3    3    0    0  0.57882035545E+02  0.21936280932E+02  0.10742027674E+03  0.12397841068E+03  0.00000000000E+00 0. -1.
          2    1    6    6  502    0  0.95287353686E+02 -0.28551139073E+02  0.67512869424E+03  0.68241746835E+03  0.00000000000E+00 0. -1.
          1    1    5    5  503    0 -0.16521299686E+03  0.30591584188E+02 -0.18079008579E+03  0.24681214410E+03  0.00000000000E+00 0. -1.
         -2    1    5    5    0  503 -0.20407620008E+02 -0.27126289546E+02 -0.19884562741E+02  0.39340848673E+02  0.00000000000E+00 0.  1.
         -1    1    6    6    0  502  0.14552024267E+02  0.25597662123E+02  0.84132607385E+02  0.89136397402E+02  0.00000000000E+00 0.  1.
<mgrwt>
<rscale>  0 0.10166812E+04</rscale>
<asrwt>0</asrwt>
<pdfrwt beam="1">  1        2 0.14383943E+00 0.10166812E+04</pdfrwt>
<pdfrwt beam="2">  1       -2 0.42521140E-01 0.10166812E+04</pdfrwt>
<totfact> 0.14519282E+02</totfact>
</mgrwt>
</event>
<event>
12    1  0.1536832E-007  0.2166596E+04  0.7818608E-02  0.8532462E-01
         -2   -1    0    0    0  501 -0.00000000000E+00  0.00000000000E+00  0.65884291760E+03  0.65884291760E+03  0.00000000000E+00 0.  1.
          2   -1    0    0  501    0  0.00000000000E+00 -0.00000000000E+00 -0.17812049631E+04  0.17812049631E+04  0.00000000000E+00 0. -1.
         23    2    1    2    0    0  0.58519151985E+03  0.62245960181E+02 -0.12259444410E+04  0.13629069679E+04  0.90840278922E+02 0.  0.
        254    2    1    2    0    0 -0.58519151985E+03 -0.62245960181E+02  0.10358239549E+03  0.10771409128E+04  0.89620285591E+03 0.  0.
        -24    2    4    4    0    0 -0.77944190185E+03 -0.20098850077E+03  0.14326279145E+03  0.82161929327E+03  0.81289481885E+02 0.  0.
         24    2    4    4    0    0  0.19425038200E+03  0.13874254059E+03 -0.39680395964E+02  0.25552161954E+03  0.82061323123E+02 0.  0.
         11    1    3    3    0    0  0.58209137857E+03  0.62064932417E+02 -0.11836237563E+04  0.13204725008E+04  0.00000000000E+00 0. -1.
        -11    1    3    3    0    0  0.31001412789E+01  0.18102776365E+00 -0.42320684623E+02  0.42434467051E+02  0.00000000000E+00 0.  1.
          2    1    6    6  502    0  0.53071446774E+02  0.92899252293E+01  0.15721769223E+02  0.56125352569E+02  0.00000000000E+00 0. -1.
          3    1    5    5  503    0 -0.45709804382E+03 -0.10272152545E+03  0.45318238712E+02  0.47068468874E+03  0.00000000000E+00 0. -1.
         -4    1    5    5    0  503 -0.32234385803E+03 -0.98266975320E+02  0.97944552739E+02  0.35093460453E+03  0.00000000000E+00 0.  1.
         -1    1    6    6    0  502  0.14117893523E+03  0.12945261536E+03 -0.55402165187E+02  0.19939626697E+03  0.00000000000E+00 0.  1.
<mgrwt>
<rscale>  0 0.21665957E+04</rscale>
<asrwt>0</asrwt>
<pdfrwt beam="1">  1        2 0.27403153E+00 0.21665957E+04</pdfrwt>
<pdfrwt beam="2">  1       -2 0.10136045E+00 0.21665957E+04</pdfrwt>
<totfact> 0.64798469E+00</totfact>
</mgrwt>
</event>
<event>
12    1  0.1536832E-007  0.1509085E+04  0.7818608E-02  0.8878434E-01
          1   -1    0    0  501    0  0.00000000000E+00  0.00000000000E+00  0.81049620476E+03  0.81049620476E+03  0.00000000000E+00 0. -1.
         -1   -1    0    0    0  501 -0.00000000000E+00 -0.00000000000E+00 -0.70245198489E+03  0.70245198489E+03  0.00000000000E+00 0.  1.
         23    2    1    2    0    0 -0.20947747477E+03  0.72300805393E+02  0.46549765933E+03  0.52385274171E+03  0.92873059931E+02 0.  0.
        254    2    1    2    0    0  0.20947747477E+03 -0.72300805393E+02 -0.35745343945E+03  0.98909544794E+03  0.89522546035E+03 0.  0.
        -24    2    4    4    0    0  0.45655876933E+03 -0.30467191265E+03 -0.11960185779E+03  0.56745850733E+03  0.80210154902E+02 0.  0.
         24    2    4    4    0    0 -0.24708129456E+03  0.23237110725E+03 -0.23785158167E+03  0.42163694061E+03  0.78478259242E+02 0.  0.
         11    1    3    3    0    0 -0.18714544464E+03  0.74225687525E+02  0.45786637224E+03  0.50017445453E+03  0.00000000000E+00 0. -1.
        -11    1    3    3    0    0 -0.22332030136E+02 -0.19248821319E+01  0.76312870890E+01  0.23678287182E+02  0.00000000000E+00 0.  1.
          2    1    6    6  502    0 -0.16107405122E+03  0.13128330100E+03 -0.10117350625E+03  0.23111952203E+03  0.00000000000E+00 0. -1.
          1    1    5    5  503    0  0.18234675953E+03 -0.94614941528E+02 -0.77135682719E+02  0.21943618986E+03  0.00000000000E+00 0. -1.
         -2    1    5    5    0  503  0.27421200980E+03 -0.21005697112E+03 -0.42466175069E+02  0.34802231747E+03  0.00000000000E+00 0.  1.
         -1    1    6    6    0  502 -0.86007243345E+02  0.10108780625E+03 -0.13667807542E+03  0.19051741858E+03  0.00000000000E+00 0.  1.
<mgrwt>
<rscale>  0 0.15090854E+04</rscale>
<asrwt>0</asrwt>
<pdfrwt beam="1">  1        1 0.12469172E+00 0.15090854E+04</pdfrwt>
<pdfrwt beam="2">  1       -1 0.10806954E+00 0.15090854E+04</pdfrwt>
<totfact> 0.16658818E+01</totfact>
</mgrwt>
</event>
<event>
12    1  0.1536832E-007  0.1508487E+04  0.7818608E-02  0.8878829E-01
          2   -1    0    0  501    0  0.00000000000E+00  0.00000000000E+00  0.76371766298E+03  0.76371766298E+03  0.00000000000E+00 0.  1.
         -2   -1    0    0    0  501 -0.00000000000E+00 -0.00000000000E+00 -0.74488680852E+03  0.74488680852E+03  0.00000000000E+00 0. -1.
         23    2    1    2    0    0  0.41835100138E+03 -0.24000572662E+03  0.51267792155E+02  0.49378809332E+03  0.92617414272E+02 0.  0.
        254    2    1    2    0    0 -0.41835100138E+03  0.24000572662E+03 -0.32436937697E+02  0.10148163782E+04  0.89228908843E+03 0.  0.
        -24    2    4    4    0    0  0.14727432650E+03  0.29097102162E+02  0.28204372998E+03  0.32942861428E+03  0.80238255737E+02 0.  0.
         24    2    4    4    0    0 -0.56562532788E+03  0.21090862445E+03 -0.31448066768E+03  0.68538776390E+03  0.80273514599E+02 0.  0.
         11    1    3    3    0    0  0.26842876759E+03 -0.14696467890E+03 -0.12210372730E+02  0.30627065369E+03  0.00000000000E+00 0.  1.
        -11    1    3    3    0    0  0.14992223379E+03 -0.93041047721E+02  0.63478164885E+02  0.18751743962E+03  0.00000000000E+00 0. -1.
          2    1    6    6  502    0 -0.36192456651E+03  0.17320409304E+03 -0.19305499477E+03  0.44526315892E+03  0.00000000000E+00 0. -1.
          3    1    5    5  503    0  0.95083955646E+02 -0.20888632333E+02  0.17541448900E+03  0.20061788687E+03  0.00000000000E+00 0. -1.
         -2    1    5    5    0  503  0.52190370859E+02  0.49985734495E+02  0.10662924099E+03  0.12881072742E+03  0.00000000000E+00 0.  1.
         -1    1    6    6    0  502 -0.20370076138E+03  0.37704531417E+02 -0.12142567291E+03  0.24012460498E+03  0.00000000000E+00 0.  1.
<mgrwt>
<rscale>  0 0.15084869E+04</rscale>
<asrwt>0</asrwt>
<pdfrwt beam="1">  1        2 0.11749503E+00 0.15084869E+04</pdfrwt>
<pdfrwt beam="2">  1       -2 0.11459797E+00 0.15084869E+04</pdfrwt>
<totfact> 0.21031288E+01</totfact>
</mgrwt>
</event>
<event>
12    1  0.1536832E-007  0.1373695E+04  0.7818608E-02  0.8973083E-01
         -2   -1    0    0    0  501 -0.00000000000E+00  0.00000000000E+00  0.42945001040E+03  0.42945001040E+03  0.00000000000E+00 0. -1.
          2   -1    0    0  501    0  0.00000000000E+00 -0.00000000000E+00 -0.10985198920E+04  0.10985198920E+04  0.00000000000E+00 0.  1.
         23    2    1    2    0    0  0.86565838410E+02 -0.31392369242E+03  0.20294447887E+02  0.33923257592E+03  0.92871669024E+02 0.  0.
        254    2    1    2    0    0 -0.86565838410E+02  0.31392369242E+03 -0.68936432946E+03  0.11887373265E+04  0.91204798313E+03 0.  0.
        -24    2    4    4    0    0 -0.10465707599E+03  0.34077337588E+03 -0.89459355891E+03  0.96636555696E+03  0.80530470984E+02 0.  0.
         24    2    4    4    0    0  0.18091237580E+02 -0.26849683467E+02  0.20522922945E+03  0.22237176950E+03  0.79258872501E+02 0.  0.
         13    1    3    3    0    0 -0.62360561057E+01 -0.88645007530E+00  0.10905906889E+02  0.12594165100E+02  0.00000000000E+00 0.  1.
        -13    1    3    3    0    0  0.92801894516E+02 -0.31303724234E+03  0.93885409987E+01  0.32663841082E+03  0.00000000000E+00 0. -1.
          2    1    6    6  502    0 -0.15100842722E+02 -0.37156351691E+02  0.16206585927E+03  0.16695500191E+03  0.00000000000E+00 0. -1.
          3    1    5    5  503    0 -0.49458346666E+02  0.25530643358E+03 -0.57754712405E+03  0.63339417710E+03  0.00000000000E+00 0. -1.
         -4    1    5    5    0  503 -0.55198729324E+02  0.85466942303E+02 -0.31704643487E+03  0.33297137986E+03  0.00000000000E+00 0.  1.
         -1    1    6    6    0  502  0.33192080302E+02  0.10306668224E+02  0.43163370177E+02  0.55416767586E+02  0.00000000000E+00 0.  1.
<mgrwt>
<rscale>  0 0.13736948E+04</rscale>
<asrwt>0</asrwt>
<pdfrwt beam="1">  1        2 0.16900306E+00 0.13736948E+04</pdfrwt>
<pdfrwt beam="2">  1       -2 0.66069233E-01 0.13736948E+04</pdfrwt>
<totfact> 0.44876968E+01</totfact>
</mgrwt>
</event>
<event>
12    1  0.1536832E-007  0.1371715E+04  0.7818608E-02  0.8974551E-01
         -2   -1    0    0    0  501 -0.00000000000E+00  0.00000000000E+00  0.73394327818E+03  0.73394327818E+03  0.00000000000E+00 0.  1.
          2   -1    0    0  501    0  0.00000000000E+00 -0.00000000000E+00 -0.64092203973E+03  0.64092203973E+03  0.00000000000E+00 0. -1.
         23    2    1    2    0    0 -0.37760882108E+03  0.10734756771E+03 -0.23905615394E+02  0.40387407375E+03  0.91819752512E+02 0.  0.
        254    2    1    2    0    0  0.37760882108E+03 -0.10734756771E+03  0.11692685384E+03  0.97099124416E+03  0.88036366636E+03 0.  0.
        -24    2    4    4    0    0  0.61628639766E+03 -0.24002453453E+03  0.81936325985E+01  0.66660628922E+03  0.82922301492E+02 0.  0.
         24    2    4    4    0    0 -0.23867757658E+03  0.13267696683E+03  0.10873322124E+03  0.30438495495E+03  0.79101986742E+02 0.  0.
         13    1    3    3    0    0 -0.29219340958E+03  0.91630708431E+02 -0.55965682474E+02  0.31129621415E+03  0.00000000000E+00 0. -1.
        -13    1    3    3    0    0 -0.85415411501E+02  0.15716859275E+02  0.32060067079E+02  0.92577859602E+02  0.00000000000E+00 0.  1.
          4    1    6    6  502    0 -0.10306086140E+03  0.20818215854E+02  0.63622214705E+02  0.12289314654E+03  0.00000000000E+00 0. -1.
          3    1    5    5  503    0  0.17203847143E+02  0.46832463921E+01 -0.73517065157E+01  0.19286076376E+02  0.00000000000E+00 0. -1.
         -4    1    5    5    0  503  0.59908255052E+03 -0.24470778093E+03  0.15545339114E+02  0.64732021284E+03  0.00000000000E+00 0.  1.
         -3    1    6    6    0  502 -0.13561671518E+03  0.11185875097E+03  0.45111006538E+02  0.18149180840E+03  0.00000000000E+00 0.  1.
<mgrwt>
<rscale>  0 0.13717149E+04</rscale>
<asrwt>0</asrwt>
<pdfrwt beam="1">  1        2 0.98603391E-01 0.13717149E+04</pdfrwt>
<pdfrwt beam="2">  1       -2 0.11291435E+00 0.13717149E+04</pdfrwt>
<totfact> 0.27511212E+01</totfact>
</mgrwt>
</event>
<event>
12    1  0.1536832E-007  0.1743128E+04  0.7818608E-02  0.8737142E-01
          3   -1    0    0  501    0  0.00000000000E+00  0.00000000000E+00  0.24905375348E+03  0.24905375348E+03  0.00000000000E+00 0.  1.
         -3   -1    0    0    0  501 -0.00000000000E+00 -0.00000000000E+00 -0.30500401241E+04  0.30500401241E+04  0.00000000000E+00 0. -1.
         23    2    1    2    0    0  0.34434454486E+03  0.15472824276E+02 -0.21301927640E+04  0.21599134275E+04  0.93232122494E+02 0.  0.
        254    2    1    2    0    0 -0.34434454486E+03 -0.15472824276E+02 -0.67079360665E+03  0.11391804501E+04  0.85378888569E+03 0.  0.
        -24    2    4    4    0    0 -0.47120169620E+03  0.29980469528E+03 -0.48327105234E+03  0.74291613889E+03  0.80371547081E+02 0.  0.
         24    2    4    4    0    0  0.12685715134E+03 -0.31527751955E+03 -0.18752255430E+03  0.39626431121E+03  0.79800030000E+02 0.  0.
         13    1    3    3    0    0  0.30416939431E+03 -0.67790504466E+01 -0.16747639323E+04  0.17021748455E+04  0.00000000000E+00 0. -1.
        -13    1    3    3    0    0  0.40175150553E+02  0.22251874723E+02 -0.45542883171E+03  0.45773858195E+03  0.00000000000E+00 0.  1.
          2    1    6    6  502    0  0.10011241628E+03 -0.19008305312E+03 -0.15276087107E+03  0.26360945868E+03  0.00000000000E+00 0. -1.
          3    1    5    5  503    0 -0.25258848583E+03  0.12123713384E+03 -0.21113193155E+03  0.35082200375E+03  0.00000000000E+00 0. -1.
         -4    1    5    5    0  503 -0.21861321037E+03  0.17856756144E+03 -0.27213912079E+03  0.39209413514E+03  0.00000000000E+00 0.  1.
         -1    1    6    6    0  502  0.26744735060E+02 -0.12519446644E+03 -0.34761683235E+02  0.13265485253E+03  0.00000000000E+00 0.  1.
<mgrwt>
<rscale>  0 0.17431282E+04</rscale>
<asrwt>0</asrwt>
<pdfrwt beam="1">  1        3 0.38315963E-01 0.17431282E+04</pdfrwt>
<pdfrwt beam="2">  1       -3 0.46923693E+00 0.17431282E+04</pdfrwt>
<totfact> 0.75011609E-02</totfact>
</mgrwt>
</event>
<event>
12    1  0.1536832E-007  0.2061839E+04  0.7818608E-02  0.8578243E-01
          2   -1    0    0  501    0  0.00000000000E+00  0.00000000000E+00  0.85022237456E+03  0.85022237456E+03  0.00000000000E+00 0. -1.
         -2   -1    0    0    0  501 -0.00000000000E+00 -0.00000000000E+00 -0.12500196582E+04  0.12500196582E+04  0.00000000000E+00 0.  1.
         23    2    1    2    0    0  0.61197827063E+03 -0.23337646528E+03  0.36328836161E+03  0.75408260768E+03  0.87636563471E+02 0.  0.
        254    2    1    2    0    0 -0.61197827063E+03  0.23337646528E+03 -0.76308564522E+03  0.13461594251E+04  0.89490978175E+03 0.  0.
        -24    2    4    4    0    0 -0.15291694908E+03  0.50625494446E+02 -0.82279491084E+03  0.84225946839E+03  0.80392865244E+02 0.  0.
         24    2    4    4    0    0 -0.45906132154E+03  0.18275097084E+03  0.59709265617E+02  0.50389995667E+03  0.78833721574E+02 0.  0.
         11    1    3    3    0    0  0.38744748258E+03 -0.11837202742E+03  0.26065018518E+03  0.48173229876E+03  0.00000000000E+00 0. -1.
        -11    1    3    3    0    0  0.22453078804E+03 -0.11500443786E+03  0.10263817643E+03  0.27235030892E+03  0.00000000000E+00 0.  1.
          2    1    6    6  502    0 -0.22213660605E+03  0.10892207168E+03 -0.49498682916E+01  0.24745341106E+03  0.00000000000E+00 0. -1.
          1    1    5    5  503    0 -0.78187145030E+02 -0.37927475085E+01 -0.51391515057E+03  0.51984266521E+03  0.00000000000E+00 0. -1.
         -2    1    5    5    0  503 -0.74729804053E+02  0.54418241954E+02 -0.30887976026E+03  0.32241680318E+03  0.00000000000E+00 0.  1.
         -1    1    6    6    0  502 -0.23692471549E+03  0.73828899153E+02  0.64659133908E+02  0.25644654562E+03  0.00000000000E+00 0.  1.
<mgrwt>
<rscale>  0 0.20618387E+04</rscale>
<asrwt>0</asrwt>
<pdfrwt beam="1">  1        2 0.13080344E+00 0.20618387E+04</pdfrwt>
<pdfrwt beam="2">  1       -2 0.19231072E+00 0.20618387E+04</pdfrwt>
<totfact> 0.43849295E+00</totfact>
</mgrwt>
</event>
<event>
12    1  0.1536832E-007  0.1540340E+04  0.7818608E-02  0.8858062E-01
          2   -1    0    0  501    0  0.00000000000E+00  0.00000000000E+00  0.10162408552E+04  0.10162408552E+04  0.00000000000E+00 0.  1.
         -2   -1    0    0    0  501 -0.00000000000E+00 -0.00000000000E+00 -0.58368201454E+03  0.58368201454E+03  0.00000000000E+00 0. -1.
         23    2    1    2    0    0 -0.43452993157E+02  0.50267813799E+03  0.21960546516E+03  0.55824742451E+03  0.94022091131E+02 0.  0.
        254    2    1    2    0    0  0.43452993157E+02 -0.50267813799E+03  0.21295337551E+03  0.10416754452E+04  0.88609543505E+03 0.  0.
        -24    2    4    4    0    0 -0.84173343056E+02 -0.71608696017E+03  0.36426198616E+02  0.72639468752E+03  0.80353518306E+02 0.  0.
         24    2    4    4    0    0  0.12762633621E+03  0.21340882218E+03  0.17652717689E+03  0.31528075771E+03  0.80051888932E+02 0.  0.
         11    1    3    3    0    0  0.10206904939E+02  0.24866037887E+03  0.14538233582E+03  0.28822246355E+03  0.00000000000E+00 0.  1.
        -11    1    3    3    0    0 -0.53659898096E+02  0.25401775913E+03  0.74223129334E+02  0.27002496096E+03  0.00000000000E+00 0. -1.
          2    1    6    6  502    0  0.10313515014E+03  0.21158009023E+03  0.14990234600E+03  0.27905860874E+03  0.00000000000E+00 0. -1.
          3    1    5    5  503    0 -0.83188172052E+02 -0.38001934554E+03  0.31474548793E+02  0.39028915201E+03  0.00000000000E+00 0. -1.
         -4    1    5    5    0  503 -0.98517100380E+00 -0.33606761463E+03  0.49516498224E+01  0.33610553551E+03  0.00000000000E+00 0.  1.
         -1    1    6    6    0  502  0.24491186077E+02  0.18287319472E+01  0.26624830886E+02  0.36222148965E+02  0.00000000000E+00 0.  1.
<mgrwt>
<rscale>  0 0.15403396E+04</rscale>
<asrwt>0</asrwt>
<pdfrwt beam="1">  1        2 0.15634475E+00 0.15403396E+04</pdfrwt>
<pdfrwt beam="2">  1       -2 0.89797233E-01 0.15403396E+04</pdfrwt>
<totfact> 0.25170690E+01</totfact>
</mgrwt>
</event>
<event>
12    1  0.1536832E-007  0.1694362E+04  0.7818608E-02  0.8764587E-01
          2   -1    0    0  501    0  0.00000000000E+00  0.00000000000E+00  0.88657964421E+03  0.88657964421E+03  0.00000000000E+00 0.  1.
         -2   -1    0    0    0  501 -0.00000000000E+00 -0.00000000000E+00 -0.80953297380E+03  0.80953297380E+03  0.00000000000E+00 0. -1.
         23    2    1    2    0    0  0.18981057682E+03 -0.57522736645E+03  0.21475732476E+03  0.64891464209E+03  0.89749239515E+02 0.  0.
        254    2    1    2    0    0 -0.18981057682E+03  0.57522736645E+03 -0.13771065435E+03  0.10471979759E+04  0.84305681794E+03 0.  0.
        -24    2    4    4    0    0  0.14593419147E+03  0.54985265548E+03 -0.31877743558E+03  0.65648326842E+03  0.75607521430E+02 0.  0.
         24    2    4    4    0    0 -0.33574476829E+03  0.25374710965E+02  0.18106678123E+03  0.39071470751E+03  0.80649724142E+02 0.  0.
         13    1    3    3    0    0 -0.96384718659E+01 -0.38282279996E+02  0.11307186895E+02  0.41064407667E+02  0.00000000000E+00 0. -1.
        -13    1    3    3    0    0  0.19944904869E+03 -0.53694508645E+03  0.20345013786E+03  0.60785023442E+03  0.00000000000E+00 0.  1.
          4    1    6    6  502    0 -0.11825472078E+03  0.14600447170E+02  0.10859513726E+03  0.16121493690E+03  0.00000000000E+00 0. -1.
          1    1    5    5  503    0  0.28438348539E+02  0.24168797091E+03 -0.15179248933E+03  0.28681487891E+03  0.00000000000E+00 0. -1.
         -2    1    5    5    0  503  0.11749584293E+03  0.30816468457E+03 -0.16698494625E+03  0.36966838951E+03  0.00000000000E+00 0.  1.
         -3    1    6    6    0  502 -0.21749004751E+03  0.10774263794E+02  0.72471643976E+02  0.22949977061E+03  0.00000000000E+00 0.  1.
<mgrwt>
<rscale>  0 0.16943618E+04</rscale>
<asrwt>0</asrwt>
<pdfrwt beam="1">  1        2 0.13639687E+00 0.16943618E+04</pdfrwt>
<pdfrwt beam="2">  1       -2 0.12454353E+00 0.16943618E+04</pdfrwt>
<totfact> 0.13793718E+01</totfact>
</mgrwt>
</event>
<event>
12    1  0.1536832E-007  0.1649303E+04  0.7818608E-02  0.8790819E-01
         -1   -1    0    0    0  501 -0.00000000000E+00  0.00000000000E+00  0.69710798752E+03  0.69710798752E+03  0.00000000000E+00 0.  1.
          1   -1    0    0  501    0  0.00000000000E+00 -0.00000000000E+00 -0.97553043876E+03  0.97553043876E+03  0.00000000000E+00 0. -1.
         23    2    1    2    0    0  0.37291201947E+03  0.39211105764E+03 -0.31625246138E+03  0.63354493287E+03  0.92461380301E+02 0.  0.
        254    2    1    2    0    0 -0.37291201947E+03 -0.39211105764E+03  0.37830010149E+02  0.10390934934E+04  0.88626729748E+03 0.  0.
        -24    2    4    4    0    0 -0.21020970829E+03 -0.74090322309E+02 -0.40210462643E+03  0.46669212500E+03  0.80224133647E+02 0.  0.
         24    2    4    4    0    0 -0.16270231118E+03 -0.31802073533E+03  0.43993463658E+03  0.57240136841E+03  0.80570540138E+02 0.  0.
         11    1    3    3    0    0  0.36413759685E+02  0.76511445182E+02 -0.73843873048E+02  0.11239608857E+03  0.00000000000E+00 0.  1.
        -11    1    3    3    0    0  0.33649825978E+03  0.31559961246E+03 -0.24240858834E+03  0.52114884431E+03  0.00000000000E+00 0. -1.
          4    1    6    6  502    0 -0.46046203869E+02 -0.17844592690E+03  0.22199441904E+03  0.28852161757E+03  0.00000000000E+00 0. -1.
          1    1    5    5  503    0 -0.18557142133E+03 -0.39257448690E+02 -0.35908197873E+03  0.40610068597E+03  0.00000000000E+00 0. -1.
         -2    1    5    5    0  503 -0.24638286965E+02 -0.34832873619E+02 -0.43022647691E+02  0.60591439028E+02  0.00000000000E+00 0.  1.
         -3    1    6    6    0  502 -0.11665610731E+03 -0.13957480843E+03  0.21794021753E+03  0.28387975084E+03  0.00000000000E+00 0.  1.
<mgrwt>
<rscale>  0 0.16493030E+04</rscale>
<asrwt>0</asrwt>
<pdfrwt beam="1">  1        1 0.15008161E+00 0.16493030E+04</pdfrwt>
<pdfrwt beam="2">  1       -1 0.10724738E+00 0.16493030E+04</pdfrwt>
<totfact> 0.12249135E+01</totfact>
</mgrwt>
</event>
<event>
12    1  0.1536832E-007  0.1549378E+04  0.7818608E-02  0.8852265E-01
          1   -1    0    0  501    0  0.00000000000E+00  0.00000000000E+00  0.10622259042E+04  0.10622259042E+04  0.00000000000E+00 0. -1.
         -1   -1    0    0    0  501 -0.00000000000E+00 -0.00000000000E+00 -0.56498608231E+03  0.56498608231E+03  0.00000000000E+00 0.  1.
         23    2    1    2    0    0 -0.21739811077E+02  0.44195352700E+03  0.43493954266E+03  0.62677711256E+03  0.88778396306E+02 0.  0.
        254    2    1    2    0    0  0.21739811077E+02 -0.44195352700E+03  0.62300279281E+02  0.10004348740E+04  0.89509389055E+03 0.  0.
        -24    2    4    4    0    0 -0.33923052467E+03  0.29311802429E+02  0.17228310798E+03  0.39158616738E+03  0.87873355237E+02 0.  0.
         24    2    4    4    0    0  0.36097033574E+03 -0.47126532943E+03 -0.10998282870E+03  0.60884870662E+03  0.78803115018E+02 0.  0.
         11    1    3    3    0    0  0.24744211477E+02  0.26020388122E+03  0.22147204387E+03  0.34259042897E+03  0.00000000000E+00 0. -1.
        -11    1    3    3    0    0 -0.46484022553E+02  0.18174964577E+03  0.21346749879E+03  0.28418668359E+03  0.00000000000E+00 0.  1.
          2    1    6    6  502    0  0.30588996119E+03 -0.43836964673E+03 -0.94201478628E+02  0.54278037373E+03  0.00000000000E+00 0. -1.
          1    1    5    5  503    0 -0.18498294916E+03  0.14433346035E+02  0.44684956691E+02  0.19085009383E+03  0.00000000000E+00 0. -1.
         -2    1    5    5    0  503 -0.15424757550E+03  0.14878456393E+02  0.12759815129E+03  0.20073607355E+03  0.00000000000E+00 0.  1.
         -1    1    6    6    0  502  0.55080374548E+02 -0.32895682701E+02 -0.15781350070E+02  0.66068332889E+02  0.00000000000E+00 0.  1.
<mgrwt>
<rscale>  0 0.15493777E+04</rscale>
<asrwt>0</asrwt>
<pdfrwt beam="1">  1        1 0.16341937E+00 0.15493777E+04</pdfrwt>
<pdfrwt beam="2">  1       -1 0.86920936E-01 0.15493777E+04</pdfrwt>
<totfact> 0.17020235E+01</totfact>
</mgrwt>
</event>
<event>
12    1  0.1536832E-007  0.2793477E+04  0.7818608E-02  0.8305296E-01
          1   -1    0    0  501    0  0.00000000000E+00  0.00000000000E+00  0.12592468149E+04  0.12592468149E+04  0.00000000000E+00 0. -1.
         -1   -1    0    0    0  501 -0.00000000000E+00 -0.00000000000E+00 -0.15492420709E+04  0.15492420709E+04  0.00000000000E+00 0.  1.
         23    2    1    2    0    0 -0.94910366854E+03  0.35056648752E+03 -0.86684702684E+03  0.13354532132E+04  0.91196935086E+02 0.  0.
        254    2    1    2    0    0  0.94910366854E+03 -0.35056648752E+03  0.57685177081E+03  0.14730356725E+04  0.90187664971E+03 0.  0.
        -24    2    4    4    0    0  0.38232020110E+03 -0.83320775038E+02  0.72255417355E+03  0.82479142214E+03  0.71311069354E+02 0.  0.
         24    2    4    4    0    0  0.56678346744E+03 -0.26724571249E+03 -0.14570240273E+03  0.64824425040E+03  0.79546515989E+02 0.  0.
         11    1    3    3    0    0 -0.44238979583E+03  0.19865808968E+03 -0.45585371451E+03  0.66556470541E+03  0.00000000000E+00 0. -1.
        -11    1    3    3    0    0 -0.50671387271E+03  0.15190839785E+03 -0.41099331232E+03  0.66988850782E+03  0.00000000000E+00 0.  1.
          2    1    6    6  502    0  0.47605123142E+03 -0.20833285680E+03 -0.14707768561E+03  0.54005481181E+03  0.00000000000E+00 0. -1.
          1    1    5    5  503    0  0.81516579108E+02 -0.33715695703E+02  0.11401234591E+03  0.14415448598E+03  0.00000000000E+00 0. -1.
         -2    1    5    5    0  503  0.30080362199E+03 -0.49605079335E+02  0.60854182763E+03  0.68063693617E+03  0.00000000000E+00 0.  1.
         -1    1    6    6    0  502  0.90732236026E+02 -0.58912855689E+02  0.13752828726E+01  0.10818943859E+03  0.00000000000E+00 0.  1.
<mgrwt>
<rscale>  0 0.27934768E+04</rscale>
<asrwt>0</asrwt>
<pdfrwt beam="1">  1        1 0.19373028E+00 0.27934768E+04</pdfrwt>
<pdfrwt beam="2">  1       -1 0.23834493E+00 0.27934768E+04</pdfrwt>
<totfact> 0.69681658E-01</totfact>
</mgrwt>
</event>
<event>
12    1  0.1536832E-007  0.1363460E+04  0.7818608E-02  0.8980701E-01
         -2   -1    0    0    0  501 -0.00000000000E+00  0.00000000000E+00  0.28389501682E+03  0.28389501682E+03  0.00000000000E+00 0.  1.
          2   -1    0    0  501    0  0.00000000000E+00 -0.00000000000E+00 -0.16370691872E+04  0.16370691872E+04  0.00000000000E+00 0. -1.
         23    2    1    2    0    0 -0.19731901377E+02  0.31043179021E+03 -0.65187295925E+03  0.72806097387E+03  0.91526948913E+02 0.  0.
        254    2    1    2    0    0  0.19731901377E+02 -0.31043179021E+03 -0.70130121117E+03  0.11929032302E+04  0.91347549693E+03 0.  0.
        -24    2    4    4    0    0  0.38989270766E+02 -0.62376704365E+03 -0.37374168900E+03  0.73218720405E+03  0.76221805943E+02 0.  0.
         24    2    4    4    0    0 -0.19257369389E+02  0.31333525344E+03 -0.32755952216E+03  0.46071602613E+03  0.80088631198E+02 0.  0.
         11    1    3    3    0    0  0.35302798107E+02  0.12011497431E+03 -0.22593644180E+03  0.25830441409E+03  0.00000000000E+00 0.  1.
        -11    1    3    3    0    0 -0.55034699484E+02  0.19031681590E+03 -0.42593651744E+03  0.46975655978E+03  0.00000000000E+00 0. -1.
          4    1    6    6  502    0 -0.47233202461E+02  0.13079473900E+03 -0.14965657147E+03  0.20429226258E+03  0.00000000000E+00 0. -1.
          3    1    5    5  503    0  0.61515315012E+02 -0.43158675684E+03 -0.25094917303E+03  0.50301764393E+03  0.00000000000E+00 0. -1.
         -4    1    5    5    0  503 -0.22526044246E+02 -0.19218028681E+03 -0.12279251598E+03  0.22916956012E+03  0.00000000000E+00 0.  1.
         -3    1    6    6    0  502  0.27975833072E+02  0.18254051444E+03 -0.17790295069E+03  0.25642376355E+03  0.00000000000E+00 0.  1.
<mgrwt>
<rscale>  0 0.13634600E+04</rscale>
<asrwt>0</asrwt>
<pdfrwt beam="1">  1        2 0.25185680E+00 0.13634600E+04</pdfrwt>
<pdfrwt beam="2">  1       -2 0.43676156E-01 0.13634600E+04</pdfrwt>
<totfact> 0.51564875E+01</totfact>
</mgrwt>
</event>
<event>
12    1  0.1536832E-007  0.3663547E+04  0.7818608E-02  0.8076088E-01
         -1   -1    0    0    0  501 -0.00000000000E+00  0.00000000000E+00  0.85913344246E+03  0.85913344246E+03  0.00000000000E+00 0.  1.
          1   -1    0    0  501    0  0.00000000000E+00 -0.00000000000E+00 -0.39055574108E+04  0.39055574108E+04  0.00000000000E+00 0. -1.
         23    2    1    2    0    0 -0.12646004717E+04 -0.11673725004E+04 -0.13841608299E+04  0.22106772497E+04  0.96019746447E+02 0.  0.
        254    2    1    2    0    0  0.12646004717E+04  0.11673725004E+04 -0.16622631384E+04  0.25540136035E+04  0.89324903485E+03 0.  0.
        -24    2    4    4    0    0  0.71089278127E+03  0.11652343224E+04 -0.10440940857E+04  0.17203326964E+04  0.79199455688E+02 0.  0.
         24    2    4    4    0    0  0.55370769039E+03  0.21381779337E+01 -0.61816905261E+03  0.83368090711E+03  0.79335358303E+02 0.  0.
         11    1    3    3    0    0 -0.10885999331E+04 -0.96054524070E+03 -0.11820229800E+04  0.18721312184E+04  0.00000000000E+00 0. -1.
        -11    1    3    3    0    0 -0.17600053852E+03 -0.20682725966E+03 -0.20213784995E+03  0.33854603126E+03  0.00000000000E+00 0.  1.
          4    1    6    6  502    0  0.31965775806E+03  0.29877012400E+02 -0.31614835951E+03  0.45058129497E+03  0.00000000000E+00 0. -1.
          1    1    5    5  503    0  0.26873129036E+03  0.48942132814E+03 -0.46399834808E+03  0.72597810564E+03  0.00000000000E+00 0. -1.
         -2    1    5    5    0  503  0.44216149090E+03  0.67581299429E+03 -0.58009573767E+03  0.99435459075E+03  0.00000000000E+00 0.  1.
         -3    1    6    6    0  502  0.23404993233E+03 -0.27738834466E+02 -0.30202069311E+03  0.38309961214E+03  0.00000000000E+00 0.  1.
<mgrwt>
<rscale>  0 0.36635475E+04</rscale>
<asrwt>0</asrwt>
<pdfrwt beam="1">  1        1 0.60085498E+00 0.36635475E+04</pdfrwt>
<pdfrwt beam="2">  1       -1 0.13217438E+00 0.36635475E+04</pdfrwt>
<totfact> 0.45252781E-02</totfact>
</mgrwt>
</event>
<event>
12    1  0.1536832E-007  0.1457834E+04  0.7818608E-02  0.8912987E-01
         -2   -1    0    0    0  501 -0.00000000000E+00  0.00000000000E+00  0.14551187561E+03  0.14551187561E+03  0.00000000000E+00 0.  1.
          2   -1    0    0  501    0  0.00000000000E+00 -0.00000000000E+00 -0.36513849770E+04  0.36513849770E+04  0.00000000000E+00 0. -1.
         23    2    1    2    0    0 -0.42151571985E+03 -0.12493939730E+03 -0.90756942927E+03  0.10125078542E+04  0.90578865591E+02 0.  0.
        254    2    1    2    0    0  0.42151571985E+03  0.12493939730E+03 -0.25983036721E+04  0.27843889984E+04  0.89908551683E+03 0.  0.
        -24    2    4    4    0    0  0.29048181719E+03  0.34248185385E+03 -0.52943108148E+03  0.69835594645E+03  0.75698425121E+02 0.  0.
         24    2    4    4    0    0  0.13103390265E+03 -0.21754245655E+03 -0.20688725907E+04  0.20860330519E+04  0.82495414016E+02 0.  0.
         11    1    3    3    0    0 -0.19643475544E+03 -0.84671892859E+02 -0.35450860643E+03  0.41404383176E+03  0.00000000000E+00 0.  1.
        -11    1    3    3    0    0 -0.22508096441E+03 -0.40267504442E+02 -0.55306082284E+03  0.59846402249E+03  0.00000000000E+00 0. -1.
          2    1    6    6  502    0  0.11058132401E+03 -0.20459791835E+03 -0.19896220809E+04  0.20031686305E+04  0.00000000000E+00 0. -1.
          1    1    5    5  503    0  0.27984437558E+03  0.33249783744E+03 -0.52776959054E+03  0.68367274857E+03  0.00000000000E+00 0. -1.
         -2    1    5    5    0  503  0.10637441614E+02  0.99840164049E+01 -0.16614909457E+01  0.14683197875E+02  0.00000000000E+00 0.  1.
         -1    1    6    6    0  502  0.20452578647E+02 -0.12944538198E+02 -0.79250509746E+02  0.82864421421E+02  0.00000000000E+00 0.  1.
<mgrwt>
<rscale>  0 0.14578338E+04</rscale>
<asrwt>0</asrwt>
<pdfrwt beam="1">  1        2 0.56175148E+00 0.14578338E+04</pdfrwt>
<pdfrwt beam="2">  1       -2 0.22386444E-01 0.14578338E+04</pdfrwt>
<totfact> 0.10947454E+01</totfact>
</mgrwt>
</event>
<event>
12    1  0.1536832E-007  0.1664460E+04  0.7818608E-02  0.8781898E-01
          2   -1    0    0  501    0  0.00000000000E+00  0.00000000000E+00  0.69315690652E+03  0.69315690652E+03  0.00000000000E+00 0. -1.
         -2   -1    0    0    0  501 -0.00000000000E+00 -0.00000000000E+00 -0.99920626963E+03  0.99920626963E+03  0.00000000000E+00 0.  1.
         23    2    1    2    0    0 -0.44618017116E+03  0.27030624168E+03  0.15738376666E+03  0.55235265320E+03  0.90452164446E+02 0.  0.
        254    2    1    2    0    0  0.44618017116E+03 -0.27030624168E+03 -0.46343312977E+03  0.11400105230E+04  0.90150513989E+03 0.  0.
        -24    2    4    4    0    0  0.44622873005E+03 -0.42727203966E+03 -0.63825747801E+03  0.89212524169E+03  0.82664159298E+02 0.  0.
         24    2    4    4    0    0 -0.48558884449E-01  0.15696579798E+03  0.17482434824E+03  0.24788528126E+03  0.79027184146E+02 0.  0.
         11    1    3    3    0    0 -0.37147584479E+03  0.20383089443E+03  0.94208307788E+02  0.43406974329E+03  0.00000000000E+00 0.  1.
        -11    1    3    3    0    0 -0.74704326376E+02  0.66475347253E+02  0.63175458876E+02  0.11828290991E+03  0.00000000000E+00 0. -1.
          2    1    6    6  502    0 -0.63685872895E+01  0.16294934462E+03  0.17496982980E+03  0.23918087122E+03  0.00000000000E+00 0. -1.
          1    1    5    5  503    0  0.25814390152E+03 -0.28892098359E+03 -0.43535772901E+03  0.58279495611E+03  0.00000000000E+00 0. -1.
         -2    1    5    5    0  503  0.18808482853E+03 -0.13835105607E+03 -0.20289974900E+03  0.30933028559E+03  0.00000000000E+00 0.  1.
         -1    1    6    6    0  502  0.63200284050E+01 -0.59835466340E+01 -0.14548155975E+00  0.87044100458E+01  0.00000000000E+00 0.  1.
<mgrwt>
<rscale>  0 0.16644599E+04</rscale>
<asrwt>0</asrwt>
<pdfrwt beam="1">  1        2 0.10663952E+00 0.16644599E+04</pdfrwt>
<pdfrwt beam="2">  1       -2 0.15372404E+00 0.16644599E+04</pdfrwt>
<totfact> 0.11103656E+01</totfact>
</mgrwt>
</event>
<event>
12    1  0.1536832E-007  0.2184499E+04  0.7818608E-02  0.8524908E-01
          2   -1    0    0  501    0  0.00000000000E+00  0.00000000000E+00  0.15390185112E+04  0.15390185112E+04  0.00000000000E+00 0. -1.
         -2   -1    0    0    0  501 -0.00000000000E+00 -0.00000000000E+00 -0.77517546214E+03  0.77517546214E+03  0.00000000000E+00 0.  1.
         23    2    1    2    0    0 -0.21892597250E+01  0.48998237063E+03  0.11165236411E+04  0.12227830169E+04  0.92118124608E+02 0.  0.
        254    2    1    2    0    0  0.21892597250E+01 -0.48998237063E+03 -0.35268059203E+03  0.10914109565E+04  0.90923416099E+03 0.  0.
        -24    2    4    4    0    0 -0.93051239560E+02 -0.74102535795E+03 -0.22759430290E+03  0.78474756209E+03  0.79072467862E+02 0.  0.
         24    2    4    4    0    0  0.95240499285E+02  0.25104298733E+03 -0.12508628913E+03  0.30666339438E+03  0.79388434511E+02 0.  0.
         11    1    3    3    0    0 -0.24884156768E+02  0.20218001317E+03  0.36979057793E+03  0.42218603780E+03  0.00000000000E+00 0.  1.
        -11    1    3    3    0    0  0.22694897043E+02  0.28780235746E+03  0.74673306313E+03  0.80059697906E+03  0.00000000000E+00 0. -1.
          4    1    6    6  502    0 -0.83208326357E+01  0.11215736219E+02  0.50005649245E+01  0.14833564785E+02  0.00000000000E+00 0. -1.
          1    1    5    5  503    0 -0.42446336485E+02 -0.13621363468E+03 -0.62542574256E+02  0.15578003514E+03  0.00000000000E+00 0. -1.
         -2    1    5    5    0  503 -0.50604903075E+02 -0.60481172327E+03 -0.16505172864E+03  0.62896752694E+03  0.00000000000E+00 0.  1.
         -3    1    6    6    0  502  0.10356133192E+03  0.23982725111E+03 -0.13008685405E+03  0.29182982959E+03  0.00000000000E+00 0.  1.
<mgrwt>
<rscale>  0 0.21844994E+04</rscale>
<asrwt>0</asrwt>
<pdfrwt beam="1">  1        2 0.23677208E+00 0.21844994E+04</pdfrwt>
<pdfrwt beam="2">  1       -2 0.11925776E+00 0.21844994E+04</pdfrwt>
<totfact> 0.59561404E+00</totfact>
</mgrwt>
</event>
<event>
12    1  0.1536832E-007  0.1794566E+04  0.7818608E-02  0.8709195E-01
          1   -1    0    0  501    0  0.00000000000E+00  0.00000000000E+00  0.75280653835E+03  0.75280653835E+03  0.00000000000E+00 0. -1.
         -1   -1    0    0    0  501 -0.00000000000E+00 -0.00000000000E+00 -0.10694869152E+04  0.10694869152E+04  0.00000000000E+00 0.  1.
         23    2    1    2    0    0 -0.59823736487E+02  0.66426689452E+03 -0.89819116714E+02  0.68011007692E+03  0.98248951145E+02 0.  0.
        254    2    1    2    0    0  0.59823736487E+02 -0.66426689452E+03 -0.22686126011E+03  0.11421833766E+04  0.89904807872E+03 0.  0.
        -24    2    4    4    0    0  0.33868865288E+03  0.46034182758E+02 -0.72114031380E+02  0.35948995912E+03  0.84873126538E+02 0.  0.
         24    2    4    4    0    0 -0.27886491640E+03 -0.71030107728E+03 -0.15474722873E+03  0.78269341749E+03  0.79806133849E+02 0.  0.
         11    1    3    3    0    0  0.19535189789E+01  0.21615646975E+03 -0.70416634515E+02  0.22734541576E+03  0.00000000000E+00 0. -1.
        -11    1    3    3    0    0 -0.61777255466E+02  0.44811042477E+03 -0.19402482199E+02  0.45276466116E+03  0.00000000000E+00 0.  1.
          4    1    6    6  502    0 -0.10453919248E+03 -0.17058827511E+03 -0.41385519694E+02  0.20430752216E+03  0.00000000000E+00 0. -1.
          3    1    5    5  503    0  0.68447660252E+02 -0.23572840189E+02 -0.55884861974E+01  0.72608485499E+02  0.00000000000E+00 0. -1.
         -4    1    5    5    0  503  0.27024099263E+03  0.69607022946E+02 -0.66525545183E+02  0.28688147362E+03  0.00000000000E+00 0.  1.
         -3    1    6    6    0  502 -0.17432572392E+03 -0.53971280216E+03 -0.11336170904E+03  0.57838589533E+03  0.00000000000E+00 0.  1.
<mgrwt>
<rscale>  0 0.17945660E+04</rscale>
<asrwt>0</asrwt>
<pdfrwt beam="1">  1        1 0.11581639E+00 0.17945660E+04</pdfrwt>
<pdfrwt beam="2">  1       -1 0.16453645E+00 0.17945660E+04</pdfrwt>
<totfact> 0.62095843E+00</totfact>
</mgrwt>
</event>
<event>
12    1  0.1536832E-007  0.1835306E+04  0.7818608E-02  0.8687746E-01
         -1   -1    0    0    0  501 -0.00000000000E+00  0.00000000000E+00  0.39720573659E+03  0.39720573659E+03  0.00000000000E+00 0.  1.
          1   -1    0    0  501    0  0.00000000000E+00 -0.00000000000E+00 -0.21200265359E+04  0.21200265359E+04  0.00000000000E+00 0. -1.
         23    2    1    2    0    0  0.68193126631E+02 -0.13936858158E+03 -0.15742382117E+04  0.15842285932E+04  0.86489215178E+02 0.  0.
        254    2    1    2    0    0 -0.68193126631E+02  0.13936858158E+03 -0.14858258762E+03  0.93300367927E+03  0.90793456600E+03 0.  0.
        -24    2    4    4    0    0 -0.15135446530E+03  0.75879501758E+02 -0.51266007195E+03  0.54570847440E+03  0.79445054642E+02 0.  0.
         24    2    4    4    0    0  0.83161338667E+02  0.63489079823E+02  0.36407748433E+03  0.38729520487E+03  0.80613209909E+02 0.  0.
         13    1    3    3    0    0  0.32453083389E+01  0.41187664721E+01 -0.33251747694E+03  0.33255881996E+03  0.00000000000E+00 0. -1.
        -13    1    3    3    0    0  0.64947818292E+02 -0.14348734805E+03 -0.12417207348E+04  0.12516697733E+04  0.00000000000E+00 0.  1.
          2    1    6    6  502    0  0.30220862855E+02  0.45998866552E+02  0.28662865550E+03  0.29186500720E+03  0.00000000000E+00 0. -1.
          1    1    5    5  503    0 -0.11359338045E+03  0.71236204494E+02 -0.46903706722E+03  0.48782560751E+03  0.00000000000E+00 0. -1.
         -2    1    5    5    0  503 -0.37761084844E+02  0.46432972634E+01 -0.43623004734E+02  0.57882866896E+02  0.00000000000E+00 0.  1.
         -1    1    6    6    0  502  0.52940475811E+02  0.17490213271E+02  0.77448828837E+02  0.95430197672E+02  0.00000000000E+00 0.  1.
<mgrwt>
<rscale>  0 0.18353056E+04</rscale>
<asrwt>0</asrwt>
<pdfrwt beam="1">  1        1 0.32615793E+00 0.18353056E+04</pdfrwt>
<pdfrwt beam="2">  1       -1 0.61108576E-01 0.18353056E+04</pdfrwt>
<totfact> 0.63116137E+00</totfact>
</mgrwt>
</event>
<event>
12    1  0.1536832E-007  0.2761862E+04  0.7818608E-02  0.8315208E-01
          1   -1    0    0  501    0  0.00000000000E+00  0.00000000000E+00  0.16673843689E+04  0.16673843689E+04  0.00000000000E+00 0. -1.
         -1   -1    0    0    0  501 -0.00000000000E+00 -0.00000000000E+00 -0.11436894590E+04  0.11436894590E+04  0.00000000000E+00 0.  1.
         23    2    1    2    0    0  0.36542918697E+03  0.10678239529E+04  0.73859746169E+03  0.13523400182E+04  0.97523480873E+02 0.  0.
        254    2    1    2    0    0 -0.36542918697E+03 -0.10678239529E+04 -0.21490255187E+03  0.14587338098E+04  0.89885189876E+03 0.  0.
        -24    2    4    4    0    0 -0.73171499907E+02 -0.11023688395E+04 -0.42567679630E+02  0.11082343067E+04  0.76158678868E+02 0.  0.
         24    2    4    4    0    0 -0.29225768706E+03  0.34544886669E+02 -0.17233487224E+03  0.35049950307E+03  0.80886887837E+02 0.  0.
         11    1    3    3    0    0  0.98138186883E+01  0.13943532536E+02 -0.23042422633E+00  0.17052455311E+02  0.00000000000E+00 0.  1.
        -11    1    3    3    0    0  0.35561536828E+03  0.10538804203E+04  0.73882788592E+03  0.13352875629E+04  0.00000000000E+00 0. -1.
          4    1    6    6  502    0 -0.10521015420E+03 -0.25654924527E+00 -0.20746733684E+02  0.10723651114E+03  0.00000000000E+00 0. -1.
          1    1    5    5  503    0 -0.76193534853E+02 -0.64621997428E+03 -0.76552168756E+01  0.65074135588E+03  0.00000000000E+00 0. -1.
         -2    1    5    5    0  503  0.30220349458E+01 -0.45614886526E+03 -0.34912462754E+02  0.45749295080E+03  0.00000000000E+00 0.  1.
         -3    1    6    6    0  502 -0.18704753286E+03  0.34801435915E+02 -0.15158813855E+03  0.24326299193E+03  0.00000000000E+00 0.  1.
<mgrwt>
<rscale>  0 0.27618616E+04</rscale>
<asrwt>0</asrwt>
<pdfrwt beam="1">  1        1 0.25652067E+00 0.27618616E+04</pdfrwt>
<pdfrwt beam="2">  1       -1 0.17595222E+00 0.27618616E+04</pdfrwt>
<totfact> 0.97006715E-01</totfact>
</mgrwt>
</event>
<event>
12    1  0.1536832E-007  0.2789256E+04  0.7818608E-02  0.8306612E-01
          2   -1    0    0  501    0  0.00000000000E+00  0.00000000000E+00  0.12465029218E+04  0.12465029218E+04  0.00000000000E+00 0.  1.
         -2   -1    0    0    0  501 -0.00000000000E+00 -0.00000000000E+00 -0.15603552262E+04  0.15603552262E+04  0.00000000000E+00 0. -1.
         23    2    1    2    0    0  0.51555788973E+02  0.15244241532E+03  0.10982916295E+04  0.11139344612E+04  0.93320903706E+02 0.  0.
        254    2    1    2    0    0 -0.51555788973E+02 -0.15244241532E+03 -0.14121439339E+04  0.16929236869E+04  0.91975183074E+03 0.  0.
        -24    2    4    4    0    0 -0.98446638845E+01  0.46086631652E+02 -0.14654238486E+04  0.14683792807E+04  0.80310403493E+02 0.  0.
         24    2    4    4    0    0 -0.41711125088E+02 -0.19852904697E+03  0.53279914726E+02  0.22454440615E+03  0.80173814757E+02 0.  0.
         13    1    3    3    0    0  0.71632262232E+02  0.66510150546E+02  0.56710807471E+03  0.57547054617E+03  0.00000000000E+00 0.  1.
        -13    1    3    3    0    0 -0.20076473259E+02  0.85932264772E+02  0.53118355479E+03  0.53846391503E+03  0.00000000000E+00 0. -1.
          2    1    6    6  502    0 -0.37492460412E+02 -0.37955320446E+02 -0.51945891656E+01  0.53602935502E+02  0.00000000000E+00 0. -1.
          3    1    5    5  503    0  0.30446794181E+02 -0.18248273383E+01 -0.49199896155E+03  0.49294352155E+03  0.00000000000E+00 0. -1.
         -4    1    5    5    0  503 -0.40291458066E+02  0.47911458990E+02 -0.97342488707E+03  0.97543575916E+03  0.00000000000E+00 0.  1.
         -1    1    6    6    0  502 -0.42186646766E+01 -0.16057372652E+03  0.58474503892E+02  0.17094147065E+03  0.00000000000E+00 0.  1.
<mgrwt>
<rscale>  0 0.27892561E+04</rscale>
<asrwt>0</asrwt>
<pdfrwt beam="1">  1        2 0.19176968E+00 0.27892561E+04</pdfrwt>
<pdfrwt beam="2">  1       -2 0.24005465E+00 0.27892561E+04</pdfrwt>
<totfact> 0.11456450E+00</totfact>
</mgrwt>
</event>
<event>
12    1  0.1536832E-007  0.1751902E+04  0.7818608E-02  0.8732304E-01
         -1   -1    0    0    0  501 -0.00000000000E+00  0.00000000000E+00  0.47769392965E+03  0.47769392965E+03  0.00000000000E+00 0.  1.
          1   -1    0    0  501    0  0.00000000000E+00 -0.00000000000E+00 -0.16062373523E+04  0.16062373523E+04  0.00000000000E+00 0. -1.
         23    2    1    2    0    0 -0.13857976246E+03  0.44874707447E+03  0.10103067010E+03  0.48874987750E+03  0.89949758464E+02 0.  0.
        254    2    1    2    0    0  0.13857976246E+03 -0.44874707447E+03 -0.12295740928E+04  0.15951814045E+04  0.90120640042E+03 0.  0.
        -24    2    4    4    0    0  0.38449207302E+03  0.28433596700E+01 -0.19794596831E+03  0.43963078538E+03  0.79059358525E+02 0.  0.
         24    2    4    4    0    0 -0.24591231057E+03 -0.45159043414E+03 -0.10316281245E+04  0.11555506191E+04  0.81448519993E+02 0.  0.
         11    1    3    3    0    0 -0.13265366112E+03  0.40115508703E+03  0.11662407679E+03  0.43831903101E+03  0.00000000000E+00 0.  1.
        -11    1    3    3    0    0 -0.59261013334E+01  0.47591987448E+02 -0.15593406687E+02  0.50430846497E+02  0.00000000000E+00 0. -1.
          4    1    6    6  502    0 -0.39371568996E+02 -0.13106908338E+03 -0.22526465359E+03  0.26357805148E+03  0.00000000000E+00 0. -1.
          3    1    5    5  503    0  0.68985690601E+02  0.26755976640E+02 -0.56223998856E+02  0.92930327886E+02  0.00000000000E+00 0. -1.
         -4    1    5    5    0  503  0.31550638242E+03 -0.23912616970E+02 -0.14172196945E+03  0.34670045749E+03  0.00000000000E+00 0.  1.
         -3    1    6    6    0  502 -0.20654074157E+03 -0.32052135076E+03 -0.80636347089E+03  0.89197256764E+03  0.00000000000E+00 0.  1.
<mgrwt>
<rscale>  0 0.17519016E+04</rscale>
<asrwt>0</asrwt>
<pdfrwt beam="1">  1        1 0.24711344E+00 0.17519016E+04</pdfrwt>
<pdfrwt beam="2">  1       -1 0.73491373E-01 0.17519016E+04</pdfrwt>
<totfact> 0.97651418E+00</totfact>
</mgrwt>
</event>
<event>
12    1  0.1536832E-007  0.1512200E+04  0.7818608E-02  0.8876380E-01
          2   -1    0    0  501    0  0.00000000000E+00  0.00000000000E+00  0.17388355604E+04  0.17388355604E+04  0.00000000000E+00 0.  1.
         -2   -1    0    0    0  501 -0.00000000000E+00 -0.00000000000E+00 -0.32877592690E+03  0.32877592690E+03  0.00000000000E+00 0. -1.
         23    2    1    2    0    0  0.36865544906E+03  0.93046600464E+02  0.67199210023E+02  0.39691855081E+03  0.92000500897E+02 0.  0.
        254    2    1    2    0    0 -0.36865544906E+03 -0.93046600464E+02  0.13428604235E+04  0.16706929365E+04  0.91835519334E+03 0.  0.
        -24    2    4    4    0    0  0.10740534134E+02 -0.45452091867E+03  0.67670610075E+03  0.81929481192E+03  0.81290943241E+02 0.  0.
         24    2    4    4    0    0 -0.37939598320E+03  0.36147431821E+03  0.66615432276E+03  0.85139812461E+03  0.80698141656E+02 0.  0.
         11    1    3    3    0    0  0.28130671399E+03  0.73867135647E+02  0.90326819820E+02  0.30454680337E+03  0.00000000000E+00 0. -1.
        -11    1    3    3    0    0  0.87348735072E+02  0.19179464817E+02 -0.23127609797E+02  0.92371747435E+02  0.00000000000E+00 0.  1.
          4    1    6    6  502    0 -0.38232655679E+01  0.26003882771E+02  0.26800108859E+02  0.37537516082E+02  0.00000000000E+00 0. -1.
          1    1    5    5  503    0 -0.10039868593E+02 -0.22930684243E+02  0.15559044181E+02  0.29473701787E+02  0.00000000000E+00 0. -1.
         -2    1    5    5    0  503  0.20780402728E+02 -0.43159023443E+03  0.66114705657E+03  0.78982111013E+03  0.00000000000E+00 0.  1.
         -3    1    6    6    0  502 -0.37557271763E+03  0.33547043544E+03  0.63935421390E+03  0.81386060853E+03  0.00000000000E+00 0.  1.
<mgrwt>
<rscale>  0 0.15122001E+04</rscale>
<asrwt>0</asrwt>
<pdfrwt beam="1">  1        2 0.26751316E+00 0.15122001E+04</pdfrwt>
<pdfrwt beam="2">  1       -2 0.50580913E-01 0.15122001E+04</pdfrwt>
<totfact> 0.33286712E+01</totfact>
</mgrwt>
</event>
<event>
12    1  0.1536832E-007  0.1536393E+04  0.7818608E-02  0.8860606E-01
         -1   -1    0    0    0  501 -0.00000000000E+00  0.00000000000E+00  0.43001863907E+03  0.43001863907E+03  0.00000000000E+00 0.  1.
          1   -1    0    0  501    0  0.00000000000E+00 -0.00000000000E+00 -0.13723256191E+04  0.13723256191E+04  0.00000000000E+00 0. -1.
         23    2    1    2    0    0 -0.31657561093E+03 -0.38079370476E+03 -0.24356761657E+03  0.55644504354E+03  0.71287724121E+02 0.  0.
        254    2    1    2    0    0  0.31657561093E+03  0.38079370476E+03 -0.69873936342E+03  0.12458992146E+04  0.90487799836E+03 0.  0.
        -24    2    4    4    0    0 -0.17943032917E+03  0.46201784094E+03 -0.22843756716E+03  0.55298328464E+03  0.89168731194E+02 0.  0.
         24    2    4    4    0    0  0.49600594010E+03 -0.81224136183E+02 -0.47030179626E+03  0.69291592996E+03  0.79557862635E+02 0.  0.
         13    1    3    3    0    0 -0.28213756946E+03 -0.35166220574E+03 -0.24110166122E+03  0.51127089306E+03  0.00000000000E+00 0.  1.
        -13    1    3    3    0    0 -0.34438041468E+02 -0.29131499019E+02 -0.24659553550E+01  0.45174150474E+02  0.00000000000E+00 0. -1.
          4    1    6    6  502    0  0.44127339913E+03 -0.84651379205E+02 -0.44546490289E+03  0.63271403374E+03  0.00000000000E+00 0. -1.
          1    1    5    5  503    0 -0.17352253676E+03  0.34349187435E+03 -0.17894761026E+03  0.42440427157E+03  0.00000000000E+00 0. -1.
         -2    1    5    5    0  503 -0.59077924122E+01  0.11852596659E+03 -0.49489956901E+02  0.12857901307E+03  0.00000000000E+00 0.  1.
         -3    1    6    6    0  502  0.54732540975E+02  0.34272430225E+01 -0.24836893368E+02  0.60201896220E+02  0.00000000000E+00 0.  1.
<mgrwt>
<rscale>  0 0.15363927E+04</rscale>
<asrwt>0</asrwt>
<pdfrwt beam="1">  1        1 0.21112702E+00 0.15363927E+04</pdfrwt>
<pdfrwt beam="2">  1       -1 0.66156714E-01 0.15363927E+04</pdfrwt>
<totfact> 0.17945829E+01</totfact>
</mgrwt>
</event>
<event>
12    1  0.1536832E-007  0.1740284E+04  0.7818608E-02  0.8738717E-01
          2   -1    0    0  501    0  0.00000000000E+00  0.00000000000E+00  0.11116378343E+04  0.11116378343E+04  0.00000000000E+00 0.  1.
         -2   -1    0    0    0  501 -0.00000000000E+00 -0.00000000000E+00 -0.68110922370E+03  0.68110922370E+03  0.00000000000E+00 0. -1.
         23    2    1    2    0    0  0.56517368669E+03 -0.24626154684E+03  0.32245867563E+02  0.62434926672E+03  0.93306834171E+02 0.  0.
        254    2    1    2    0    0 -0.56517368669E+03  0.24626154684E+03  0.39828274307E+03  0.11683977913E+04  0.90909746988E+03 0.  0.
        -24    2    4    4    0    0 -0.39207280046E+03  0.51954325253E+03  0.86598967146E+01  0.65592331907E+03  0.80710188878E+02 0.  0.
         24    2    4    4    0    0 -0.17310088623E+03 -0.27328170569E+03  0.38962284635E+03  0.51247447224E+03  0.78595895688E+02 0.  0.
         11    1    3    3    0    0  0.50383465093E+03 -0.24369521102E+03  0.12345190672E+02  0.55981167823E+03  0.00000000000E+00 0.  1.
        -11    1    3    3    0    0  0.61339035761E+02 -0.25663358212E+01  0.19900676892E+02  0.64537588492E+02  0.00000000000E+00 0. -1.
          4    1    6    6  502    0 -0.30364442329E+02 -0.83004699060E+01  0.29542476086E+02  0.43170071252E+02  0.00000000000E+00 0. -1.
          1    1    5    5  503    0 -0.23782463074E+03  0.36884020169E+03  0.25592638788E+02  0.43961191127E+03  0.00000000000E+00 0. -1.
         -2    1    5    5    0  503 -0.15424816971E+03  0.15070305084E+03 -0.16932742074E+02  0.21631140780E+03  0.00000000000E+00 0.  1.
         -3    1    6    6    0  502 -0.14273644391E+03 -0.26498123579E+03  0.36008037027E+03  0.46930440099E+03  0.00000000000E+00 0.  1.
<mgrwt>
<rscale>  0 0.17402836E+04</rscale>
<asrwt>0</asrwt>
<pdfrwt beam="1">  1        2 0.17102121E+00 0.17402836E+04</pdfrwt>
<pdfrwt beam="2">  1       -2 0.10478603E+00 0.17402836E+04</pdfrwt>
<totfact> 0.15017666E+01</totfact>
</mgrwt>
</event>
<event>
12    1  0.1536832E-007  0.1825685E+04  0.7818608E-02  0.8692758E-01
         -2   -1    0    0    0  501 -0.00000000000E+00  0.00000000000E+00  0.15399040400E+04  0.15399040400E+04  0.00000000000E+00 0. -1.
          2   -1    0    0  501    0  0.00000000000E+00 -0.00000000000E+00 -0.54112578599E+03  0.54112578599E+03  0.00000000000E+00 0.  1.
         23    2    1    2    0    0  0.10877055933E+03  0.50411054539E+03  0.89614408881E+03  0.10379747653E+04  0.91427068920E+02 0.  0.
        254    2    1    2    0    0 -0.10877055933E+03 -0.50411054539E+03  0.10263416518E+03  0.10430550607E+04  0.90081719078E+03 0.  0.
        -24    2    4    4    0    0  0.19057460952E+03  0.18819707001E+03  0.33445563583E+02  0.28146617335E+03  0.79798383826E+02 0.  0.
         24    2    4    4    0    0 -0.29934516885E+03 -0.69230761540E+03  0.69188601600E+02  0.76158888734E+03  0.79581444219E+02 0.  0.
         11    1    3    3    0    0  0.84515889666E+02  0.44723036398E+03  0.72526777527E+03  0.85625421454E+03  0.00000000000E+00 0. -1.
        -11    1    3    3    0    0  0.24254669666E+02  0.56880181407E+02  0.17087631354E+03  0.18172055076E+03  0.00000000000E+00 0.  1.
          4    1    6    6  502    0 -0.16998147668E+03 -0.46498498495E+03  0.20240908887E+02  0.49549413017E+03  0.00000000000E+00 0. -1.
          1    1    5    5  503    0  0.83719171911E+02  0.12633934656E+03  0.43245663855E+02  0.15760938321E+03  0.00000000000E+00 0. -1.
         -2    1    5    5    0  503  0.10685543761E+03  0.61857723452E+02 -0.98001002720E+01  0.12385679014E+03  0.00000000000E+00 0.  1.
         -3    1    6    6    0  502 -0.12936369217E+03 -0.22732263045E+03  0.48947692713E+02  0.26609475716E+03  0.00000000000E+00 0.  1.
<mgrwt>
<rscale>  0 0.18256854E+04</rscale>
<asrwt>0</asrwt>
<pdfrwt beam="1">  1        2 0.83250121E-01 0.18256854E+04</pdfrwt>
<pdfrwt beam="2">  1       -2 0.23690831E+00 0.18256854E+04</pdfrwt>
<totfact> 0.40920626E+00</totfact>
</mgrwt>
</event>
<event>
12    1  0.1536832E-007  0.1230821E+04  0.7818608E-02  0.9086299E-01
         -2   -1    0    0    0  501 -0.00000000000E+00  0.00000000000E+00  0.42587887120E+03  0.42587887120E+03  0.00000000000E+00 0.  1.
          2   -1    0    0  501    0  0.00000000000E+00 -0.00000000000E+00 -0.88928990708E+03  0.88928990708E+03  0.00000000000E+00 0. -1.
         23    2    1    2    0    0  0.14021567803E+03 -0.60423074558E+02  0.17786370434E+03  0.24930545711E+03  0.84890101408E+02 0.  0.
        254    2    1    2    0    0 -0.14021567803E+03  0.60423074558E+02 -0.64127474022E+03  0.10658633212E+04  0.83756787347E+03 0.  0.
        -24    2    4    4    0    0  0.21770404538E+03  0.31228958417E+03 -0.19396766923E+03  0.43492554246E+03  0.81344545129E+02 0.  0.
         24    2    4    4    0    0 -0.35791972340E+03 -0.25186650961E+03 -0.44730707099E+03  0.63093777871E+03  0.80346734747E+02 0.  0.
         11    1    3    3    0    0  0.11585796349E+03 -0.66466779150E+02  0.17997021064E+03  0.22412089851E+03  0.00000000000E+00 0.  1.
        -11    1    3    3    0    0  0.24357714541E+02  0.60437045919E+01 -0.21065062924E+01  0.25184558595E+02  0.00000000000E+00 0. -1.
          2    1    6    6  502    0 -0.20230509405E+03 -0.18982116900E+03 -0.27549691267E+03  0.39097055665E+03  0.00000000000E+00 0. -1.
          1    1    5    5  503    0  0.18272058399E+03  0.20150625152E+03 -0.15058661824E+03  0.31091463589E+03  0.00000000000E+00 0. -1.
         -2    1    5    5    0  503  0.34983461381E+02  0.11078333265E+03 -0.43381050991E+02  0.12401090657E+03  0.00000000000E+00 0.  1.
         -1    1    6    6    0  502 -0.15561462936E+03 -0.62045340606E+02 -0.17181015832E+03  0.23996722206E+03  0.00000000000E+00 0.  1.
<mgrwt>
<rscale>  0 0.12308205E+04</rscale>
<asrwt>0</asrwt>
<pdfrwt beam="1">  1        2 0.13681383E+00 0.12308205E+04</pdfrwt>
<pdfrwt beam="2">  1       -2 0.65519827E-01 0.12308205E+04</pdfrwt>
<totfact> 0.63032362E+01</totfact>
</mgrwt>
</event>
<event>
12    1  0.1536832E-007  0.1215216E+04  0.7818608E-02  0.9099641E-01
          1   -1    0    0  501    0  0.00000000000E+00  0.00000000000E+00  0.18831142722E+04  0.18831142722E+04  0.00000000000E+00 0. -1.
         -1   -1    0    0    0  501 -0.00000000000E+00 -0.00000000000E+00 -0.19605148493E+03  0.19605148493E+03  0.00000000000E+00 0.  1.
         23    2    1    2    0    0 -0.23918991102E+03  0.15631685764E+02  0.43257170163E+03  0.50302932724E+03  0.92000347168E+02 0.  0.
        254    2    1    2    0    0  0.23918991102E+03 -0.15631685764E+02  0.12544910856E+04  0.15761364299E+04  0.92358107308E+03 0.  0.
        -24    2    4    4    0    0  0.22310603173E+03 -0.83581857676E+02  0.13860783773E+04  0.14085729024E+04  0.78116099506E+02 0.  0.
         24    2    4    4    0    0  0.16083879293E+02  0.67950171913E+02 -0.13158729170E+03  0.16756352746E+03  0.76722899852E+02 0.  0.
         11    1    3    3    0    0 -0.17088377985E+03 -0.28580351579E+02  0.26289377529E+03  0.31485113910E+03  0.00000000000E+00 0. -1.
        -11    1    3    3    0    0 -0.68306131176E+02  0.44212037342E+02  0.16967792635E+03  0.18817818814E+03  0.00000000000E+00 0.  1.
          4    1    6    6  502    0 -0.35365866137E-01  0.81682787953E+02 -0.94980517157E+02  0.12527321237E+03  0.00000000000E+00 0. -1.
          3    1    5    5  503    0  0.17220379739E+03 -0.33681128243E+02  0.10901207147E+04  0.11041520452E+04  0.00000000000E+00 0. -1.
         -4    1    5    5    0  503  0.50902234344E+02 -0.49900729434E+02  0.29595766261E+03  0.30442085723E+03  0.00000000000E+00 0.  1.
         -3    1    6    6    0  502  0.16119245159E+02 -0.13732616040E+02 -0.36606774544E+02  0.42290315089E+02  0.00000000000E+00 0.  1.
<mgrwt>
<rscale>  0 0.12152158E+04</rscale>
<asrwt>0</asrwt>
<pdfrwt beam="1">  1        1 0.28970988E+00 0.12152158E+04</pdfrwt>
<pdfrwt beam="2">  1       -1 0.30161768E-01 0.12152158E+04</pdfrwt>
<totfact> 0.35787858E+01</totfact>
</mgrwt>
</event>
<event>
12    1  0.1536832E-007  0.2071240E+04  0.7818608E-02  0.8574019E-01
         -1   -1    0    0    0  501 -0.00000000000E+00  0.00000000000E+00  0.60099850939E+03  0.60099850939E+03  0.00000000000E+00 0.  1.
          1   -1    0    0  501    0  0.00000000000E+00 -0.00000000000E+00 -0.17845456480E+04  0.17845456480E+04  0.00000000000E+00 0. -1.
         23    2    1    2    0    0  0.17364022830E+03  0.72814533002E+03 -0.91124994438E+03  0.11827424288E+04  0.90314125684E+02 0.  0.
        254    2    1    2    0    0 -0.17364022830E+03 -0.72814533002E+03 -0.27229719427E+03  0.12028017286E+04  0.90124341097E+03 0.  0.
        -24    2    4    4    0    0  0.61966017511E+01  0.19662086692E+03 -0.12253342737E+03  0.24544065213E+03  0.80799193776E+02 0.  0.
         24    2    4    4    0    0 -0.17983683005E+03 -0.92476619694E+03 -0.14976376690E+03  0.95736107647E+03  0.81100187520E+02 0.  0.
         11    1    3    3    0    0  0.18378494030E+03  0.66335384768E+03 -0.82743017447E+03  0.10763159040E+04  0.00000000000E+00 0. -1.
        -11    1    3    3    0    0 -0.10144711999E+02  0.64791482334E+02 -0.83819769907E+02  0.10642652485E+03  0.00000000000E+00 0.  1.
          2    1    6    6  502    0 -0.10437451649E+03 -0.33223428809E+03 -0.57570712980E+02  0.35297032293E+03  0.00000000000E+00 0. -1.
          1    1    5    5  503    0  0.23435940763E+02  0.12877264369E+02 -0.67598855209E+01  0.27581938100E+02  0.00000000000E+00 0. -1.
         -2    1    5    5    0  503 -0.17239339012E+02  0.18374360255E+03 -0.11577354185E+03  0.21785871403E+03  0.00000000000E+00 0.  1.
         -1    1    6    6    0  502 -0.75462313561E+02 -0.59253190885E+03 -0.92193053918E+02  0.60439075354E+03  0.00000000000E+00 0.  1.
<mgrwt>
<rscale>  0 0.20712405E+04</rscale>
<asrwt>0</asrwt>
<pdfrwt beam="1">  1        1 0.27454548E+00 0.20712405E+04</pdfrwt>
<pdfrwt beam="2">  1       -1 0.92461310E-01 0.20712405E+04</pdfrwt>
<totfact> 0.43775929E+00</totfact>
</mgrwt>
</event>
<event>
12    1  0.1536832E-007  0.1690869E+04  0.7818608E-02  0.8766589E-01
          2   -1    0    0  501    0  0.00000000000E+00  0.00000000000E+00  0.35981862014E+04  0.35981862014E+04  0.00000000000E+00 0.  1.
         -2   -1    0    0    0  501 -0.00000000000E+00 -0.00000000000E+00 -0.19864431504E+03  0.19864431504E+03  0.00000000000E+00 0. -1.
         23    2    1    2    0    0 -0.31844714732E+02  0.12182734935E+03  0.25382401800E+04  0.25430350604E+04  0.92239460361E+02 0.  0.
        254    2    1    2    0    0  0.31844714732E+02 -0.12182734935E+03  0.86130170643E+03  0.12537954561E+04  0.90238928817E+03 0.  0.
        -24    2    4    4    0    0 -0.65496183465E+02 -0.49931453476E+03  0.43174753973E+03  0.66816751410E+03  0.80231752902E+02 0.  0.
         24    2    4    4    0    0  0.97340898197E+02  0.37748718541E+03  0.42955416670E+03  0.58562794202E+03  0.80445501673E+02 0.  0.
         13    1    3    3    0    0 -0.66251265354E+01  0.12776192355E+03  0.19239761458E+04  0.19282248860E+04  0.00000000000E+00 0.  1.
        -13    1    3    3    0    0 -0.25219588197E+02 -0.59345742038E+01  0.61426403414E+03  0.61481017432E+03  0.00000000000E+00 0. -1.
          4    1    6    6  502    0  0.44870511348E+02  0.29677573593E+03  0.30157783503E+03  0.42548606417E+03  0.00000000000E+00 0. -1.
          3    1    5    5  503    0 -0.41000294484E+02 -0.38135497407E+03  0.36941108081E+03  0.53251965881E+03  0.00000000000E+00 0. -1.
         -4    1    5    5    0  503 -0.24495888981E+02 -0.11795956069E+03  0.62336458914E+02  0.13564785529E+03  0.00000000000E+00 0.  1.
         -3    1    6    6    0  502  0.52470386849E+02  0.80711449478E+02  0.12797633167E+03  0.16014187785E+03  0.00000000000E+00 0.  1.
<mgrwt>
<rscale>  0 0.16908687E+04</rscale>
<asrwt>0</asrwt>
<pdfrwt beam="1">  1        2 0.55356706E+00 0.16908687E+04</pdfrwt>
<pdfrwt beam="2">  1       -2 0.30560666E-01 0.16908687E+04</pdfrwt>
<totfact> 0.66062851E+00</totfact>
</mgrwt>
</event>
<event>
12    1  0.1536832E-007  0.1365717E+04  0.7818608E-02  0.8979015E-01
         -2   -1    0    0    0  501 -0.00000000000E+00  0.00000000000E+00  0.73590097985E+03  0.73590097985E+03  0.00000000000E+00 0. -1.
          2   -1    0    0  501    0  0.00000000000E+00 -0.00000000000E+00 -0.63363896712E+03  0.63363896712E+03  0.00000000000E+00 0.  1.
         23    2    1    2    0    0  0.26643042819E+03 -0.11525666152E+03 -0.21913374868E+03  0.37431486945E+03  0.88446314742E+02 0.  0.
        254    2    1    2    0    0 -0.26643042819E+03  0.11525666152E+03  0.32139576141E+03  0.99522507751E+03  0.89605158801E+03 0.  0.
        -24    2    4    4    0    0  0.23100701699E+03  0.28957698359E+03  0.25741878865E+03  0.45844251268E+03  0.81768168343E+02 0.  0.
         24    2    4    4    0    0 -0.49743744518E+03 -0.17432032207E+03  0.63976972761E+02  0.53678256484E+03  0.78809151225E+02 0.  0.
         13    1    3    3    0    0  0.90012614732E+02 -0.63557438807E+02 -0.38871117795E+02  0.11684512244E+03  0.00000000000E+00 0. -1.
        -13    1    3    3    0    0  0.17641781346E+03 -0.51699222717E+02 -0.18026263089E+03  0.25746974701E+03  0.00000000000E+00 0.  1.
          4    1    6    6  502    0 -0.21305296109E+03 -0.10903932605E+03  0.66732840723E+01  0.23942780034E+03  0.00000000000E+00 0. -1.
          3    1    5    5  503    0  0.10637288128E+03  0.17761324867E+03  0.10587033024E+03  0.23252996108E+03  0.00000000000E+00 0. -1.
         -4    1    5    5    0  503  0.12463413571E+03  0.11196373493E+03  0.15154845842E+03  0.22591255160E+03  0.00000000000E+00 0.  1.
         -3    1    6    6    0  502 -0.28438448409E+03 -0.65280996015E+02  0.57303688689E+02  0.29735476450E+03  0.00000000000E+00 0.  1.
<mgrwt>
<rscale>  0 0.13657167E+04</rscale>
<asrwt>0</asrwt>
<pdfrwt beam="1">  1        2 0.97482918E-01 0.13657167E+04</pdfrwt>
<pdfrwt beam="2">  1       -2 0.11321554E+00 0.13657167E+04</pdfrwt>
<totfact> 0.27732437E+01</totfact>
</mgrwt>
</event>
<event>
12    1  0.1536832E-007  0.1344377E+04  0.7818608E-02  0.8995096E-01
          1   -1    0    0  501    0  0.00000000000E+00  0.00000000000E+00  0.38309405770E+03  0.38309405770E+03  0.00000000000E+00 0. -1.
         -1   -1    0    0    0  501 -0.00000000000E+00 -0.00000000000E+00 -0.11794421291E+04  0.11794421291E+04  0.00000000000E+00 0.  1.
         23    2    1    2    0    0  0.22358115718E+03  0.26445505480E+03 -0.10485700777E+03  0.37312897503E+03  0.91133035052E+02 0.  0.
        254    2    1    2    0    0 -0.22358115718E+03 -0.26445505480E+03 -0.69149106368E+03  0.11894072118E+04  0.90366178103E+03 0.  0.
        -24    2    4    4    0    0  0.10668861562E+03  0.15288709404E+03 -0.61255002955E+03  0.64518442606E+03  0.79299941397E+02 0.  0.
         24    2    4    4    0    0 -0.33026977280E+03 -0.41734214883E+03 -0.78941034134E+02  0.54422278575E+03  0.81817856489E+02 0.  0.
         13    1    3    3    0    0  0.17087483005E+03  0.13494818423E+03 -0.53872185426E+02  0.22430210060E+03  0.00000000000E+00 0. -1.
        -13    1    3    3    0    0  0.52706327127E+02  0.12950687057E+03 -0.50984822342E+02  0.14882687443E+03  0.00000000000E+00 0.  1.
          4    1    6    6  502    0 -0.16859438819E+03 -0.27006427522E+03 -0.27500150672E+02  0.31955443787E+03  0.00000000000E+00 0. -1.
          3    1    5    5  503    0  0.23487561233E+02  0.62816854414E+02 -0.33663671333E+03  0.34325194754E+03  0.00000000000E+00 0. -1.
         -4    1    5    5    0  503  0.83201054385E+02  0.90070239622E+02 -0.27591331622E+03  0.30193247852E+03  0.00000000000E+00 0.  1.
         -3    1    6    6    0  502 -0.16167538461E+03 -0.14727787362E+03 -0.51440883462E+02  0.22466834788E+03  0.00000000000E+00 0.  1.
<mgrwt>
<rscale>  0 0.13443768E+04</rscale>
<asrwt>0</asrwt>
<pdfrwt beam="1">  1        1 0.58937549E-01 0.13443768E+04</pdfrwt>
<pdfrwt beam="2">  1       -1 0.18145263E+00 0.13443768E+04</pdfrwt>
<totfact> 0.12642103E+01</totfact>
</mgrwt>
</event>
<event>
12    1  0.1536832E-007  0.1851888E+04  0.7818608E-02  0.8679183E-01
         -2   -1    0    0    0  501 -0.00000000000E+00  0.00000000000E+00  0.10760749741E+04  0.10760749741E+04  0.00000000000E+00 0.  1.
          2   -1    0    0  501    0  0.00000000000E+00 -0.00000000000E+00 -0.79675884680E+03  0.79675884680E+03  0.00000000000E+00 0. -1.
         23    2    1    2    0    0 -0.67649771409E+03 -0.92966674682E+02  0.30654485142E+03  0.75394754066E+03  0.90416748245E+02 0.  0.
        254    2    1    2    0    0  0.67649771409E+03  0.92966674682E+02 -0.27228724156E+02  0.11188862802E+04  0.88593066594E+03 0.  0.
        -24    2    4    4    0    0  0.19249893274E+03  0.45451905558E+03  0.59644595927E+02  0.50337067832E+03  0.78620296200E+02 0.  0.
         24    2    4    4    0    0  0.48399878135E+03 -0.36155238090E+03 -0.86873320083E+02  0.61551560189E+03  0.79608654939E+02 0.  0.
         11    1    3    3    0    0 -0.15273573840E+03 -0.48684533700E+02  0.43137904939E+02  0.16600984443E+03  0.00000000000E+00 0. -1.
        -11    1    3    3    0    0 -0.52376197569E+03 -0.44282140982E+02  0.26340694648E+03  0.58793769623E+03  0.00000000000E+00 0.  1.
          2    1    6    6  502    0  0.47145833461E+03 -0.33759704432E+03 -0.71091788826E+02  0.58420781238E+03  0.00000000000E+00 0. -1.
          3    1    5    5  503    0  0.76559144884E+02  0.25932451764E+03  0.56960540706E+02  0.27632410556E+03  0.00000000000E+00 0. -1.
         -4    1    5    5    0  503  0.11593978785E+03  0.19519453794E+03  0.26840552210E+01  0.22704657276E+03  0.00000000000E+00 0.  1.
         -1    1    6    6    0  502  0.12540446742E+02 -0.23955336577E+02 -0.15781531257E+02  0.31307789507E+02  0.00000000000E+00 0.  1.
<mgrwt>
<rscale>  0 0.18518880E+04</rscale>
<asrwt>0</asrwt>
<pdfrwt beam="1">  1        2 0.12257828E+00 0.18518880E+04</pdfrwt>
<pdfrwt beam="2">  1       -2 0.16555000E+00 0.18518880E+04</pdfrwt>
<totfact> 0.74658891E+00</totfact>
</mgrwt>
</event>
<event>
12    1  0.1536832E-007  0.1718154E+04  0.7818608E-02  0.8751078E-01
          1   -1    0    0  501    0  0.00000000000E+00  0.00000000000E+00  0.17630929201E+04  0.17630929201E+04  0.00000000000E+00 0. -1.
         -1   -1    0    0    0  501 -0.00000000000E+00 -0.00000000000E+00 -0.41859027075E+03  0.41859027075E+03  0.00000000000E+00 0.  1.
         23    2    1    2    0    0  0.20772622505E+03  0.43251896283E+03  0.97957201048E+03  0.10946328678E+04  0.91852891612E+02 0.  0.
        254    2    1    2    0    0 -0.20772622505E+03 -0.43251896283E+03  0.36493063884E+03  0.10870503231E+04  0.90458896517E+03 0.  0.
        -24    2    4    4    0    0 -0.41640834449E+03  0.47454215586E+01  0.41605260091E+03  0.59428127268E+03  0.81560014376E+02 0.  0.
         24    2    4    4    0    0  0.20868211945E+03 -0.43726438438E+03 -0.51121962062E+02  0.49276905038E+03  0.73888518571E+02 0.  0.
         13    1    3    3    0    0  0.20679015327E+01  0.34567847167E+02  0.35056467789E+02  0.49276446791E+02  0.00000000000E+00 0.  1.
        -13    1    3    3    0    0  0.20565832351E+03  0.39795111566E+03  0.94451554269E+03  0.10453564210E+04  0.00000000000E+00 0. -1.
          2    1    6    6  502    0  0.67818782714E+02 -0.21432679430E+03 -0.37207016824E+01  0.22483150506E+03  0.00000000000E+00 0. -1.
          1    1    5    5  503    0 -0.61753380018E+02 -0.20164745198E+02  0.37749632529E+02  0.75134091121E+02  0.00000000000E+00 0. -1.
         -2    1    5    5    0  503 -0.35465496448E+03  0.24910166757E+02  0.37830296838E+03  0.51914718156E+03  0.00000000000E+00 0.  1.
         -1    1    6    6    0  502  0.14086333673E+03 -0.22293759008E+03 -0.47401260380E+02  0.26793754532E+03  0.00000000000E+00 0.  1.
<mgrwt>
<rscale>  0 0.17181543E+04</rscale>
<asrwt>0</asrwt>
<pdfrwt beam="1">  1        1 0.27124506E+00 0.17181543E+04</pdfrwt>
<pdfrwt beam="2">  1       -1 0.64398504E-01 0.17181543E+04</pdfrwt>
<totfact> 0.10028513E+01</totfact>
</mgrwt>
</event>
<event>
12    1  0.1536832E-007  0.1247017E+04  0.7818608E-02  0.9072670E-01
          2   -1    0    0  501    0  0.00000000000E+00  0.00000000000E+00  0.11439198563E+04  0.11439198563E+04  0.00000000000E+00 0. -1.
         -2   -1    0    0    0  501 -0.00000000000E+00 -0.00000000000E+00 -0.33985151375E+03  0.33985151375E+03  0.00000000000E+00 0.  1.
         23    2    1    2    0    0  0.29012950907E+03  0.57830827118E+02  0.19792890939E+03  0.36781737122E+03  0.92705063502E+02 0.  0.
        254    2    1    2    0    0 -0.29012950907E+03 -0.57830827118E+02  0.60613943318E+03  0.11159539989E+04  0.88906061577E+03 0.  0.
        -24    2    4    4    0    0 -0.29130225204E+03 -0.43939611595E+03  0.25131278624E+03  0.58904996522E+03  0.76784088520E+02 0.  0.
         24    2    4    4    0    0  0.11727429711E+01  0.38156528883E+03  0.35482664694E+03  0.52690403363E+03  0.78310065206E+02 0.  0.
         11    1    3    3    0    0  0.13829492829E+03 -0.25245702075E-01  0.13591013258E+03  0.19389959248E+03  0.00000000000E+00 0. -1.
        -11    1    3    3    0    0  0.15183458077E+03  0.57856072820E+02  0.62018776813E+02  0.17391777873E+03  0.00000000000E+00 0.  1.
          2    1    6    6  502    0  0.21889123939E+02  0.15778101796E+03  0.10458641344E+03  0.19055786851E+03  0.00000000000E+00 0. -1.
          3    1    5    5  503    0 -0.29055766098E+03 -0.40643840179E+03  0.23924869611E+03  0.55394572604E+03  0.00000000000E+00 0. -1.
         -4    1    5    5    0  503 -0.74459106132E+00 -0.32957714156E+02  0.12064090124E+02  0.35104239185E+02  0.00000000000E+00 0.  1.
         -1    1    6    6    0  502 -0.20716380968E+02  0.22378427087E+03  0.25024023350E+03  0.33634616512E+03  0.00000000000E+00 0.  1.
<mgrwt>
<rscale>  0 0.12470171E+04</rscale>
<asrwt>0</asrwt>
<pdfrwt beam="1">  1        2 0.17598767E+00 0.12470171E+04</pdfrwt>
<pdfrwt beam="2">  1       -2 0.52284849E-01 0.12470171E+04</pdfrwt>
<totfact> 0.69532995E+01</totfact>
</mgrwt>
</event>
<event>
12    1  0.1536832E-007  0.1339697E+04  0.7818608E-02  0.8998664E-01
          1   -1    0    0  501    0  0.00000000000E+00  0.00000000000E+00  0.25772647425E+03  0.25772647425E+03  0.00000000000E+00 0. -1.
         -1   -1    0    0    0  501 -0.00000000000E+00 -0.00000000000E+00 -0.17409826250E+04  0.17409826250E+04  0.00000000000E+00 0.  1.
         23    2    1    2    0    0  0.28573932856E+03  0.14588349876E+03 -0.17068848331E+03  0.37473204078E+03  0.91436234353E+02 0.  0.
        254    2    1    2    0    0 -0.28573932856E+03 -0.14588349876E+03 -0.13125676674E+04  0.16239770584E+04  0.90085439762E+03 0.  0.
        -24    2    4    4    0    0 -0.96405112992E+02 -0.16001003343E+03  0.78856533990E+02  0.21736543373E+03  0.78308506697E+02 0.  0.
         24    2    4    4    0    0 -0.18933421557E+03  0.14126534671E+02 -0.13914242014E+04  0.14066116247E+04  0.80299130427E+02 0.  0.
         11    1    3    3    0    0  0.31662067421E+02  0.32139131812E+01 -0.50142020148E+02  0.59388870471E+02  0.00000000000E+00 0.  1.
        -11    1    3    3    0    0  0.25407726114E+03  0.14266958558E+03 -0.12054646316E+03  0.31534317031E+03  0.00000000000E+00 0. -1.
          4    1    6    6  502    0 -0.16479862444E+03 -0.55538397121E+01 -0.12879538926E+04  0.12984662726E+04  0.00000000000E+00 0. -1.
          1    1    5    5  503    0 -0.99324764532E+02 -0.10154508731E+03  0.69315378337E+02  0.15805516530E+03  0.00000000000E+00 0. -1.
         -2    1    5    5    0  503  0.29196515393E+01 -0.58464946121E+02  0.95411556527E+01  0.59310268430E+02  0.00000000000E+00 0.  1.
         -3    1    6    6    0  502 -0.24535591124E+02  0.19680374383E+02 -0.10347030885E+03  0.10814535210E+03  0.00000000000E+00 0.  1.
<mgrwt>
<rscale>  0 0.13396974E+04</rscale>
<asrwt>0</asrwt>
<pdfrwt beam="1">  1        1 0.39650226E-01 0.13396974E+04</pdfrwt>
<pdfrwt beam="2">  1       -1 0.26784349E+00 0.13396974E+04</pdfrwt>
<totfact> 0.55993503E+00</totfact>
</mgrwt>
</event>
<event>
12    1  0.1536832E-007  0.1358545E+04  0.7818608E-02  0.8984384E-01
          2   -1    0    0  501    0  0.00000000000E+00  0.00000000000E+00  0.97366718823E+03  0.97366718823E+03  0.00000000000E+00 0. -1.
         -2   -1    0    0    0  501 -0.00000000000E+00 -0.00000000000E+00 -0.47389026749E+03  0.47389026749E+03  0.00000000000E+00 0.  1.
         23    2    1    2    0    0 -0.29747307230E+03 -0.14370343051E+03 -0.47488348761E+02  0.34432774139E+03  0.84649545391E+02 0.  0.
        254    2    1    2    0    0  0.29747307230E+03  0.14370343051E+03  0.54726526950E+03  0.11032297143E+04  0.89915272489E+03 0.  0.
        -24    2    4    4    0    0  0.53916995782E+03  0.16528689201E+03  0.86873276835E+02  0.57621354140E+03  0.80318609155E+02 0.  0.
         24    2    4    4    0    0 -0.24169688552E+03 -0.21583461500E+02  0.46039199267E+03  0.52701617293E+03  0.83078452907E+02 0.  0.
         11    1    3    3    0    0 -0.53891121215E+02  0.41352910437E+01  0.61126215918E+01  0.54394096376E+02  0.00000000000E+00 0. -1.
        -11    1    3    3    0    0 -0.24358195109E+03 -0.14783872156E+03 -0.53600970353E+02  0.28993364501E+03  0.00000000000E+00 0.  1.
          2    1    6    6  502    0 -0.14793158427E+02  0.16570161765E+02  0.74439300778E+02  0.77682799238E+02  0.00000000000E+00 0. -1.
          1    1    5    5  503    0  0.12485977317E+03  0.23753919811E+02 -0.11049190224E+02  0.12757858860E+03  0.00000000000E+00 0. -1.
         -2    1    5    5    0  503  0.41431018464E+03  0.14153297220E+03  0.97922467060E+02  0.44863495280E+03  0.00000000000E+00 0.  1.
         -1    1    6    6    0  502 -0.22690372709E+03 -0.38153623265E+02  0.38595269189E+03  0.44933337369E+03  0.00000000000E+00 0.  1.
<mgrwt>
<rscale>  0 0.13585454E+04</rscale>
<asrwt>0</asrwt>
<pdfrwt beam="1">  1        2 0.14979495E+00 0.13585454E+04</pdfrwt>
<pdfrwt beam="2">  1       -2 0.72906195E-01 0.13585454E+04</pdfrwt>
<totfact> 0.43487840E+01</totfact>
</mgrwt>
</event>
<event>
12    1  0.1536832E-007  0.1466890E+04  0.7818608E-02  0.8906774E-01
          1   -1    0    0  501    0  0.00000000000E+00  0.00000000000E+00  0.19666880879E+04  0.19666880879E+04  0.00000000000E+00 0. -1.
         -1   -1    0    0    0  501 -0.00000000000E+00 -0.00000000000E+00 -0.27352667012E+03  0.27352667012E+03  0.00000000000E+00 0.  1.
         23    2    1    2    0    0 -0.28087173497E+03  0.32353719636E+03  0.74782296075E+03  0.86671846438E+03  0.91632237503E+02 0.  0.
        254    2    1    2    0    0  0.28087173497E+03 -0.32353719636E+03  0.94533845708E+03  0.13734962937E+04  0.89958991846E+03 0.  0.
        -24    2    4    4    0    0  0.42249157034E+03  0.13447195912E+03  0.69017914766E+03  0.82424250539E+03  0.80290827742E+02 0.  0.
         24    2    4    4    0    0 -0.14161983538E+03 -0.45800915548E+03  0.25515930941E+03  0.54925378829E+03  0.82127257951E+02 0.  0.
         13    1    3    3    0    0 -0.40803820189E+02  0.24217823136E+02  0.42110316969E+02  0.63440787311E+02  0.00000000000E+00 0.  1.
        -13    1    3    3    0    0 -0.24006791478E+03  0.29931937323E+03  0.70571264378E+03  0.80327767707E+03  0.00000000000E+00 0. -1.
          4    1    6    6  502    0 -0.20642435772E+02 -0.45680783651E+02  0.57443181834E+02  0.76240168473E+02  0.00000000000E+00 0. -1.
          3    1    5    5  503    0  0.14115525640E+03  0.66402030934E+01  0.20375307387E+03  0.24796010530E+03  0.00000000000E+00 0. -1.
         -4    1    5    5    0  503  0.28133631394E+03  0.12783175602E+03  0.48642607379E+03  0.57628240009E+03  0.00000000000E+00 0.  1.
         -3    1    6    6    0  502 -0.12097739961E+03 -0.41232837183E+03  0.19771612758E+03  0.47301361982E+03  0.00000000000E+00 0.  1.
<mgrwt>
<rscale>  0 0.14668901E+04</rscale>
<asrwt>0</asrwt>
<pdfrwt beam="1">  1        1 0.30256739E+00 0.14668901E+04</pdfrwt>
<pdfrwt beam="2">  1       -1 0.42081027E-01 0.14668901E+04</pdfrwt>
<totfact> 0.16903116E+01</totfact>
</mgrwt>
</event>
<event>
12    1  0.1536832E-007  0.3060383E+04  0.7818608E-02  0.8226695E-01
         -2   -1    0    0    0  501 -0.00000000000E+00  0.00000000000E+00  0.17281200272E+04  0.17281200272E+04  0.00000000000E+00 0.  1.
          2   -1    0    0  501    0  0.00000000000E+00 -0.00000000000E+00 -0.13549328461E+04  0.13549328461E+04  0.00000000000E+00 0. -1.
         23    2    1    2    0    0  0.10949508923E+04 -0.73188384259E+03  0.63687742127E+03  0.14664388266E+04  0.10128458410E+03 0.  0.
        254    2    1    2    0    0 -0.10949508923E+04  0.73188384259E+03 -0.26369024021E+03  0.16166140467E+04  0.89963160102E+03 0.  0.
        -24    2    4    4    0    0 -0.54647512281E+03  0.58135848276E+03 -0.55272415656E+03  0.97376819772E+03  0.78152186846E+02 0.  0.
         24    2    4    4    0    0 -0.54847576945E+03  0.15052535982E+03  0.28903391635E+03  0.64284584894E+03  0.78908979682E+02 0.  0.
         13    1    3    3    0    0  0.52976154416E+03 -0.32313488116E+03  0.34822657493E+03  0.71156531153E+03  0.00000000000E+00 0.  1.
        -13    1    3    3    0    0  0.56518934810E+03 -0.40874896143E+03  0.28865084634E+03  0.75487351508E+03  0.00000000000E+00 0. -1.
          4    1    6    6  502    0 -0.53560986653E+03  0.13237944424E+03  0.27418078585E+03  0.61609849027E+03  0.00000000000E+00 0. -1.
          1    1    5    5  503    0 -0.53574189698E+03  0.56516266387E+03 -0.55160955738E+03  0.95430672250E+03  0.00000000000E+00 0. -1.
         -4    1    5    5    0  503 -0.10733225828E+02  0.16195818896E+02 -0.11145991809E+01  0.19461475220E+02  0.00000000000E+00 0.  1.
         -3    1    6    6    0  502 -0.12865902918E+02  0.18145915580E+02  0.14853130497E+02  0.26747358668E+02  0.00000000000E+00 0.  1.
<mgrwt>
<rscale>  0 0.30603834E+04</rscale>
<asrwt>0</asrwt>
<pdfrwt beam="1">  1        2 0.20845121E+00 0.30603834E+04</pdfrwt>
<pdfrwt beam="2">  1       -2 0.26586462E+00 0.30603834E+04</pdfrwt>
<totfact> 0.67213601E-01</totfact>
</mgrwt>
</event>
<event>
12    1  0.1536832E-007  0.1769736E+04  0.7818608E-02  0.8722561E-01
         -2   -1    0    0    0  501 -0.00000000000E+00  0.00000000000E+00  0.90448892787E+03  0.90448892787E+03  0.00000000000E+00 0.  1.
          2   -1    0    0  501    0  0.00000000000E+00 -0.00000000000E+00 -0.86567243767E+03  0.86567243767E+03  0.00000000000E+00 0. -1.
         23    2    1    2    0    0  0.38162418678E+03  0.17215319174E+03  0.51904114671E+03  0.67299357271E+03  0.90790393593E+02 0.  0.
        254    2    1    2    0    0 -0.38162418678E+03 -0.17215319174E+03 -0.48022465650E+03  0.10971677928E+04  0.89324560091E+03 0.  0.
        -24    2    4    4    0    0 -0.16954569280E+03 -0.51133830228E+02 -0.71975282183E+03  0.74571633785E+03  0.81782158509E+02 0.  0.
         24    2    4    4    0    0 -0.21207849399E+03 -0.12101936151E+03  0.23952816533E+03  0.35145145498E+03  0.80755245971E+02 0.  0.
         13    1    3    3    0    0  0.21748560596E+03  0.10963637348E+03  0.36823067476E+03  0.44149060355E+03  0.00000000000E+00 0. -1.
        -13    1    3    3    0    0  0.16413858082E+03  0.62516818257E+02  0.15081047195E+03  0.23150296916E+03  0.00000000000E+00 0.  1.
          4    1    6    6  502    0 -0.96239378203E+02 -0.72649218999E+02  0.66563158657E+02  0.13773373236E+03  0.00000000000E+00 0. -1.
          3    1    5    5  503    0 -0.35992229873E+02  0.15034346539E+02 -0.24593701455E+03  0.24901101846E+03  0.00000000000E+00 0. -1.
         -4    1    5    5    0  503 -0.13355346293E+03 -0.66168176767E+02 -0.47381580728E+03  0.49670531938E+03  0.00000000000E+00 0.  1.
         -3    1    6    6    0  502 -0.11583911578E+03 -0.48370142511E+02  0.17296500667E+03  0.21371772263E+03  0.00000000000E+00 0.  1.
<mgrwt>
<rscale>  0 0.17697357E+04</rscale>
<asrwt>0</asrwt>
<pdfrwt beam="1">  1        2 0.13318038E+00 0.17697357E+04</pdfrwt>
<pdfrwt beam="2">  1       -2 0.13915214E+00 0.17697357E+04</pdfrwt>
<totfact> 0.10685474E+01</totfact>
</mgrwt>
</event>
<event>
12    1  0.1536832E-007  0.1311423E+04  0.7818608E-02  0.9020555E-01
          2   -1    0    0  501    0  0.00000000000E+00  0.00000000000E+00  0.18871964425E+04  0.18871964425E+04  0.00000000000E+00 0.  1.
         -2   -1    0    0    0  501 -0.00000000000E+00 -0.00000000000E+00 -0.22782870774E+03  0.22782870774E+03  0.00000000000E+00 0. -1.
         23    2    1    2    0    0 -0.35013735948E+02 -0.30994539913E+03  0.64063776583E+03  0.71832603522E+03  0.91013371118E+02 0.  0.
        254    2    1    2    0    0  0.35013735948E+02  0.30994539913E+03  0.10187299690E+04  0.13966991151E+04  0.90314204651E+03 0.  0.
        -24    2    4    4    0    0 -0.29537157427E+03  0.40586128910E+03  0.28534870610E+03  0.58276520198E+03  0.78890073477E+02 0.  0.
         24    2    4    4    0    0  0.33038531022E+03 -0.95915889963E+02  0.73338126286E+03  0.81393391307E+03  0.79284468670E+02 0.  0.
         13    1    3    3    0    0 -0.61203448555E+02 -0.21405588801E+03  0.48493828160E+03  0.53360183871E+03  0.00000000000E+00 0.  1.
        -13    1    3    3    0    0  0.26189712606E+02 -0.95889511127E+02  0.15569948423E+03  0.18472419652E+03  0.00000000000E+00 0. -1.
          2    1    6    6  502    0  0.19155615549E+03 -0.17138566491E+02  0.43251575173E+03  0.47334698336E+03  0.00000000000E+00 0. -1.
          3    1    5    5  503    0 -0.26188294185E+03  0.31541688094E+03  0.21157845682E+03  0.46134144341E+03  0.00000000000E+00 0. -1.
         -4    1    5    5    0  503 -0.33488632424E+02  0.90444408155E+02  0.73770249272E+02  0.12142375857E+03  0.00000000000E+00 0.  1.
         -1    1    6    6    0  502  0.13882915473E+03 -0.78777323472E+02  0.30086551114E+03  0.34058692971E+03  0.00000000000E+00 0.  1.
<mgrwt>
<rscale>  0 0.13114229E+04</rscale>
<asrwt>0</asrwt>
<pdfrwt beam="1">  1        2 0.29033790E+00 0.13114229E+04</pdfrwt>
<pdfrwt beam="2">  1       -2 0.35050572E-01 0.13114229E+04</pdfrwt>
<totfact> 0.57775636E+01</totfact>
</mgrwt>
</event>
<event>
12    1  0.1536832E-007  0.3415207E+04  0.7818608E-02  0.8134184E-01
          2   -1    0    0  501    0  0.00000000000E+00  0.00000000000E+00  0.23483175582E+04  0.23483175582E+04  0.00000000000E+00 0. -1.
         -2   -1    0    0    0  501 -0.00000000000E+00 -0.00000000000E+00 -0.12417013225E+04  0.12417013225E+04  0.00000000000E+00 0.  1.
         23    2    1    2    0    0 -0.10432217362E+04  0.65865541523E+03 -0.48955098685E+03  0.13304780692E+04  0.91505065260E+02 0.  0.
        254    2    1    2    0    0  0.10432217362E+04 -0.65865541523E+03  0.15961672226E+04  0.22595408115E+04  0.10176621883E+04 0.  0.
        -24    2    4    4    0    0  0.51318080969E+03  0.19303596229E+03  0.81586842113E+03  0.98597416982E+03  0.76722596317E+02 0.  0.
         24    2    4    4    0    0  0.53004092649E+03 -0.85169137752E+03  0.78029880145E+03  0.12735666417E+04  0.82366163684E+02 0.  0.
         11    1    3    3    0    0 -0.89028129689E+02  0.63053214388E+02 -0.16946674799E+02  0.11040337634E+03  0.00000000000E+00 0. -1.
        -11    1    3    3    0    0 -0.95419360650E+03  0.59560220084E+03 -0.47260431205E+03  0.12200746928E+04  0.00000000000E+00 0.  1.
          2    1    6    6  502    0  0.47365419183E+03 -0.80071948946E+03  0.71454332415E+03  0.11730610199E+04  0.00000000000E+00 0. -1.
          1    1    5    5  503    0  0.31659241970E+03  0.11507475136E+03  0.56563933055E+03  0.65834702922E+03  0.00000000000E+00 0. -1.
         -2    1    5    5    0  503  0.19658838999E+03  0.77961210929E+02  0.25022909058E+03  0.32762714061E+03  0.00000000000E+00 0.  1.
         -1    1    6    6    0  502  0.56386734667E+02 -0.50971888057E+02  0.65755477302E+02  0.10050562180E+03  0.00000000000E+00 0.  1.
<mgrwt>
<rscale>  0 0.34152066E+04</rscale>
<asrwt>0</asrwt>
<pdfrwt beam="1">  1        2 0.36127962E+00 0.34152066E+04</pdfrwt>
<pdfrwt beam="2">  1       -2 0.19103097E+00 0.34152066E+04</pdfrwt>
<totfact> 0.53712079E-01</totfact>
</mgrwt>
</event>
<event>
12    1  0.1536832E-007  0.2062810E+04  0.7818608E-02  0.8577805E-01
         -2   -1    0    0    0  501 -0.00000000000E+00  0.00000000000E+00  0.11380395798E+04  0.11380395798E+04  0.00000000000E+00 0. -1.
          2   -1    0    0  501    0  0.00000000000E+00 -0.00000000000E+00 -0.93476198077E+03  0.93476198077E+03  0.00000000000E+00 0.  1.
         23    2    1    2    0    0 -0.87841690860E+02  0.11914280697E+03  0.90201181311E+03  0.91865096381E+03  0.91559331725E+02 0.  0.
        254    2    1    2    0    0  0.87841690860E+02 -0.11914280697E+03 -0.69873421412E+03  0.11541505967E+04  0.90659965079E+03 0.  0.
        -24    2    4    4    0    0  0.38406553580E+03  0.19091819494E+03 -0.17214897205E+03  0.47056944671E+03  0.88567729178E+02 0.  0.
         24    2    4    4    0    0 -0.29622384494E+03 -0.31006100191E+03 -0.52658524207E+03  0.68358115000E+03  0.78133093236E+02 0.  0.
         11    1    3    3    0    0  0.11211188924E+02  0.30012485051E+02  0.84867644715E+02  0.90713599507E+02  0.00000000000E+00 0.  1.
        -11    1    3    3    0    0 -0.99052879783E+02  0.89130321919E+02  0.81714416839E+03  0.82793736431E+03  0.00000000000E+00 0. -1.
          4    1    6    6  502    0 -0.23528896509E+03 -0.22599467152E+03 -0.34802213240E+03  0.47702609288E+03  0.00000000000E+00 0. -1.
          1    1    5    5  503    0  0.37453020304E+03  0.18294576739E+03 -0.18188678861E+03  0.45477998050E+03  0.00000000000E+00 0. -1.
         -2    1    5    5    0  503  0.95353327594E+01  0.79724275546E+01  0.97378165568E+01  0.15789466211E+02  0.00000000000E+00 0.  1.
         -3    1    6    6    0  502 -0.60934879842E+02 -0.84066330392E+02 -0.17856310968E+03  0.20655505712E+03  0.00000000000E+00 0.  1.
<mgrwt>
<rscale>  0 0.20628099E+04</rscale>
<asrwt>0</asrwt>
<pdfrwt beam="1">  1        2 0.14380954E+00 0.20628099E+04</pdfrwt>
<pdfrwt beam="2">  1       -2 0.17508301E+00 0.20628099E+04</pdfrwt>
<totfact> 0.50384431E+00</totfact>
</mgrwt>
</event>
<event>
12    1  0.1536832E-007  0.1698047E+04  0.7818608E-02  0.8762479E-01
         -1   -1    0    0    0  501 -0.00000000000E+00  0.00000000000E+00  0.77086786108E+03  0.77086786108E+03  0.00000000000E+00 0.  1.
          1   -1    0    0  501    0  0.00000000000E+00 -0.00000000000E+00 -0.93510284837E+03  0.93510284837E+03  0.00000000000E+00 0. -1.
         23    2    1    2    0    0 -0.56961233245E+02  0.14305165036E+03  0.53000122799E+03  0.55951089284E+03  0.91884605723E+02 0.  0.
        254    2    1    2    0    0  0.56961233245E+02 -0.14305165036E+03 -0.69423621529E+03  0.11464598166E+04  0.89927628220E+03 0.  0.
        -24    2    4    4    0    0  0.45508363672E+02 -0.50410459063E+03 -0.54054669045E+03  0.74514325213E+03  0.82796691817E+02 0.  0.
         24    2    4    4    0    0  0.11452869573E+02  0.36105294027E+03 -0.15368952484E+03  0.40131656448E+03  0.83331392532E+02 0.  0.
         11    1    3    3    0    0  0.18525069727E+02  0.13569573002E+01  0.63152813549E+02  0.65827785932E+02  0.00000000000E+00 0. -1.
        -11    1    3    3    0    0 -0.75486302972E+02  0.14169469306E+03  0.46684841444E+03  0.49368310691E+03  0.00000000000E+00 0.  1.
          2    1    6    6  502    0 -0.53895273434E+01  0.34461291711E+03 -0.13125766174E+03  0.36880304149E+03  0.00000000000E+00 0. -1.
          3    1    5    5  503    0  0.27047133436E+02 -0.20778121679E+03 -0.28285360641E+03  0.35200957961E+03  0.00000000000E+00 0. -1.
         -4    1    5    5    0  503  0.18461230236E+02 -0.29632337384E+03 -0.25769308404E+03  0.39313367252E+03  0.00000000000E+00 0.  1.
         -1    1    6    6    0  502  0.16842396916E+02  0.16440023161E+02 -0.22431863098E+02  0.32513522994E+02  0.00000000000E+00 0.  1.
<mgrwt>
<rscale>  0 0.16980468E+04</rscale>
<asrwt>0</asrwt>
<pdfrwt beam="1">  1        1 0.14386198E+00 0.16980468E+04</pdfrwt>
<pdfrwt beam="2">  1       -1 0.11859506E+00 0.16980468E+04</pdfrwt>
<totfact> 0.10335115E+01</totfact>
</mgrwt>
</event>
<event>
12    1  0.1536832E-007  0.2958607E+04  0.7818608E-02  0.8255651E-01
         -2   -1    0    0    0  501 -0.00000000000E+00  0.00000000000E+00  0.63067840524E+03  0.63067840524E+03  0.00000000000E+00 0.  1.
          2   -1    0    0  501    0  0.00000000000E+00 -0.00000000000E+00 -0.34698177072E+04  0.34698177072E+04  0.00000000000E+00 0. -1.
         23    2    1    2    0    0  0.56043944274E+01 -0.59054879951E+03  0.37823936291E+03  0.70736425009E+03  0.92303157090E+02 0.  0.
        254    2    1    2    0    0 -0.56043944274E+01  0.59054879951E+03 -0.32173786649E+04  0.33931318624E+04  0.90168679056E+03 0.  0.
        -24    2    4    4    0    0 -0.29250256708E+01  0.24238698579E+03 -0.29117933420E+04  0.29229313613E+04  0.78913049757E+02 0.  0.
         24    2    4    4    0    0 -0.26793687567E+01  0.34816181372E+03 -0.30558532291E+03  0.47020050113E+03  0.80512695498E+02 0.  0.
         11    1    3    3    0    0  0.55857152945E+00 -0.56997826516E+03  0.38159049454E+03  0.68592043291E+03  0.00000000000E+00 0.  1.
        -11    1    3    3    0    0  0.50458228980E+01 -0.20570534350E+02 -0.33511316270E+01  0.21443817182E+02  0.00000000000E+00 0. -1.
          4    1    6    6  502    0  0.26738635425E+01  0.30603073639E+03 -0.22758690005E+03  0.38138924767E+03  0.00000000000E+00 0. -1.
          3    1    5    5  503    0  0.37131859641E+02  0.11870149637E+03 -0.15190103300E+04  0.15240935676E+04  0.00000000000E+00 0. -1.
         -4    1    5    5    0  503 -0.40056885311E+02  0.12368548943E+03 -0.13927830120E+04  0.13988377936E+04  0.00000000000E+00 0.  1.
         -3    1    6    6    0  502 -0.53532322992E+01  0.42131077325E+02 -0.77998422858E+02  0.88811253459E+02  0.00000000000E+00 0.  1.
<mgrwt>
<rscale>  0 0.29586072E+04</rscale>
<asrwt>0</asrwt>
<pdfrwt beam="1">  1        2 0.53381810E+00 0.29586072E+04</pdfrwt>
<pdfrwt beam="2">  1       -2 0.97027448E-01 0.29586072E+04</pdfrwt>
<totfact> 0.64970926E-01</totfact>
</mgrwt>
</event>
<event>
12    1  0.1536832E-007  0.2040435E+04  0.7818608E-02  0.8587946E-01
          2   -1    0    0  501    0  0.00000000000E+00  0.00000000000E+00  0.17839751495E+04  0.17839751495E+04  0.00000000000E+00 0.  1.
         -2   -1    0    0    0  501 -0.00000000000E+00 -0.00000000000E+00 -0.58344100123E+03  0.58344100123E+03  0.00000000000E+00 0. -1.
         23    2    1    2    0    0 -0.27674678949E+03  0.77003228796E+03  0.55105967689E+03  0.99073164276E+03  0.91345007966E+02 0.  0.
        254    2    1    2    0    0  0.27674678949E+03 -0.77003228796E+03  0.64947447142E+03  0.13766845080E+04  0.89660729173E+03 0.  0.
        -24    2    4    4    0    0  0.47770622200E+03 -0.80765095207E+03  0.34842916694E+03  0.10041116368E+04  0.79586429546E+02 0.  0.
         24    2    4    4    0    0 -0.20095943250E+03  0.37618664113E+02  0.30104530449E+03  0.37257287126E+03  0.79889997158E+02 0.  0.
         11    1    3    3    0    0 -0.13782131804E+03  0.51050540907E+03  0.36396216460E+03  0.64193375488E+03  0.00000000000E+00 0.  1.
        -11    1    3    3    0    0 -0.13892547145E+03  0.25952687889E+03  0.18709751229E+03  0.34879788788E+03  0.00000000000E+00 0. -1.
          4    1    6    6  502    0 -0.10355826320E+03 -0.15782107762E+02  0.18017156358E+03  0.20841108685E+03  0.00000000000E+00 0. -1.
          1    1    5    5  503    0  0.10568703496E+02 -0.12138989640E+02  0.18114085676E+02  0.24231645898E+02  0.00000000000E+00 0. -1.
         -2    1    5    5    0  503  0.46713751850E+03 -0.79551196243E+03  0.33031508126E+03  0.97987999085E+03  0.00000000000E+00 0.  1.
         -3    1    6    6    0  502 -0.97401169302E+02  0.53400771875E+02  0.12087374091E+03  0.16416178441E+03  0.00000000000E+00 0.  1.
<mgrwt>
<rscale>  0 0.20404355E+04</rscale>
<asrwt>0</asrwt>
<pdfrwt beam="1">  1        2 0.27445771E+00 0.20404355E+04</pdfrwt>
<pdfrwt beam="2">  1       -2 0.89760155E-01 0.20404355E+04</pdfrwt>
<totfact> 0.86722032E+00</totfact>
</mgrwt>
</event>
<event>
12    1  0.1536832E-007  0.1544792E+04  0.7818608E-02  0.8855201E-01
          2   -1    0    0  501    0  0.00000000000E+00  0.00000000000E+00  0.43915098672E+03  0.43915098672E+03  0.00000000000E+00 0. -1.
         -2   -1    0    0    0  501 -0.00000000000E+00 -0.00000000000E+00 -0.13585202551E+04  0.13585202551E+04  0.00000000000E+00 0.  1.
         23    2    1    2    0    0 -0.18761927310E+03 -0.25626774910E+03 -0.75647383568E+03  0.82659305517E+03  0.10064424434E+03 0.  0.
        254    2    1    2    0    0  0.18761927310E+03  0.25626774910E+03 -0.16289543267E+03  0.97107818661E+03  0.90309676761E+03 0.  0.
        -24    2    4    4    0    0  0.18618290919E+03 -0.31831570558E+03 -0.55895228039E+02  0.38139541553E+03  0.79682007887E+02 0.  0.
         24    2    4    4    0    0  0.14363639113E+01  0.57458345467E+03 -0.10700020463E+03  0.58968277108E+03  0.78284846521E+02 0.  0.
         13    1    3    3    0    0 -0.15587551486E+03 -0.24631600194E+03 -0.60568166269E+03  0.67217484739E+03  0.00000000000E+00 0.  1.
        -13    1    3    3    0    0 -0.31743758239E+02 -0.99517471578E+01 -0.15079217299E+03  0.15441820778E+03  0.00000000000E+00 0. -1.
          2    1    6    6  502    0  0.24557627011E+01  0.56417664597E+02 -0.35255362755E+02  0.66572698999E+02  0.00000000000E+00 0. -1.
          3    1    5    5  503    0  0.14110488227E+03 -0.19494990709E+03 -0.55144555739E+01  0.24072071639E+03  0.00000000000E+00 0. -1.
         -4    1    5    5    0  503  0.45078026919E+02 -0.12336579848E+03 -0.50380772465E+02  0.14067469915E+03  0.00000000000E+00 0.  1.
         -1    1    6    6    0  502 -0.10193987899E+01  0.51816579007E+03 -0.71744841874E+02  0.52311007208E+03  0.00000000000E+00 0.  1.
<mgrwt>
<rscale>  0 0.15447919E+04</rscale>
<asrwt>0</asrwt>
<pdfrwt beam="1">  1        2 0.67561690E-01 0.15447919E+04</pdfrwt>
<pdfrwt beam="2">  1       -2 0.20900312E+00 0.15447919E+04</pdfrwt>
<totfact> 0.79963536E+00</totfact>
</mgrwt>
</event>
<event>
12    1  0.1536832E-007  0.1095536E+04  0.7818608E-02  0.9209553E-01
         -1   -1    0    0    0  501 -0.00000000000E+00  0.00000000000E+00  0.10529711600E+04  0.10529711600E+04  0.00000000000E+00 0.  1.
          1   -1    0    0  501    0  0.00000000000E+00 -0.00000000000E+00 -0.28495557838E+03  0.28495557838E+03  0.00000000000E+00 0. -1.
         23    2    1    2    0    0 -0.85039399807E+02  0.14517646284E+03  0.12195549717E+03  0.22593998622E+03  0.88700784656E+02 0.  0.
        254    2    1    2    0    0  0.85039399807E+02 -0.14517646284E+03  0.64606008447E+03  0.11119867522E+04  0.88927667201E+03 0.  0.
        -24    2    4    4    0    0 -0.15686351415E+03  0.30651865748E+03  0.41352171637E+03  0.54356063718E+03  0.76799133616E+02 0.  0.
         24    2    4    4    0    0  0.24190291396E+03 -0.45169512032E+03  0.23253836809E+03  0.56842611499E+03  0.80552182228E+02 0.  0.
         13    1    3    3    0    0 -0.72650575990E+02  0.77925098081E+02  0.28768309074E+02  0.11035416943E+03  0.00000000000E+00 0. -1.
        -13    1    3    3    0    0 -0.12388823817E+02  0.67251364761E+02  0.93187188099E+02  0.11558581679E+03  0.00000000000E+00 0.  1.
          2    1    6    6  502    0  0.21680837875E+03 -0.39595299448E+03  0.17403147259E+03  0.48380946703E+03  0.00000000000E+00 0. -1.
          3    1    5    5  503    0 -0.14378058341E+03  0.22054139259E+03  0.28109757681E+03  0.38513271699E+03  0.00000000000E+00 0. -1.
         -4    1    5    5    0  503 -0.13082930736E+02  0.85977264897E+02  0.13242413956E+03  0.15842792019E+03  0.00000000000E+00 0.  1.
         -1    1    6    6    0  502  0.25094535208E+02 -0.55742125841E+02  0.58506895503E+02  0.84616647960E+02  0.00000000000E+00 0.  1.
<mgrwt>
<rscale>  0 0.10955364E+04</rscale>
<asrwt>0</asrwt>
<pdfrwt beam="1">  1        1 0.43839320E-01 0.10955364E+04</pdfrwt>
<pdfrwt beam="2">  1       -1 0.16199556E+00 0.10955364E+04</pdfrwt>
<totfact> 0.26385047E+01</totfact>
</mgrwt>
</event>
<event>
12    1  0.1536832E-007  0.2067681E+04  0.7818608E-02  0.8575615E-01
         -2   -1    0    0    0  501 -0.00000000000E+00  0.00000000000E+00  0.12097566963E+04  0.12097566963E+04  0.00000000000E+00 0. -1.
          2   -1    0    0  501    0  0.00000000000E+00 -0.00000000000E+00 -0.88350540427E+03  0.88350540427E+03  0.00000000000E+00 0.  1.
         23    2    1    2    0    0 -0.46521238753E+03  0.38972504442E+03 -0.44514596005E+03  0.75843365574E+03  0.93586904305E+02 0.  0.
        254    2    1    2    0    0  0.46521238753E+03 -0.38972504442E+03  0.77139725204E+03  0.13348284448E+04  0.90465743838E+03 0.  0.
        -24    2    4    4    0    0 -0.18757257381E+03 -0.11729915710E+03 -0.58258878389E+02  0.24168594001E+03  0.77945070316E+02 0.  0.
         24    2    4    4    0    0  0.65278496134E+03 -0.27242588733E+03  0.82965613043E+03  0.10931425048E+04  0.79291684110E+02 0.  0.
         11    1    3    3    0    0 -0.11749823128E+03  0.78851796418E+02 -0.15134707301E+03  0.20719405557E+03  0.00000000000E+00 0. -1.
        -11    1    3    3    0    0 -0.34771415624E+03  0.31087324801E+03 -0.29379888703E+03  0.55123960017E+03  0.00000000000E+00 0.  1.
          4    1    6    6  502    0  0.51088717424E+03 -0.20599238066E+03  0.69283303609E+03  0.88513060143E+03  0.00000000000E+00 0. -1.
          1    1    5    5  503    0 -0.16145116910E+03 -0.85715962644E+02 -0.17086059239E+02  0.18359095750E+03  0.00000000000E+00 0. -1.
         -2    1    5    5    0  503 -0.26121404706E+02 -0.31583194454E+02 -0.41172819150E+02  0.58094982507E+02  0.00000000000E+00 0.  1.
         -3    1    6    6    0  502  0.14189778710E+03 -0.66433506669E+02  0.13682309434E+03  0.20801190335E+03  0.00000000000E+00 0.  1.
<mgrwt>
<rscale>  0 0.20676814E+04</rscale>
<asrwt>0</asrwt>
<pdfrwt beam="1">  1        2 0.13592391E+00 0.20676814E+04</pdfrwt>
<pdfrwt beam="2">  1       -2 0.18611641E+00 0.20676814E+04</pdfrwt>
<totfact> 0.45758438E+00</totfact>
</mgrwt>
</event>
<event>
12    1  0.1654889E-007  0.1350212E+04  0.7818608E-02  0.8990668E-01
         -2   -1    0    0    0  501 -0.00000000000E+00  0.00000000000E+00  0.35716782483E+03  0.35716782483E+03  0.00000000000E+00 0. -1.
          2   -1    0    0  501    0  0.00000000000E+00 -0.00000000000E+00 -0.12760612399E+04  0.12760612399E+04  0.00000000000E+00 0.  1.
         23    2    1    2    0    0  0.17768722191E+03  0.18088519323E+03  0.61955008281E+02  0.27652623814E+03  0.91302439003E+02 0.  0.
        254    2    1    2    0    0 -0.17768722191E+03 -0.18088519323E+03 -0.98084842332E+03  0.13567028266E+04  0.90237837302E+03 0.  0.
        -24    2    4    4    0    0 -0.23035284658E+03 -0.31447023919E+03 -0.39303722046E+02  0.40090905357E+03  0.85025416248E+02 0.  0.
         24    2    4    4    0    0  0.52665624661E+02  0.13358504596E+03 -0.94154470128E+03  0.95579377299E+03  0.80104178788E+02 0.  0.
         13    1    3    3    0    0 -0.42221332052E+00  0.33230803370E+02 -0.91886238146E+01  0.34480362010E+02  0.00000000000E+00 0.  1.
        -13    1    3    3    0    0  0.17810943523E+03  0.14765438986E+03  0.71143632095E+02  0.24204587613E+03  0.00000000000E+00 0. -1.
          4    1    6    6  502    0  0.23693999202E+02 -0.20242833655E+01 -0.19859671069E+03  0.20001539145E+03  0.00000000000E+00 0. -1.
          3    1    5    5  503    0  0.56454508567E+01 -0.22297821519E+02  0.18815146713E+01  0.23078216077E+02  0.00000000000E+00 0. -1.
         -4    1    5    5    0  503 -0.23599829743E+03 -0.29217241767E+03 -0.41185236718E+02  0.37783083749E+03  0.00000000000E+00 0.  1.
         -3    1    6    6    0  502  0.28971625459E+02  0.13560932932E+03 -0.74294799059E+03  0.75577838154E+03  0.00000000000E+00 0.  1.
<mgrwt>
<rscale>  0 0.13502119E+04</rscale>
<asrwt>0</asrwt>
<pdfrwt beam="1">  1        2 0.19631711E+00 0.13502119E+04</pdfrwt>
<pdfrwt beam="2">  1       -2 0.54948896E-01 0.13502119E+04</pdfrwt>
<totfact> 0.51941098E+01</totfact>
</mgrwt>
</event>
<event>
12    1  0.1536832E-007  0.2224643E+04  0.7818608E-02  0.8508241E-01
          2   -1    0    0  501    0  0.00000000000E+00  0.00000000000E+00  0.26345307912E+04  0.26345307912E+04  0.00000000000E+00 0. -1.
         -2   -1    0    0    0  501 -0.00000000000E+00 -0.00000000000E+00 -0.46963157777E+03  0.46963157777E+03  0.00000000000E+00 0.  1.
         23    2    1    2    0    0 -0.26660743836E+03 -0.64691940375E+03  0.47518603148E+02  0.70658893467E+03  0.86172291496E+02 0.  0.
        254    2    1    2    0    0  0.26660743836E+03  0.64691940375E+03  0.21173806103E+04  0.23975734343E+04  0.88060972223E+03 0.  0.
        -24    2    4    4    0    0  0.24922704921E+03  0.50027114024E+03  0.21530340001E+04  0.22258411148E+04  0.80174352907E+02 0.  0.
         24    2    4    4    0    0  0.17380389149E+02  0.14664826351E+03 -0.35653389811E+02  0.17173231951E+03  0.80081422582E+02 0.  0.
         11    1    3    3    0    0 -0.18361534411E+03 -0.45795888980E+03  0.72516766867E+02  0.49869792542E+03  0.00000000000E+00 0.  1.
        -11    1    3    3    0    0 -0.82992094248E+02 -0.18896051395E+03 -0.24998163719E+02  0.20789100926E+03  0.00000000000E+00 0. -1.
          2    1    6    6  502    0  0.31483669193E+02  0.23543979141E+02 -0.26652593953E+02  0.47496327690E+02  0.00000000000E+00 0. -1.
          1    1    5    5  503    0  0.10796291310E+03  0.14649465361E+03  0.61715347352E+03  0.64342449753E+03  0.00000000000E+00 0. -1.
         -2    1    5    5    0  503  0.14126413611E+03  0.35377648663E+03  0.15358805266E+04  0.15824166173E+04  0.00000000000E+00 0.  1.
         -1    1    6    6    0  502 -0.14103280044E+02  0.12310428437E+03 -0.90007958585E+01  0.12423599182E+03  0.00000000000E+00 0.  1.
<mgrwt>
<rscale>  0 0.22246428E+04</rscale>
<asrwt>0</asrwt>
<pdfrwt beam="1">  1        2 0.40531242E+00 0.22246428E+04</pdfrwt>
<pdfrwt beam="2">  1       -2 0.72251014E-01 0.22246428E+04</pdfrwt>
<totfact> 0.45950095E+00</totfact>
</mgrwt>
</event>
<event>
12    1  0.1536832E-007  0.1780156E+04  0.7818608E-02  0.8716924E-01
         -1   -1    0    0    0  501 -0.00000000000E+00  0.00000000000E+00  0.41565902172E+03  0.41565902172E+03  0.00000000000E+00 0.  1.
          1   -1    0    0  501    0  0.00000000000E+00 -0.00000000000E+00 -0.19059833015E+04  0.19059833015E+04  0.00000000000E+00 0. -1.
         23    2    1    2    0    0 -0.29150966710E+03 -0.57379323234E+03 -0.76024515880E+03  0.10001066661E+04  0.89577244066E+02 0.  0.
        254    2    1    2    0    0  0.29150966710E+03  0.57379323234E+03 -0.73007912099E+03  0.13215356571E+04  0.89399351822E+03 0.  0.
        -24    2    4    4    0    0 -0.85869361991E+02  0.67060460122E+03 -0.32652080680E+03  0.75490304536E+03  0.78604657068E+02 0.  0.
         24    2    4    4    0    0  0.37737902909E+03 -0.96811368878E+02 -0.40355831420E+03  0.56663261176E+03  0.80161281236E+02 0.  0.
         13    1    3    3    0    0 -0.15059161699E+03 -0.31031020246E+03 -0.47492483232E+03  0.58696154321E+03  0.00000000000E+00 0. -1.
        -13    1    3    3    0    0 -0.14091805010E+03 -0.26348302989E+03 -0.28532032648E+03  0.41314512291E+03  0.00000000000E+00 0.  1.
          4    1    6    6  502    0  0.22098442715E+03 -0.97063213839E+02 -0.24610808384E+03  0.34470940436E+03  0.00000000000E+00 0. -1.
          3    1    5    5  503    0  0.17481056030E+01 -0.15573127627E+01  0.33534764740E+00  0.23650696151E+01  0.00000000000E+00 0. -1.
         -4    1    5    5    0  503 -0.87617467593E+02  0.67216191399E+03 -0.32685615445E+03  0.75253797574E+03  0.00000000000E+00 0.  1.
         -3    1    6    6    0  502  0.15639460194E+03  0.25184496115E+00 -0.15745023036E+03  0.22192320740E+03  0.00000000000E+00 0.  1.
<mgrwt>
<rscale>  0 0.17801563E+04</rscale>
<asrwt>0</asrwt>
<pdfrwt beam="1">  1        1 0.29322820E+00 0.17801563E+04</pdfrwt>
<pdfrwt beam="2">  1       -1 0.63947543E-01 0.17801563E+04</pdfrwt>
<totfact> 0.80913693E+00</totfact>
</mgrwt>
</event>
<event>
12    1  0.1536832E-007  0.2230464E+04  0.7818608E-02  0.8505854E-01
         -1   -1    0    0    0  501 -0.00000000000E+00  0.00000000000E+00  0.81141764513E+03  0.81141764513E+03  0.00000000000E+00 0.  1.
          1   -1    0    0  501    0  0.00000000000E+00 -0.00000000000E+00 -0.15328021939E+04  0.15328021939E+04  0.00000000000E+00 0. -1.
         23    2    1    2    0    0  0.29312368567E+03  0.18111213476E+03  0.61172120064E+03  0.70761015198E+03  0.88239443634E+02 0.  0.
        254    2    1    2    0    0 -0.29312368567E+03 -0.18111213476E+03 -0.13331057494E+04  0.16366096870E+04  0.88464525555E+03 0.  0.
        -24    2    4    4    0    0 -0.53914936212E+02 -0.49030494799E+03 -0.99524233155E+03  0.11136371473E+04  0.79841311385E+02 0.  0.
         24    2    4    4    0    0 -0.23920874946E+03  0.30919281323E+03 -0.33786341786E+03  0.52297253973E+03  0.80793357467E+02 0.  0.
         13    1    3    3    0    0  0.15009422305E+03  0.41631741253E+02  0.25816893643E+03  0.30151729206E+03  0.00000000000E+00 0. -1.
        -13    1    3    3    0    0  0.14302946262E+03  0.13948039350E+03  0.35355226421E+03  0.40609285992E+03  0.00000000000E+00 0.  1.
          4    1    6    6  502    0 -0.19171124592E+03  0.25130773911E+03 -0.31097832683E+03  0.44341436750E+03  0.00000000000E+00 0. -1.
          3    1    5    5  503    0 -0.68619001758E+02 -0.30969466442E+03 -0.67084511358E+03  0.74205964652E+03  0.00000000000E+00 0. -1.
         -4    1    5    5    0  503  0.14704065546E+02 -0.18061028357E+03 -0.32439721797E+03  0.37157750080E+03  0.00000000000E+00 0.  1.
         -3    1    6    6    0  502 -0.47497503541E+02  0.57885074121E+02 -0.26885091030E+02  0.79558172229E+02  0.00000000000E+00 0.  1.
<mgrwt>
<rscale>  0 0.22304643E+04</rscale>
<asrwt>0</asrwt>
<pdfrwt beam="1">  1        1 0.23581572E+00 0.22304643E+04</pdfrwt>
<pdfrwt beam="2">  1       -1 0.12483349E+00 0.22304643E+04</pdfrwt>
<totfact> 0.31697004E+00</totfact>
</mgrwt>
</event>
<event>
12    1  0.1536832E-007  0.2128063E+04  0.7818608E-02  0.8548981E-01
          2   -1    0    0  501    0  0.00000000000E+00  0.00000000000E+00  0.62135796597E+03  0.62135796597E+03  0.00000000000E+00 0. -1.
         -2   -1    0    0    0  501 -0.00000000000E+00 -0.00000000000E+00 -0.18220788277E+04  0.18220788277E+04  0.00000000000E+00 0.  1.
         23    2    1    2    0    0 -0.79877358714E+03  0.36245760252E+03 -0.49225067328E+03  0.10100742082E+04  0.92327805398E+02 0.  0.
        254    2    1    2    0    0  0.79877358714E+03 -0.36245760252E+03 -0.70847018847E+03  0.14333625855E+04  0.88497657386E+03 0.  0.
        -24    2    4    4    0    0 -0.15706579036E+03  0.70391440440E+02 -0.14205739681E+03  0.23780599823E+03  0.82138732755E+02 0.  0.
         24    2    4    4    0    0  0.95583937750E+03 -0.43284904296E+03 -0.56641279166E+03  0.11955565872E+04  0.86861344244E+02 0.  0.
         13    1    3    3    0    0 -0.38856441469E+03  0.17629908505E+03 -0.29237227646E+03  0.51724773541E+03  0.00000000000E+00 0. -1.
        -13    1    3    3    0    0 -0.41020917245E+03  0.18615851748E+03 -0.19987839683E+03  0.49282647282E+03  0.00000000000E+00 0.  1.
          4    1    6    6  502    0  0.81933611968E+03 -0.37510719846E+03 -0.45083431691E+03  0.10076054132E+04  0.00000000000E+00 0. -1.
          1    1    5    5  503    0 -0.44749071455E+02  0.63872140714E+01  0.70931989620E+00  0.45208174420E+02  0.00000000000E+00 0. -1.
         -2    1    5    5    0  503 -0.11231671890E+03  0.64004226368E+02 -0.14276671670E+03  0.19259782381E+03  0.00000000000E+00 0.  1.
         -3    1    6    6    0  502  0.13650325782E+03 -0.57741844507E+02 -0.11557847475E+03  0.18795117405E+03  0.00000000000E+00 0.  1.
<mgrwt>
<rscale>  0 0.21280632E+04</rscale>
<asrwt>0</asrwt>
<pdfrwt beam="1">  1        2 0.95593535E-01 0.21280632E+04</pdfrwt>
<pdfrwt beam="2">  1       -2 0.28031981E+00 0.21280632E+04</pdfrwt>
<totfact> 0.18325746E+00</totfact>
</mgrwt>
</event>
<event>
12    1  0.1536832E-007  0.1960553E+04  0.7818608E-02  0.8625289E-01
         -2   -1    0    0    0  501 -0.00000000000E+00  0.00000000000E+00  0.39570110406E+03  0.39570110406E+03  0.00000000000E+00 0.  1.
          2   -1    0    0  501    0  0.00000000000E+00 -0.00000000000E+00 -0.24284543009E+04  0.24284543009E+04  0.00000000000E+00 0. -1.
         23    2    1    2    0    0 -0.33538349659E+03 -0.48211166841E+03 -0.15092419427E+04  0.16220052597E+04  0.90421625513E+02 0.  0.
        254    2    1    2    0    0  0.33538349659E+03  0.48211166841E+03 -0.52351125417E+03  0.12021501453E+04  0.90894839673E+03 0.  0.
        -24    2    4    4    0    0  0.58540207197E+02 -0.24286660535E+03  0.21818944673E+00  0.26255829319E+03  0.80781593603E+02 0.  0.
         24    2    4    4    0    0  0.27684328940E+03  0.72497827375E+03 -0.52372944362E+03  0.93959185208E+03  0.79401599978E+02 0.  0.
         13    1    3    3    0    0 -0.31222267677E+03 -0.47642357264E+03 -0.14629382586E+04  0.15699206250E+04  0.00000000000E+00 0. -1.
        -13    1    3    3    0    0 -0.23160819822E+02 -0.56880957610E+01 -0.46303684074E+02  0.52084634655E+02  0.00000000000E+00 0.  1.
          4    1    6    6  502    0  0.22410745297E+03  0.63160275432E+03 -0.47706545249E+03  0.82264064798E+03  0.00000000000E+00 0. -1.
          3    1    5    5  503    0  0.29145646281E+02 -0.20198922755E+03  0.26446316742E+02  0.20578757109E+03  0.00000000000E+00 0. -1.
         -4    1    5    5    0  503  0.29394560916E+02 -0.40877377793E+02 -0.26228127295E+02  0.56770722103E+02  0.00000000000E+00 0.  1.
         -3    1    6    6    0  502  0.52735836424E+02  0.93375519428E+02 -0.46663991128E+02  0.11695120410E+03  0.00000000000E+00 0.  1.
<mgrwt>
<rscale>  0 0.19605530E+04</rscale>
<asrwt>0</asrwt>
<pdfrwt beam="1">  1        2 0.37360836E+00 0.19605530E+04</pdfrwt>
<pdfrwt beam="2">  1       -2 0.60877091E-01 0.19605530E+04</pdfrwt>
<totfact> 0.89661739E+00</totfact>
</mgrwt>
</event>
<event>
12    1  0.1536832E-007  0.2240602E+04  0.7818608E-02  0.8501716E-01
         -2   -1    0    0    0  501 -0.00000000000E+00  0.00000000000E+00  0.45624377415E+03  0.45624377415E+03  0.00000000000E+00 0.  1.
          2   -1    0    0  501    0  0.00000000000E+00 -0.00000000000E+00 -0.27508857670E+04  0.27508857670E+04  0.00000000000E+00 0. -1.
         23    2    1    2    0    0 -0.40438130807E+03  0.74728660870E+03 -0.15646288233E+04  0.17828452590E+04  0.92262370876E+02 0.  0.
        254    2    1    2    0    0  0.40438130807E+03 -0.74728660870E+03 -0.73001316960E+03  0.14242842822E+04  0.87960500841E+03 0.  0.
        -24    2    4    4    0    0  0.54056552726E+03 -0.43747086202E+03 -0.10335363941E+03  0.70747050916E+03  0.78998115038E+02 0.  0.
         24    2    4    4    0    0 -0.13618421919E+03 -0.30981574668E+03 -0.62665953019E+03  0.71681377301E+03  0.81165756072E+02 0.  0.
         13    1    3    3    0    0 -0.39621951380E+02  0.35122754177E+02 -0.12602212111E+03  0.13669338646E+03  0.00000000000E+00 0.  1.
        -13    1    3    3    0    0 -0.36475935669E+03  0.71216385452E+03 -0.14386067022E+04  0.16461518725E+04  0.00000000000E+00 0. -1.
          4    1    6    6  502    0 -0.80428498686E+02 -0.18602069396E+03 -0.28990424345E+03  0.35371869098E+03  0.00000000000E+00 0. -1.
          3    1    5    5  503    0  0.55161990380E+02 -0.28859182485E+02 -0.28864043370E+02  0.68620919522E+02  0.00000000000E+00 0. -1.
         -4    1    5    5    0  503  0.48540353688E+03 -0.40861167953E+03 -0.74489596044E+02  0.63884958964E+03  0.00000000000E+00 0.  1.
         -3    1    6    6    0  502 -0.55755720502E+02 -0.12379505273E+03 -0.33675528674E+03  0.36309508204E+03  0.00000000000E+00 0.  1.
<mgrwt>
<rscale>  0 0.22406022E+04</rscale>
<asrwt>0</asrwt>
<pdfrwt beam="1">  1        2 0.42321318E+00 0.22406022E+04</pdfrwt>
<pdfrwt beam="2">  1       -2 0.70191352E-01 0.22406022E+04</pdfrwt>
<totfact> 0.41693194E+00</totfact>
</mgrwt>
</event>
<event>
12    1  0.1536832E-007  0.1826960E+04  0.7818608E-02  0.8692092E-01
         -1   -1    0    0    0  501 -0.00000000000E+00  0.00000000000E+00  0.94869909689E+03  0.94869909689E+03  0.00000000000E+00 0.  1.
          1   -1    0    0  501    0  0.00000000000E+00 -0.00000000000E+00 -0.87956830515E+03  0.87956830515E+03  0.00000000000E+00 0. -1.
         23    2    1    2    0    0 -0.34738889395E+03 -0.57501319984E+03  0.14220176663E+03  0.69353871721E+03  0.97238810185E+02 0.  0.
        254    2    1    2    0    0  0.34738889395E+03  0.57501319984E+03 -0.73070974884E+02  0.11347286848E+04  0.91156491660E+03 0.  0.
        -24    2    4    4    0    0  0.64374347604E+03  0.48865585318E+03 -0.69426971015E+02  0.81571939888E+03  0.85952472936E+02 0.  0.
         24    2    4    4    0    0 -0.29635458209E+03  0.86357346664E+02 -0.36440038699E+01  0.31900928596E+03  0.80436410356E+02 0.  0.
         13    1    3    3    0    0 -0.63473736086E+02 -0.15859506707E+03  0.69087185286E+02  0.18426706065E+03  0.00000000000E+00 0.  1.
        -13    1    3    3    0    0 -0.28391515787E+03 -0.41641813277E+03  0.73114581339E+02  0.50927165656E+03  0.00000000000E+00 0. -1.
          4    1    6    6  502    0 -0.28552558803E+03  0.77120049836E+02 -0.21072622608E+02  0.29650703015E+03  0.00000000000E+00 0. -1.
          1    1    5    5  503    0  0.43707254030E+03  0.38051180165E+03 -0.48487394066E+02  0.58152615080E+03  0.00000000000E+00 0. -1.
         -2    1    5    5    0  503  0.20667093574E+03  0.10814405153E+03 -0.20939576949E+02  0.23419324808E+03  0.00000000000E+00 0.  1.
         -3    1    6    6    0  502 -0.10828994066E+02  0.92372968276E+01  0.17428618739E+02  0.22502255805E+02  0.00000000000E+00 0.  1.
<mgrwt>
<rscale>  0 0.18269599E+04</rscale>
<asrwt>0</asrwt>
<pdfrwt beam="1">  1        1 0.13531820E+00 0.18269599E+04</pdfrwt>
<pdfrwt beam="2">  1       -1 0.14595371E+00 0.18269599E+04</pdfrwt>
<totfact> 0.66876672E+00</totfact>
</mgrwt>
</event>
<event>
12    1  0.1536832E-007  0.1232740E+04  0.7818608E-02  0.9084672E-01
          1   -1    0    0  501    0  0.00000000000E+00  0.00000000000E+00  0.29948897539E+04  0.29948897539E+04  0.00000000000E+00 0. -1.
         -1   -1    0    0    0  501 -0.00000000000E+00 -0.00000000000E+00 -0.12685338704E+03  0.12685338704E+03  0.00000000000E+00 0.  1.
         23    2    1    2    0    0 -0.19976307989E+03 -0.39253207840E+02  0.12088100762E+04  0.12292259869E+04  0.91261295986E+02 0.  0.
        254    2    1    2    0    0  0.19976307989E+03  0.39253207840E+02  0.16592262906E+04  0.18925171540E+04  0.88721090632E+03 0.  0.
        -24    2    4    4    0    0  0.23862531687E+03 -0.17206621972E+03  0.10686289266E+03  0.32315951823E+03  0.80396334346E+02 0.  0.
         24    2    4    4    0    0 -0.38862236987E+02  0.21131942756E+03  0.15523633980E+04  0.15693576358E+04  0.82976476737E+02 0.  0.
         13    1    3    3    0    0 -0.19551830901E+03 -0.15126144581E+02  0.10054240743E+04  0.10243699423E+04  0.00000000000E+00 0. -1.
        -13    1    3    3    0    0 -0.42447708745E+01 -0.24127063259E+02  0.20338600188E+03  0.20485604463E+03  0.00000000000E+00 0.  1.
          4    1    6    6  502    0 -0.40356361084E+02  0.21183479369E+03  0.13602173955E+04  0.13772051331E+04  0.00000000000E+00 0. -1.
          3    1    5    5  503    0  0.22143972732E+03 -0.17782768586E+03  0.11037270977E+03  0.30469718370E+03  0.00000000000E+00 0. -1.
         -4    1    5    5    0  503  0.17185589552E+02  0.57614661379E+01 -0.35098171077E+01  0.18462334533E+02  0.00000000000E+00 0.  1.
         -3    1    6    6    0  502  0.14941240974E+01 -0.51536613134E+00  0.19214600246E+03  0.19215250263E+03  0.00000000000E+00 0.  1.
<mgrwt>
<rscale>  0 0.12327399E+04</rscale>
<asrwt>0</asrwt>
<pdfrwt beam="1">  1        1 0.46075222E+00 0.12327399E+04</pdfrwt>
<pdfrwt beam="2">  1       -1 0.19515908E-01 0.12327399E+04</pdfrwt>
<totfact> 0.12839328E+01</totfact>
</mgrwt>
</event>
<event>
12    1  0.1536832E-007  0.1750104E+04  0.7818608E-02  0.8733293E-01
         -2   -1    0    0    0  501 -0.00000000000E+00  0.00000000000E+00  0.40608648041E+03  0.40608648041E+03  0.00000000000E+00 0.  1.
          2   -1    0    0  501    0  0.00000000000E+00 -0.00000000000E+00 -0.18855994078E+04  0.18855994078E+04  0.00000000000E+00 0. -1.
         23    2    1    2    0    0  0.33244769973E+03 -0.96818138802E+02  0.15621531880E+03  0.39053478208E+03  0.90658508314E+02 0.  0.
        254    2    1    2    0    0 -0.33244769973E+03  0.96818138802E+02 -0.16357282462E+04  0.19011511061E+04  0.90491624358E+03 0.  0.
        -24    2    4    4    0    0 -0.29597909032E+03  0.44481816120E+03 -0.13073891725E+04  0.14145943839E+04  0.79649256946E+02 0.  0.
         24    2    4    4    0    0 -0.36468609414E+02 -0.34800002240E+03 -0.32833907364E+03  0.48655672219E+03  0.80603483608E+02 0.  0.
         13    1    3    3    0    0  0.10547512524E+03 -0.31510499568E+02  0.52072504888E+01  0.11020448759E+03  0.00000000000E+00 0. -1.
        -13    1    3    3    0    0  0.22697257449E+03 -0.65307639234E+02  0.15100806831E+03  0.28033029449E+03  0.00000000000E+00 0.  1.
          2    1    6    6  502    0 -0.40805233538E+02 -0.33918673411E+03 -0.33170536562E+03  0.47617345291E+03  0.00000000000E+00 0. -1.
          3    1    5    5  503    0 -0.17809720724E+03  0.30917562250E+03 -0.94444497438E+03  0.10095962017E+04  0.00000000000E+00 0. -1.
         -4    1    5    5    0  503 -0.11788188308E+03  0.13564253870E+03 -0.36294419813E+03  0.40499818224E+03  0.00000000000E+00 0.  1.
         -1    1    6    6    0  502  0.43366241245E+01 -0.88132882932E+01  0.33662919759E+01  0.10383269283E+02  0.00000000000E+00 0.  1.
<mgrwt>
<rscale>  0 0.17501045E+04</rscale>
<asrwt>0</asrwt>
<pdfrwt beam="1">  1        2 0.29009222E+00 0.17501045E+04</pdfrwt>
<pdfrwt beam="2">  1       -2 0.62474843E-01 0.17501045E+04</pdfrwt>
<totfact> 0.17422168E+01</totfact>
</mgrwt>
</event>
<event>
12    1  0.1536832E-007  0.1843798E+04  0.7818608E-02  0.8683349E-01
          2   -1    0    0  501    0  0.00000000000E+00  0.00000000000E+00  0.51883929115E+03  0.51883929115E+03  0.00000000000E+00 0. -1.
         -2   -1    0    0    0  501 -0.00000000000E+00 -0.00000000000E+00 -0.16380748269E+04  0.16380748269E+04  0.00000000000E+00 0.  1.
         23    2    1    2    0    0 -0.33552147454E+03 -0.62143045621E+03 -0.43208512591E+03  0.83311135629E+03  0.92878975932E+02 0.  0.
        254    2    1    2    0    0  0.33552147454E+03  0.62143045621E+03 -0.68715040987E+03  0.13238027618E+04  0.88404049374E+03 0.  0.
        -24    2    4    4    0    0 -0.13110520355E+02 -0.15986725466E+03 -0.36418126444E+03  0.40588258171E+03  0.79895255880E+02 0.  0.
         24    2    4    4    0    0  0.34863199489E+03  0.78129771086E+03 -0.32296914543E+03  0.91792018008E+03  0.79359985128E+02 0.  0.
         11    1    3    3    0    0 -0.30400120453E+03 -0.55017912783E+03 -0.34801619484E+03  0.71849083288E+03  0.00000000000E+00 0. -1.
        -11    1    3    3    0    0 -0.31520270014E+02 -0.71251328372E+02 -0.84068931068E+02  0.11462052341E+03  0.00000000000E+00 0.  1.
          4    1    6    6  502    0  0.31254355729E+03  0.73823124079E+03 -0.31425499712E+03  0.86106041791E+03  0.00000000000E+00 0. -1.
          3    1    5    5  503    0 -0.21593808076E+02 -0.37132300134E+02 -0.17516112535E+03  0.18035110228E+03  0.00000000000E+00 0. -1.
         -4    1    5    5    0  503  0.84832877217E+01 -0.12273495452E+03 -0.18902013909E+03  0.22553147943E+03  0.00000000000E+00 0.  1.
         -3    1    6    6    0  502  0.36088437604E+02  0.43066470076E+02 -0.87141483103E+01  0.56859762172E+02  0.00000000000E+00 0.  1.
<mgrwt>
<rscale>  0 0.18437978E+04</rscale>
<asrwt>0</asrwt>
<pdfrwt beam="1">  1        2 0.79821430E-01 0.18437978E+04</pdfrwt>
<pdfrwt beam="2">  1       -2 0.25201151E+00 0.18437978E+04</pdfrwt>
<totfact> 0.34649229E+00</totfact>
</mgrwt>
</event>
<event>
12    1  0.1536832E-007  0.2504804E+04  0.7818608E-02  0.8401276E-01
         -2   -1    0    0    0  501 -0.00000000000E+00  0.00000000000E+00  0.10536642182E+04  0.10536642182E+04  0.00000000000E+00 0.  1.
          2   -1    0    0  501    0  0.00000000000E+00 -0.00000000000E+00 -0.14886251355E+04  0.14886251355E+04  0.00000000000E+00 0. -1.
         23    2    1    2    0    0 -0.93923537688E+02 -0.93366553884E+03 -0.75277727266E+03  0.12062906086E+04  0.88940659570E+02 0.  0.
        254    2    1    2    0    0  0.93923537688E+02  0.93366553884E+03  0.31781635541E+03  0.13359987451E+04  0.89628814659E+03 0.  0.
        -24    2    4    4    0    0  0.21262538879E+03  0.18128276201E+03  0.47283891935E+03  0.55450796097E+03  0.76350765324E+02 0.  0.
         24    2    4    4    0    0 -0.11870185110E+03  0.75238277682E+03 -0.15502256394E+03  0.78149078410E+03  0.80782906551E+02 0.  0.
         13    1    3    3    0    0  0.11964476248E+02 -0.77252602975E+02 -0.44824558158E+02  0.90113008897E+02  0.00000000000E+00 0. -1.
        -13    1    3    3    0    0 -0.10588801394E+03 -0.85641293586E+03 -0.70795271450E+03  0.11161775997E+04  0.00000000000E+00 0.  1.
          4    1    6    6  502    0 -0.12465917847E+03  0.73046712477E+03 -0.13966456366E+03  0.75407448006E+03  0.00000000000E+00 0. -1.
          3    1    5    5  503    0  0.19417580342E+03  0.15466480698E+03  0.36131424163E+03  0.43837589619E+03  0.00000000000E+00 0. -1.
         -4    1    5    5    0  503  0.18449585370E+02  0.26617955030E+02  0.11152467772E+03  0.11613206478E+03  0.00000000000E+00 0.  1.
         -3    1    6    6    0  502  0.59573273669E+01  0.21915652056E+02 -0.15358000284E+02  0.27416304038E+02  0.00000000000E+00 0.  1.
<mgrwt>
<rscale>  0 0.25048042E+04</rscale>
<asrwt>0</asrwt>
<pdfrwt beam="1">  1        2 0.22901925E+00 0.25048042E+04</pdfrwt>
<pdfrwt beam="2">  1       -2 0.16210219E+00 0.25048042E+04</pdfrwt>
<totfact> 0.27922518E+00</totfact>
</mgrwt>
</event>
<event>
12    1  0.1536832E-007  0.1204125E+04  0.7818608E-02  0.9109254E-01
          2   -1    0    0  501    0  0.00000000000E+00  0.00000000000E+00  0.12345285547E+04  0.12345285547E+04  0.00000000000E+00 0. -1.
         -2   -1    0    0    0  501 -0.00000000000E+00 -0.00000000000E+00 -0.29361733279E+03  0.29361733279E+03  0.00000000000E+00 0.  1.
         23    2    1    2    0    0 -0.82682800555E+02  0.11180755035E+03 -0.69000409495E+02  0.17968250790E+03  0.90484105297E+02 0.  0.
        254    2    1    2    0    0  0.82682800555E+02 -0.11180755035E+03  0.10099116315E+04  0.13484633796E+04  0.88266336111E+03 0.  0.
        -24    2    4    4    0    0 -0.14168541482E+03  0.33364764147E+03  0.56393490034E+03  0.67457937689E+03  0.75094996369E+02 0.  0.
         24    2    4    4    0    0  0.22436821537E+03 -0.44545519181E+03  0.44597673112E+03  0.67388400274E+03  0.80330445496E+02 0.  0.
         13    1    3    3    0    0 -0.19545812017E+02 -0.94741110209E+01 -0.30847841636E+02  0.37727799838E+02  0.00000000000E+00 0. -1.
        -13    1    3    3    0    0 -0.63136988538E+02  0.12128166137E+03 -0.38152567859E+02  0.14195470806E+03  0.00000000000E+00 0.  1.
          4    1    6    6  502    0  0.77074162006E+02 -0.19386176066E+03  0.13993433844E+03  0.25120594693E+03  0.00000000000E+00 0. -1.
          3    1    5    5  503    0 -0.25295254850E+02  0.14882775882E+03  0.20883954076E+03  0.25768877643E+03  0.00000000000E+00 0. -1.
         -4    1    5    5    0  503 -0.11639015997E+03  0.18481988265E+03  0.35509535958E+03  0.41689060046E+03  0.00000000000E+00 0.  1.
         -3    1    6    6    0  502  0.14729405337E+03 -0.25159343115E+03  0.30604239268E+03  0.42267805582E+03  0.00000000000E+00 0.  1.
<mgrwt>
<rscale>  0 0.12041245E+04</rscale>
<asrwt>0</asrwt>
<pdfrwt beam="1">  1        2 0.18992747E+00 0.12041245E+04</pdfrwt>
<pdfrwt beam="2">  1       -2 0.45171898E-01 0.12041245E+04</pdfrwt>
<totfact> 0.82782765E+01</totfact>
</mgrwt>
</event>
<event>
12    1  0.1536832E-007  0.1407045E+04  0.7818608E-02  0.8948734E-01
          1   -1    0    0  501    0  0.00000000000E+00  0.00000000000E+00  0.85322042386E+03  0.85322042386E+03  0.00000000000E+00 0. -1.
         -1   -1    0    0    0  501 -0.00000000000E+00 -0.00000000000E+00 -0.58008951041E+03  0.58008951041E+03  0.00000000000E+00 0.  1.
         23    2    1    2    0    0 -0.14059916144E+03 -0.76974296488E+02  0.46377791747E+03  0.49893065797E+03  0.90270029418E+02 0.  0.
        254    2    1    2    0    0  0.14059916144E+03  0.76974296488E+02 -0.19064700402E+03  0.93437927630E+03  0.90056936730E+03 0.  0.
        -24    2    4    4    0    0 -0.31646593331E+03  0.18366644562E+03 -0.25636895069E+03  0.45385849274E+03  0.79865151104E+02 0.  0.
         24    2    4    4    0    0  0.45706509475E+03 -0.10669214913E+03  0.65721946666E+02  0.48052078356E+03  0.79304058141E+02 0.  0.
         13    1    3    3    0    0 -0.24734606753E+02 -0.50449824502E+02  0.22883168630E+03  0.23562878903E+03  0.00000000000E+00 0. -1.
        -13    1    3    3    0    0 -0.11586455469E+03 -0.26524471986E+02  0.23494623117E+03  0.26330186894E+03  0.00000000000E+00 0.  1.
          4    1    6    6  502    0  0.23917620313E+02 -0.21708119560E+02 -0.73027861343E+01  0.33115339370E+02  0.00000000000E+00 0. -1.
          1    1    5    5  503    0 -0.15065786362E+03  0.44092582955E+02 -0.93088251920E+02  0.18250306953E+03  0.00000000000E+00 0. -1.
         -2    1    5    5    0  503 -0.16580806968E+03  0.13957386267E+03 -0.16328069877E+03  0.27135542320E+03  0.00000000000E+00 0.  1.
         -3    1    6    6    0  502  0.43314747444E+03 -0.84984029574E+02  0.73024732800E+02  0.44740544419E+03  0.00000000000E+00 0.  1.
<mgrwt>
<rscale>  0 0.14070454E+04</rscale>
<asrwt>0</asrwt>
<pdfrwt beam="1">  1        1 0.13126468E+00 0.14070454E+04</pdfrwt>
<pdfrwt beam="2">  1       -1 0.89244539E-01 0.14070454E+04</pdfrwt>
<totfact> 0.23877937E+01</totfact>
</mgrwt>
</event>
<event>
12    1  0.1536832E-007  0.1551741E+04  0.7818608E-02  0.8850757E-01
         -1   -1    0    0    0  501 -0.00000000000E+00  0.00000000000E+00  0.21954993034E+03  0.21954993034E+03  0.00000000000E+00 0.  1.
          1   -1    0    0  501    0  0.00000000000E+00 -0.00000000000E+00 -0.27418588751E+04  0.27418588751E+04  0.00000000000E+00 0. -1.
         23    2    1    2    0    0 -0.38714597201E+03  0.13590615899E+03 -0.54654884667E+03  0.68932933816E+03  0.90037808412E+02 0.  0.
        254    2    1    2    0    0  0.38714597201E+03 -0.13590615899E+03 -0.19757600981E+04  0.22720794673E+04  0.10442052733E+04 0.  0.
        -24    2    4    4    0    0  0.67530370587E+03 -0.87805957073E+02 -0.78054848347E+03  0.10389126711E+04  0.79615462297E+02 0.  0.
         24    2    4    4    0    0 -0.28815773386E+03 -0.48100201916E+02 -0.11952116146E+04  0.12331667962E+04  0.82589554596E+02 0.  0.
         11    1    3    3    0    0 -0.15057476312E+03  0.87582697604E+02 -0.27920482074E+03  0.32908786081E+03  0.00000000000E+00 0. -1.
        -11    1    3    3    0    0 -0.23657120889E+03  0.48323461384E+02 -0.26734402594E+03  0.36024147734E+03  0.00000000000E+00 0.  1.
          2    1    6    6  502    0 -0.19935611450E+02 -0.21628239169E+02 -0.66390669896E+02  0.72614946000E+02  0.00000000000E+00 0. -1.
          1    1    5    5  503    0  0.13403696955E+02 -0.87070892856E+01 -0.61659336527E+01  0.17131585849E+02  0.00000000000E+00 0. -1.
         -2    1    5    5    0  503  0.66190000892E+03 -0.79098867787E+02 -0.77438254982E+03  0.10217810852E+04  0.00000000000E+00 0.  1.
         -1    1    6    6    0  502 -0.26822212241E+03 -0.26471962747E+02 -0.11288209447E+04  0.11605518502E+04  0.00000000000E+00 0.  1.
<mgrwt>
<rscale>  0 0.15517409E+04</rscale>
<asrwt>0</asrwt>
<pdfrwt beam="1">  1        1 0.42182444E+00 0.15517409E+04</pdfrwt>
<pdfrwt beam="2">  1       -1 0.33776913E-01 0.15517409E+04</pdfrwt>
<totfact> 0.73296353E+00</totfact>
</mgrwt>
</event>
<event>
12    1  0.1536832E-007  0.1784126E+04  0.7818608E-02  0.8714787E-01
          1   -1    0    0  501    0  0.00000000000E+00  0.00000000000E+00  0.86522596516E+03  0.86522596516E+03  0.00000000000E+00 0. -1.
         -1   -1    0    0    0  501 -0.00000000000E+00 -0.00000000000E+00 -0.91973284279E+03  0.91973284279E+03  0.00000000000E+00 0.  1.
         23    2    1    2    0    0  0.40882702716E+03  0.29277205825E+03 -0.44871713843E+03  0.68024864672E+03  0.92391205300E+02 0.  0.
        254    2    1    2    0    0 -0.40882702716E+03 -0.29277205825E+03  0.39421026079E+03  0.11047101612E+04  0.90118133270E+03 0.  0.
        -24    2    4    4    0    0 -0.40722011708E+03  0.18173755053E+03  0.42694938932E+03  0.62258170848E+03  0.80407970210E+02 0.  0.
         24    2    4    4    0    0 -0.16069100779E+01 -0.47450960878E+03 -0.32739128524E+02  0.48212845275E+03  0.78829204201E+02 0.  0.
         13    1    3    3    0    0  0.24873371650E+03  0.12741935751E+03 -0.27300762124E+03  0.39068825890E+03  0.00000000000E+00 0.  1.
        -13    1    3    3    0    0  0.16009331066E+03  0.16535270074E+03 -0.17570951719E+03  0.28956038782E+03  0.00000000000E+00 0. -1.
          2    1    6    6  502    0  0.17343458165E+02 -0.43996841017E+03 -0.20161831618E+02  0.44077147927E+03  0.00000000000E+00 0. -1.
          1    1    5    5  503    0 -0.37763826470E+03  0.14325753720E+03  0.36997653253E+03  0.54773717745E+03  0.00000000000E+00 0. -1.
         -2    1    5    5    0  503 -0.29581852373E+02  0.38480013326E+02  0.56972856788E+02  0.74844531036E+02  0.00000000000E+00 0.  1.
         -1    1    6    6    0  502 -0.18950368242E+02 -0.34541198612E+02 -0.12577296906E+02  0.41356973481E+02  0.00000000000E+00 0.  1.
<mgrwt>
<rscale>  0 0.17841264E+04</rscale>
<asrwt>0</asrwt>
<pdfrwt beam="1">  1        1 0.13311169E+00 0.17841264E+04</pdfrwt>
<pdfrwt beam="2">  1       -1 0.14149736E+00 0.17841264E+04</pdfrwt>
<totfact> 0.74904353E+00</totfact>
</mgrwt>
</event>
<event>
12    1  0.1536832E-007  0.1098774E+04  0.7818608E-02  0.9206387E-01
         -2   -1    0    0    0  501 -0.00000000000E+00  0.00000000000E+00  0.32695931326E+03  0.32695931326E+03  0.00000000000E+00 0. -1.
          2   -1    0    0  501    0  0.00000000000E+00 -0.00000000000E+00 -0.92313107571E+03  0.92313107571E+03  0.00000000000E+00 0.  1.
         23    2    1    2    0    0 -0.10311378704E+03 -0.17499553101E+03 -0.25231296606E+02  0.22375893172E+03  0.90418760465E+02 0.  0.
        254    2    1    2    0    0  0.10311378704E+03  0.17499553101E+03 -0.57094046585E+03  0.10263314573E+04  0.82832804833E+03 0.  0.
        -24    2    4    4    0    0 -0.23093842666E+03  0.37260422631E+03 -0.38009479226E+03  0.58680202145E+03  0.87738787945E+02 0.  0.
         24    2    4    4    0    0  0.33405221370E+03 -0.19760869530E+03 -0.19084567359E+03  0.43952943580E+03  0.78255836013E+02 0.  0.
         13    1    3    3    0    0 -0.51248788045E+02 -0.23970690753E+02  0.16081681987E+02  0.58818813205E+02  0.00000000000E+00 0. -1.
        -13    1    3    3    0    0 -0.51864998996E+02 -0.15102484025E+03 -0.41312978592E+02  0.16494011851E+03  0.00000000000E+00 0.  1.
          2    1    6    6  502    0  0.15727730039E+03 -0.78164705413E+02 -0.12732890069E+03  0.21692975670E+03  0.00000000000E+00 0. -1.
          3    1    5    5  503    0 -0.15089043415E+03  0.16141845855E+03 -0.19784860014E+03  0.29659384764E+03  0.00000000000E+00 0. -1.
         -4    1    5    5    0  503 -0.80047992506E+02  0.21118576776E+03 -0.18224619211E+03  0.29020817381E+03  0.00000000000E+00 0.  1.
         -1    1    6    6    0  502  0.17677491331E+03 -0.11944398989E+03 -0.63516772896E+02  0.22259967910E+03  0.00000000000E+00 0.  1.
<mgrwt>
<rscale>  0 0.10987744E+04</rscale>
<asrwt>0</asrwt>
<pdfrwt beam="1">  1        2 0.14202016E+00 0.10987744E+04</pdfrwt>
<pdfrwt beam="2">  1       -2 0.50301434E-01 0.10987744E+04</pdfrwt>
<totfact> 0.10498441E+02</totfact>
</mgrwt>
</event>
<event>
12    1  0.1536832E-007  0.1446915E+04  0.7818608E-02  0.8920542E-01
          1   -1    0    0  501    0  0.00000000000E+00  0.00000000000E+00  0.53784181209E+03  0.53784181209E+03  0.00000000000E+00 0. -1.
         -1   -1    0    0    0  501 -0.00000000000E+00 -0.00000000000E+00 -0.97313171529E+03  0.97313171529E+03  0.00000000000E+00 0.  1.
         23    2    1    2    0    0  0.18792673873E+03  0.39912791683E+03 -0.95121241485E+02  0.46044748507E+03  0.91347045924E+02 0.  0.
        254    2    1    2    0    0 -0.18792673873E+03 -0.39912791683E+03 -0.34016866171E+03  0.10505260423E+04  0.89065745045E+03 0.  0.
        -24    2    4    4    0    0 -0.15149789848E+03 -0.58534318258E+03  0.47808611176E+02  0.61145468259E+03  0.77542961814E+02 0.  0.
         24    2    4    4    0    0 -0.36428840249E+02  0.18621526574E+03 -0.38797727289E+03  0.43907135972E+03  0.79082925178E+02 0.  0.
         13    1    3    3    0    0  0.11134354939E+03  0.25018858505E+03 -0.10352608155E+03  0.29276161572E+03  0.00000000000E+00 0. -1.
        -13    1    3    3    0    0  0.76583189343E+02  0.14893933178E+03  0.84048400638E+01  0.16768586935E+03  0.00000000000E+00 0.  1.
          4    1    6    6  502    0 -0.50926865083E+02  0.13911817277E+03 -0.33722507645E+03  0.36833159485E+03  0.00000000000E+00 0. -1.
          3    1    5    5  503    0 -0.57389054822E+02 -0.35298856835E+03  0.86691083556E+01  0.35772836964E+03  0.00000000000E+00 0. -1.
         -4    1    5    5    0  503 -0.94108843658E+02 -0.23235461422E+03  0.39139502820E+02  0.25372631295E+03  0.00000000000E+00 0.  1.
         -3    1    6    6    0  502  0.14498024834E+02  0.47097092971E+02 -0.50752196442E+02  0.70739764871E+02  0.00000000000E+00 0.  1.
<mgrwt>
<rscale>  0 0.14469152E+04</rscale>
<asrwt>0</asrwt>
<pdfrwt beam="1">  1        1 0.82744894E-01 0.14469152E+04</pdfrwt>
<pdfrwt beam="2">  1       -1 0.14971257E+00 0.14469152E+04</pdfrwt>
<totfact> 0.13640868E+01</totfact>
</mgrwt>
</event>
<event>
12    1  0.1536832E-007  0.1124665E+04  0.7818608E-02  0.9181479E-01
         -3   -1    0    0    0  501 -0.00000000000E+00  0.00000000000E+00  0.17138732051E+03  0.17138732051E+03  0.00000000000E+00 0.  1.
          3   -1    0    0  501    0  0.00000000000E+00 -0.00000000000E+00 -0.18450489155E+04  0.18450489155E+04  0.00000000000E+00 0. -1.
         23    2    1    2    0    0  0.12119244104E+03  0.62620552006E+02 -0.44083890444E+02  0.16887758739E+03  0.89259782808E+02 0.  0.
        254    2    1    2    0    0 -0.12119244104E+03 -0.62620552006E+02 -0.16295777045E+04  0.18475586486E+04  0.85984912842E+03 0.  0.
        -24    2    4    4    0    0  0.17214451433E+03 -0.25990793629E+03 -0.21489860552E+03  0.38732070181E+03  0.81547815661E+02 0.  0.
         24    2    4    4    0    0 -0.29333695536E+03  0.19728738429E+03 -0.14146790990E+04  0.14602379468E+04  0.77517912108E+02 0.  0.
         11    1    3    3    0    0 -0.10810546935E+02  0.30122133207E+01  0.92389903796E+01  0.14536172033E+02  0.00000000000E+00 0. -1.
        -11    1    3    3    0    0  0.13200298797E+03  0.59608338685E+02 -0.53322880824E+02  0.15434141535E+03  0.00000000000E+00 0.  1.
          2    1    6    6  502    0 -0.27594168413E+03  0.19790763810E+03 -0.12737346879E+04  0.13182227814E+04  0.00000000000E+00 0. -1.
          3    1    5    5  503    0  0.16733987411E+03 -0.26392891095E+03 -0.21727786421E+03  0.38061893513E+03  0.00000000000E+00 0. -1.
         -4    1    5    5    0  503  0.48046402124E+01  0.40209746584E+01  0.23792586898E+01  0.67017666840E+01  0.00000000000E+00 0.  1.
         -1    1    6    6    0  502 -0.17395271229E+02 -0.62025381444E+00 -0.14094441117E+03  0.14201516544E+03  0.00000000000E+00 0.  1.
<mgrwt>
<rscale>  0 0.11246653E+04</rscale>
<asrwt>0</asrwt>
<pdfrwt beam="1">  1        3 0.28385368E+00 0.11246653E+04</pdfrwt>
<pdfrwt beam="2">  1       -3 0.26367280E-01 0.11246653E+04</pdfrwt>
<totfact> 0.17255142E+00</totfact>
</mgrwt>
</event>
<event>
12    1  0.1536832E-007  0.1768457E+04  0.7818608E-02  0.8723256E-01
          4   -1    0    0  501    0  0.00000000000E+00  0.00000000000E+00  0.18164678164E+04  0.18164678164E+04  0.00000000000E+00 0. -1.
         -4   -1    0    0    0  501 -0.00000000000E+00 -0.00000000000E+00 -0.43042876434E+03  0.43042876434E+03  0.00000000000E+00 0.  1.
         23    2    1    2    0    0  0.40984469154E+03  0.49063867848E+03  0.37782255064E+03  0.74826671278E+03  0.91946776410E+02 0.  0.
        254    2    1    2    0    0 -0.40984469154E+03 -0.49063867848E+03  0.10082165015E+04  0.14986298680E+04  0.90592051715E+03 0.  0.
        -24    2    4    4    0    0 -0.25311664636E+03 -0.62436126835E+02 -0.10563696628E+03  0.29243846373E+03  0.79967367259E+02 0.  0.
         24    2    4    4    0    0 -0.15672804518E+03 -0.42820255164E+03  0.11138534677E+04  0.12061914042E+04  0.79416942220E+02 0.  0.
         13    1    3    3    0    0  0.27115773124E+03  0.37355333531E+03  0.23924743265E+03  0.51991147666E+03  0.00000000000E+00 0.  1.
        -13    1    3    3    0    0  0.13868696030E+03  0.11708534317E+03  0.13857511798E+03  0.22835523613E+03  0.00000000000E+00 0. -1.
          2    1    6    6  502    0 -0.12776361322E+03 -0.40700941925E+03  0.10138039105E+04  0.10998993486E+04  0.00000000000E+00 0. -1.
          1    1    5    5  503    0 -0.15417213777E+03 -0.58598313585E+01 -0.34534224755E+02  0.15810122823E+03  0.00000000000E+00 0. -1.
         -2    1    5    5    0  503 -0.98944508587E+02 -0.56576295476E+02 -0.71102741526E+02  0.13433723550E+03  0.00000000000E+00 0.  1.
         -1    1    6    6    0  502 -0.28964431959E+02 -0.21193132396E+02  0.10004955724E+03  0.10629205560E+03  0.00000000000E+00 0.  1.
<mgrwt>
<rscale>  0 0.17684570E+04</rscale>
<asrwt>0</asrwt>
<pdfrwt beam="1">  1        4 0.27945658E+00 0.17684570E+04</pdfrwt>
<pdfrwt beam="2">  1       -4 0.66219811E-01 0.17684570E+04</pdfrwt>
<totfact> 0.16650312E-01</totfact>
</mgrwt>
</event>
<event>
12    1  0.1536832E-007  0.1268810E+04  0.7818608E-02  0.9054672E-01
         -1   -1    0    0    0  501 -0.00000000000E+00  0.00000000000E+00  0.56320678492E+03  0.56320678492E+03  0.00000000000E+00 0.  1.
          1   -1    0    0  501    0  0.00000000000E+00 -0.00000000000E+00 -0.71460326738E+03  0.71460326738E+03  0.00000000000E+00 0. -1.
         23    2    1    2    0    0  0.26459999418E+03 -0.79599624395E+02 -0.12698253809E+03  0.31949183655E+03  0.97985772023E+02 0.  0.
        254    2    1    2    0    0 -0.26459999418E+03  0.79599624395E+02 -0.24413944368E+02  0.95831821575E+03  0.91729412123E+03 0.  0.
        -24    2    4    4    0    0 -0.23844480390E+03  0.47979429948E+03 -0.73938494847E+02  0.54591688586E+03  0.74160979878E+02 0.  0.
         24    2    4    4    0    0 -0.26155190282E+02 -0.40019467508E+03  0.49524550479E+02  0.41240132989E+03  0.82354743946E+02 0.  0.
         13    1    3    3    0    0  0.27097829530E+03 -0.77457737443E+02 -0.13188856944E+03  0.31116479936E+03  0.00000000000E+00 0. -1.
        -13    1    3    3    0    0 -0.63783011186E+01 -0.21418869521E+01  0.49060313422E+01  0.83270371925E+01  0.00000000000E+00 0.  1.
          4    1    6    6  502    0 -0.13907582265E+02 -0.36404194649E+03  0.21301739910E+02  0.36492975183E+03  0.00000000000E+00 0. -1.
          3    1    5    5  503    0 -0.23710201003E+03  0.43121848343E+03 -0.63154812107E+02  0.49614037721E+03  0.00000000000E+00 0. -1.
         -4    1    5    5    0  503 -0.13427938702E+01  0.48575816047E+02 -0.10783682740E+02  0.49776508650E+02  0.00000000000E+00 0.  1.
         -3    1    6    6    0  502 -0.12247608016E+02 -0.36152728593E+02  0.28222810569E+02  0.47471578057E+02  0.00000000000E+00 0.  1.
<mgrwt>
<rscale>  0 0.12688095E+04</rscale>
<asrwt>0</asrwt>
<pdfrwt beam="1">  1        1 0.10993896E+00 0.12688095E+04</pdfrwt>
<pdfrwt beam="2">  1       -1 0.86647198E-01 0.12688095E+04</pdfrwt>
<totfact> 0.34150652E+01</totfact>
</mgrwt>
</event>
<event>
12    1  0.1536832E-007  0.1300123E+04  0.7818608E-02  0.9029467E-01
          1   -1    0    0  501    0  0.00000000000E+00  0.00000000000E+00  0.18410625030E+04  0.18410625030E+04  0.00000000000E+00 0. -1.
         -1   -1    0    0    0  501 -0.00000000000E+00 -0.00000000000E+00 -0.22953054010E+03  0.22953054010E+03  0.00000000000E+00 0.  1.
         23    2    1    2    0    0  0.23980053183E+03  0.21703959028E+03  0.39498284116E+03  0.51885110427E+03  0.92652818496E+02 0.  0.
        254    2    1    2    0    0 -0.23980053183E+03 -0.21703959028E+03  0.12165491217E+04  0.15517419388E+04  0.90735924543E+03 0.  0.
        -24    2    4    4    0    0 -0.40874384781E+03 -0.48209895503E+03  0.84813387497E+03  0.10607594201E+04  0.79928355291E+02 0.  0.
         24    2    4    4    0    0  0.16894331598E+03  0.26505936475E+03  0.36841524676E+03  0.49098251867E+03  0.80843854088E+02 0.  0.
         13    1    3    3    0    0  0.67111534005E+02  0.16444250355E+02  0.57099981421E+02  0.89636930137E+02  0.00000000000E+00 0. -1.
        -13    1    3    3    0    0  0.17268899782E+03  0.20059533993E+03  0.33788285974E+03  0.42921417413E+03  0.00000000000E+00 0.  1.
          2    1    6    6  502    0 -0.42923796294E+01  0.34065027456E+01  0.25807226414E+02  0.26382602582E+02  0.00000000000E+00 0. -1.
          1    1    5    5  503    0 -0.27163372147E+02 -0.10871369598E+02  0.56132351970E+02  0.63299892583E+02  0.00000000000E+00 0. -1.
         -2    1    5    5    0  503 -0.38158047566E+03 -0.47122758543E+03  0.79200152300E+03  0.99745952755E+03  0.00000000000E+00 0.  1.
         -1    1    6    6    0  502  0.17323569561E+03  0.26165286200E+03  0.34260802034E+03  0.46459991609E+03  0.00000000000E+00 0.  1.
<mgrwt>
<rscale>  0 0.13001232E+04</rscale>
<asrwt>0</asrwt>
<pdfrwt beam="1">  1        1 0.28324038E+00 0.13001232E+04</pdfrwt>
<pdfrwt beam="2">  1       -1 0.35312392E-01 0.13001232E+04</pdfrwt>
<totfact> 0.28684157E+01</totfact>
</mgrwt>
</event>
<event>
12    1  0.1536832E-007  0.2472421E+04  0.7818608E-02  0.8412877E-01
          1   -1    0    0  501    0  0.00000000000E+00  0.00000000000E+00  0.80202350566E+03  0.80202350566E+03  0.00000000000E+00 0. -1.
         -1   -1    0    0    0  501 -0.00000000000E+00 -0.00000000000E+00 -0.19054512985E+04  0.19054512985E+04  0.00000000000E+00 0.  1.
         23    2    1    2    0    0  0.60949248771E+03 -0.35630883468E+02  0.48390782746E+03  0.78453787035E+03  0.92640337340E+02 0.  0.
        254    2    1    2    0    0 -0.60949248771E+03  0.35630883468E+02 -0.15873356203E+04  0.19229369338E+04  0.89738588553E+03 0.  0.
        -24    2    4    4    0    0 -0.78381991942E+02 -0.16714606658E+03  0.33466778387E+02  0.20345470424E+03  0.78690832938E+02 0.  0.
         24    2    4    4    0    0 -0.53111049577E+03  0.20277695005E+03 -0.16208023987E+04  0.17194822296E+04  0.80136583784E+02 0.  0.
         11    1    3    3    0    0  0.20426615835E+03  0.29337625409E+02  0.14376788053E+03  0.25150459874E+03  0.00000000000E+00 0.  1.
        -11    1    3    3    0    0  0.40522632936E+03 -0.64968508877E+02  0.34013994692E+03  0.53303327161E+03  0.00000000000E+00 0. -1.
          2    1    6    6  502    0 -0.37831305916E+03  0.11026166467E+03 -0.10571684114E+04  0.11282213681E+04  0.00000000000E+00 0. -1.
          3    1    5    5  503    0 -0.58041141467E+02 -0.11240347583E+03  0.59159006995E+02  0.13965351263E+03  0.00000000000E+00 0. -1.
         -4    1    5    5    0  503 -0.20340850474E+02 -0.54742590752E+02 -0.25692228608E+02  0.63801191612E+02  0.00000000000E+00 0.  1.
         -1    1    6    6    0  502 -0.15279743660E+03  0.92515285380E+02 -0.56363398734E+03  0.59126086151E+03  0.00000000000E+00 0.  1.
<mgrwt>
<rscale>  0 0.24724213E+04</rscale>
<asrwt>0</asrwt>
<pdfrwt beam="1">  1        1 0.12338823E+00 0.24724213E+04</pdfrwt>
<pdfrwt beam="2">  1       -1 0.29314635E+00 0.24724213E+04</pdfrwt>
<totfact> 0.71740565E-01</totfact>
</mgrwt>
</event>
<event>
12    1  0.1536832E-007  0.2447467E+04  0.7818608E-02  0.8421943E-01
          2   -1    0    0  501    0  0.00000000000E+00  0.00000000000E+00  0.13892786019E+04  0.13892786019E+04  0.00000000000E+00 0. -1.
         -2   -1    0    0    0  501 -0.00000000000E+00 -0.00000000000E+00 -0.10779147344E+04  0.10779147344E+04  0.00000000000E+00 0.  1.
         23    2    1    2    0    0 -0.55435831739E+03 -0.19834988093E+03 -0.75395624022E+03  0.96096468587E+03  0.91363537557E+02 0.  0.
        254    2    1    2    0    0  0.55435831739E+03  0.19834988093E+03  0.10653201078E+04  0.15062286504E+04  0.88722150333E+03 0.  0.
        -24    2    4    4    0    0  0.44829397080E+03  0.37581008928E+03  0.11306298730E+04  0.12754648403E+04  0.79283929652E+02 0.  0.
         24    2    4    4    0    0  0.10606434659E+03 -0.17746020835E+03 -0.65309765298E+02  0.23076381011E+03  0.79024043484E+02 0.  0.
         11    1    3    3    0    0 -0.10414742161E+03 -0.18343454179E+02 -0.90307465396E+02  0.13906331668E+03  0.00000000000E+00 0. -1.
        -11    1    3    3    0    0 -0.45021089578E+03 -0.18000642675E+03 -0.66364877483E+03  0.82190136919E+03  0.00000000000E+00 0.  1.
          4    1    6    6  502    0  0.10903148006E+03 -0.13903063596E+03 -0.31454182426E+02  0.17946238317E+03  0.00000000000E+00 0. -1.
          1    1    5    5  503    0  0.13033147089E+03  0.14974802559E+03  0.33696664712E+03  0.39109753866E+03  0.00000000000E+00 0. -1.
         -2    1    5    5    0  503  0.31796249991E+03  0.22606206369E+03  0.79366322592E+03  0.88436730162E+03  0.00000000000E+00 0.  1.
         -3    1    6    6    0  502 -0.29671334675E+01 -0.38429572387E+02 -0.33855582872E+02  0.51301426944E+02  0.00000000000E+00 0.  1.
<mgrwt>
<rscale>  0 0.24474672E+04</rscale>
<asrwt>0</asrwt>
<pdfrwt beam="1">  1        2 0.21373517E+00 0.24474672E+04</pdfrwt>
<pdfrwt beam="2">  1       -2 0.16583304E+00 0.24474672E+04</pdfrwt>
<totfact> 0.30020993E+00</totfact>
</mgrwt>
</event>
<event>
12    1  0.1536832E-007  0.1573086E+04  0.7818608E-02  0.8837255E-01
         -2   -1    0    0    0  501 -0.00000000000E+00  0.00000000000E+00  0.70124454572E+03  0.70124454572E+03  0.00000000000E+00 0.  1.
          2   -1    0    0  501    0  0.00000000000E+00 -0.00000000000E+00 -0.88221679764E+03  0.88221679764E+03  0.00000000000E+00 0. -1.
         23    2    1    2    0    0 -0.10535444541E+03  0.12073081259E+03 -0.56493653708E+03  0.59336337785E+03  0.85154676737E+02 0.  0.
        254    2    1    2    0    0  0.10535444541E+03 -0.12073081259E+03  0.38396428517E+03  0.99009796551E+03  0.89843748850E+03 0.  0.
        -24    2    4    4    0    0 -0.20666436067E+03  0.43115045949E+02 -0.20120610927E+03  0.30201401960E+03  0.78482510612E+02 0.  0.
         24    2    4    4    0    0  0.31201880608E+03 -0.16384585854E+03  0.58517039443E+03  0.68808394591E+03  0.82667559432E+02 0.  0.
         13    1    3    3    0    0 -0.97147787400E+02  0.11969161242E+03 -0.40708550594E+03  0.43529574295E+03  0.00000000000E+00 0. -1.
        -13    1    3    3    0    0 -0.82066580092E+01  0.10392001747E+01 -0.15785103114E+03  0.15806763491E+03  0.00000000000E+00 0.  1.
          4    1    6    6  502    0  0.30058202242E+03 -0.13898249645E+03  0.56159492865E+03  0.65196207743E+03  0.00000000000E+00 0. -1.
          3    1    5    5  503    0 -0.17674089554E+03  0.54365866016E+02 -0.19628654223E+03  0.26966905311E+03  0.00000000000E+00 0. -1.
         -4    1    5    5    0  503 -0.29923465127E+02 -0.11250820067E+02 -0.49195670324E+01  0.32344966489E+02  0.00000000000E+00 0.  1.
         -3    1    6    6    0  502  0.11436783661E+02 -0.24863362098E+02  0.23575465780E+02  0.36121868474E+02  0.00000000000E+00 0.  1.
<mgrwt>
<rscale>  0 0.15730858E+04</rscale>
<asrwt>0</asrwt>
<pdfrwt beam="1">  1        2 0.13572566E+00 0.15730858E+04</pdfrwt>
<pdfrwt beam="2">  1       -2 0.10788378E+00 0.15730858E+04</pdfrwt>
<totfact> 0.19953874E+01</totfact>
</mgrwt>
</event>
<event>
12    1  0.2829550E-007  0.2319867E+04  0.7818608E-02  0.8470129E-01
         -1   -1    0    0    0  501 -0.00000000000E+00  0.00000000000E+00  0.67691792357E+03  0.67691792357E+03  0.00000000000E+00 0.  1.
          1   -1    0    0  501    0  0.00000000000E+00 -0.00000000000E+00 -0.19876057407E+04  0.19876057407E+04  0.00000000000E+00 0. -1.
         23    2    1    2    0    0  0.76833344649E+03 -0.16834481675E+03 -0.12446194050E+04  0.14750932320E+04  0.90256952709E+02 0.  0.
        254    2    1    2    0    0 -0.76833344649E+03  0.16834481675E+03 -0.66068412056E+02  0.11894304322E+04  0.88977719437E+03 0.  0.
        -24    2    4    4    0    0 -0.20445165273E+03 -0.29696752170E+03  0.18395621334E+03  0.41259445378E+03  0.80025668445E+02 0.  0.
         24    2    4    4    0    0 -0.56388179376E+03  0.46531233846E+03 -0.25002462540E+03  0.77683597841E+03  0.80520645714E+02 0.  0.
         11    1    3    3    0    0  0.69289118278E+03 -0.17871295989E+03 -0.11237826714E+04  0.13322627390E+04  0.00000000000E+00 0. -1.
        -11    1    3    3    0    0  0.75442263713E+02  0.10368143140E+02 -0.12083673359E+03  0.14283049300E+03  0.00000000000E+00 0.  1.
          4    1    6    6  502    0 -0.54548481451E+03  0.46313160977E+03 -0.23561219804E+03  0.75336424038E+03  0.00000000000E+00 0. -1.
          3    1    5    5  503    0 -0.19165843019E+03 -0.29846263787E+03  0.18427005996E+03  0.39971033895E+03  0.00000000000E+00 0. -1.
         -4    1    5    5    0  503 -0.12793222534E+02  0.14951161613E+01 -0.31384662061E+00  0.12884114825E+02  0.00000000000E+00 0.  1.
         -3    1    6    6    0  502 -0.18396979259E+02  0.21807286851E+01 -0.14412427362E+02  0.23471738025E+02  0.00000000000E+00 0.  1.
<mgrwt>
<rscale>  0 0.23198672E+04</rscale>
<asrwt>0</asrwt>
<pdfrwt beam="1">  1        1 0.30578550E+00 0.23198672E+04</pdfrwt>
<pdfrwt beam="2">  1       -1 0.10414122E+00 0.23198672E+04</pdfrwt>
<totfact> 0.23787094E+00</totfact>
</mgrwt>
</event>
<event>
12    1  0.1536832E-007  0.1574993E+04  0.7818608E-02  0.8836060E-01
          2   -1    0    0  501    0  0.00000000000E+00  0.00000000000E+00  0.14266929652E+04  0.14266929652E+04  0.00000000000E+00 0. -1.
         -2   -1    0    0    0  501 -0.00000000000E+00 -0.00000000000E+00 -0.43467719743E+03  0.43467719743E+03  0.00000000000E+00 0.  1.
         23    2    1    2    0    0  0.28631606810E+03  0.23556658059E+03  0.78465215325E+03  0.87268075013E+03  0.91783360695E+02 0.  0.
        254    2    1    2    0    0 -0.28631606810E+03 -0.23556658059E+03  0.20736361452E+03  0.98868941251E+03  0.89277017257E+03 0.  0.
        -24    2    4    4    0    0 -0.33022410793E+03  0.28122561142E+03  0.11317972867E+03  0.45541142349E+03  0.80337461319E+02 0.  0.
         24    2    4    4    0    0  0.43908039831E+02 -0.51679219201E+03  0.94183885846E+02  0.53327798901E+03  0.80701446857E+02 0.  0.
         13    1    3    3    0    0 -0.57251552768E+01 -0.54203415366E+00  0.19577243672E+02  0.20404403293E+02  0.00000000000E+00 0.  1.
        -13    1    3    3    0    0  0.29204122337E+03  0.23610861475E+03  0.76507490958E+03  0.85227634683E+03  0.00000000000E+00 0. -1.
          4    1    6    6  502    0 -0.82794710673E+01 -0.24173676235E+03  0.72340638859E+02  0.25246461127E+03  0.00000000000E+00 0. -1.
          3    1    5    5  503    0 -0.23566428175E+03  0.24142558431E+03  0.72713749923E+02  0.34512498589E+03  0.00000000000E+00 0. -1.
         -4    1    5    5    0  503 -0.94559826178E+02  0.39800027106E+02  0.40465978748E+02  0.11028643761E+03  0.00000000000E+00 0.  1.
         -3    1    6    6    0  502  0.52187510899E+02 -0.27505542966E+03  0.21843246987E+02  0.28081337774E+03  0.00000000000E+00 0.  1.
<mgrwt>
<rscale>  0 0.15749932E+04</rscale>
<asrwt>0</asrwt>
<pdfrwt beam="1">  1        2 0.21949122E+00 0.15749932E+04</pdfrwt>
<pdfrwt beam="2">  1       -2 0.66873415E-01 0.15749932E+04</pdfrwt>
<totfact> 0.27558270E+01</totfact>
</mgrwt>
</event>
<event>
12    1  0.1536832E-007  0.1525195E+04  0.7818608E-02  0.8867869E-01
         -2   -1    0    0    0  501 -0.00000000000E+00  0.00000000000E+00  0.37770535724E+03  0.37770535724E+03  0.00000000000E+00 0.  1.
          2   -1    0    0  501    0  0.00000000000E+00 -0.00000000000E+00 -0.15397047005E+04  0.15397047005E+04  0.00000000000E+00 0. -1.
         23    2    1    2    0    0  0.21463048476E+03 -0.29919483232E+03 -0.77161012943E+03  0.85972162407E+03  0.90306624222E+02 0.  0.
        254    2    1    2    0    0 -0.21463048476E+03  0.29919483232E+03 -0.39038921382E+03  0.10576884337E+04  0.91143693790E+03 0.  0.
        -24    2    4    4    0    0  0.31367829717E+03  0.30815646276E+03 -0.14612582514E+03  0.47021174008E+03  0.79949009256E+02 0.  0.
         24    2    4    4    0    0 -0.52830878193E+03 -0.89616304458E+01 -0.24426338868E+03  0.58747669358E+03  0.79207212853E+02 0.  0.
         11    1    3    3    0    0  0.60954782819E+02 -0.16156200696E+03 -0.36376100287E+03  0.40266590972E+03  0.00000000000E+00 0.  1.
        -11    1    3    3    0    0  0.15367570194E+03 -0.13763282536E+03 -0.40784912656E+03  0.45705571435E+03  0.00000000000E+00 0. -1.
          2    1    6    6  502    0 -0.21497137246E+03 -0.39920360917E+02 -0.84574189288E+02  0.23443361467E+03  0.00000000000E+00 0. -1.
          3    1    5    5  503    0  0.26475489907E+03  0.29472318850E+03 -0.12819866824E+03  0.41640342573E+03  0.00000000000E+00 0. -1.
         -4    1    5    5    0  503  0.48923398101E+02  0.13433274265E+02 -0.17927156898E+02  0.53808314354E+02  0.00000000000E+00 0.  1.
         -1    1    6    6    0  502 -0.31333740947E+03  0.30958730471E+02 -0.15968919940E+03  0.35304307892E+03  0.00000000000E+00 0.  1.
<mgrwt>
<rscale>  0 0.15251947E+04</rscale>
<asrwt>0</asrwt>
<pdfrwt beam="1">  1        2 0.23687765E+00 0.15251947E+04</pdfrwt>
<pdfrwt beam="2">  1       -2 0.58108516E-01 0.15251947E+04</pdfrwt>
<totfact> 0.32212343E+01</totfact>
</mgrwt>
</event>
<event>
12    1  0.1536832E-007  0.3919456E+04  0.7818608E-02  0.8020995E-01
          2   -1    0    0  501    0  0.00000000000E+00  0.00000000000E+00  0.38617847054E+04  0.38617847054E+04  0.00000000000E+00 0. -1.
         -2   -1    0    0    0  501 -0.00000000000E+00 -0.00000000000E+00 -0.99449722296E+03  0.99449722296E+03  0.00000000000E+00 0.  1.
         23    2    1    2    0    0  0.15651460676E+04 -0.91732452828E+03  0.18467499867E+04  0.25904324069E+04  0.93209646842E+02 0.  0.
        254    2    1    2    0    0 -0.15651460676E+04  0.91732452828E+03  0.10205374957E+04  0.22658495214E+04  0.89521548833E+03 0.  0.
        -24    2    4    4    0    0 -0.50959806484E+03  0.31548745742E+03 -0.97007408249E+02  0.61313767948E+03  0.85468434315E+02 0.  0.
         24    2    4    4    0    0 -0.10555480027E+04  0.60183707086E+03  0.11175449039E+04  0.16527118419E+04  0.78488051388E+02 0.  0.
         13    1    3    3    0    0  0.66769007948E+02 -0.22771886426E+02  0.56724687787E+02  0.90522645997E+02  0.00000000000E+00 0.  1.
        -13    1    3    3    0    0  0.14983770596E+04 -0.89455264186E+03  0.17900252990E+04  0.24999097609E+04  0.00000000000E+00 0. -1.
          4    1    6    6  502    0 -0.37925698741E+02  0.68534520956E+01  0.29574834990E+02  0.48579823953E+02  0.00000000000E+00 0. -1.
          1    1    5    5  503    0 -0.24547288621E+03  0.13172670475E+03 -0.55805711410E+01  0.27863956177E+03  0.00000000000E+00 0. -1.
         -2    1    5    5    0  503 -0.26412517863E+03  0.18376075267E+03 -0.91426837108E+02  0.33449811771E+03  0.00000000000E+00 0.  1.
         -3    1    6    6    0  502 -0.10176223040E+04  0.59498361877E+03  0.10879700689E+04  0.16041320180E+04  0.00000000000E+00 0.  1.
<mgrwt>
<rscale>  0 0.39194562E+04</rscale>
<asrwt>0</asrwt>
<pdfrwt beam="1">  1        2 0.59412072E+00 0.39194562E+04</pdfrwt>
<pdfrwt beam="2">  1       -2 0.15299958E+00 0.39194562E+04</pdfrwt>
<totfact> 0.99066451E-02</totfact>
</mgrwt>
</event>
<event>
12    1  0.1536832E-007  0.3452312E+04  0.7818608E-02  0.8125185E-01
          1   -1    0    0  501    0  0.00000000000E+00  0.00000000000E+00  0.25617801830E+04  0.25617801830E+04  0.00000000000E+00 0. -1.
         -1   -1    0    0    0  501 -0.00000000000E+00 -0.00000000000E+00 -0.11631031622E+04  0.11631031622E+04  0.00000000000E+00 0.  1.
         23    2    1    2    0    0 -0.64509059269E+03  0.13860521571E+04  0.16109374396E+03  0.15405027420E+04  0.99574338241E+02 0.  0.
        254    2    1    2    0    0  0.64509059269E+03 -0.13860521571E+04  0.12375832768E+04  0.21843806032E+04  0.95006515446E+03 0.  0.
        -24    2    4    4    0    0  0.23977782023E+03 -0.65488140632E+03  0.11403978901E+04  0.13389679103E+04  0.77231195291E+02 0.  0.
         24    2    4    4    0    0  0.40531277246E+03 -0.73117075078E+03  0.97185386656E+02  0.84541269293E+03  0.79928165774E+02 0.  0.
         13    1    3    3    0    0 -0.34986853964E+03  0.63428024242E+03  0.72243395091E+02  0.72796876931E+03  0.00000000000E+00 0. -1.
        -13    1    3    3    0    0 -0.29522205305E+03  0.75177191468E+03  0.88850348868E+02  0.81253397271E+03  0.00000000000E+00 0.  1.
          2    1    6    6  502    0  0.15704996026E+03 -0.28115750201E+03  0.76691340131E+02  0.33105255264E+03  0.00000000000E+00 0. -1.
          1    1    5    5  503    0 -0.14565480393E+00 -0.23108499414E+02  0.63638108395E+02  0.67704008748E+02  0.00000000000E+00 0. -1.
         -2    1    5    5    0  503  0.23992347504E+03 -0.63177290691E+03  0.10767597817E+04  0.12712639015E+04  0.00000000000E+00 0.  1.
         -1    1    6    6    0  502  0.24826281220E+03 -0.45001324876E+03  0.20494046524E+02  0.51436014029E+03  0.00000000000E+00 0.  1.
<mgrwt>
<rscale>  0 0.34523121E+04</rscale>
<asrwt>0</asrwt>
<pdfrwt beam="1">  1        1 0.39412003E+00 0.34523121E+04</pdfrwt>
<pdfrwt beam="2">  1       -1 0.17893895E+00 0.34523121E+04</pdfrwt>
<totfact> 0.21282378E-01</totfact>
</mgrwt>
</event>
<event>
12    1  0.1536832E-007  0.1171930E+04  0.7818608E-02  0.9137788E-01
         -2   -1    0    0    0  501 -0.00000000000E+00  0.00000000000E+00  0.32937563291E+03  0.32937563291E+03  0.00000000000E+00 0. -1.
          2   -1    0    0  501    0  0.00000000000E+00 -0.00000000000E+00 -0.10424413914E+04  0.10424413914E+04  0.00000000000E+00 0.  1.
         23    2    1    2    0    0 -0.26026506666E+02  0.21690957430E+03 -0.18339099679E+03  0.29942161387E+03  0.91070866220E+02 0.  0.
        254    2    1    2    0    0  0.26026506666E+02 -0.21690957430E+03 -0.52967476171E+03  0.10723954104E+04  0.90650395513E+03 0.  0.
        -24    2    4    4    0    0 -0.25823830115E+03  0.10670960014E+03  0.98530738306E+02  0.30660526039E+03  0.78895629558E+02 0.  0.
         24    2    4    4    0    0  0.28426480781E+03 -0.32361917445E+03 -0.62820550001E+03  0.76579015006E+03  0.79098373222E+02 0.  0.
         11    1    3    3    0    0  0.54804252807E+01  0.11135879019E+03 -0.14469928407E+03  0.18267101036E+03  0.00000000000E+00 0.  1.
        -11    1    3    3    0    0 -0.31506931947E+02  0.10555078411E+03 -0.38691712719E+02  0.11675060351E+03  0.00000000000E+00 0. -1.
          2    1    6    6  502    0  0.17949578699E+03 -0.24515827491E+03 -0.39476030802E+03  0.49815360893E+03  0.00000000000E+00 0. -1.
          1    1    5    5  503    0 -0.19468972132E+02  0.23034886446E+02 -0.93245443062E+01  0.31568877015E+02  0.00000000000E+00 0. -1.
         -2    1    5    5    0  503 -0.23876932901E+03  0.83674713698E+02  0.10785528261E+03  0.27503638337E+03  0.00000000000E+00 0.  1.
         -1    1    6    6    0  502  0.10476902082E+03 -0.78460899536E+02 -0.23344519199E+03  0.26763654112E+03  0.00000000000E+00 0.  1.
<mgrwt>
<rscale>  0 0.11719297E+04</rscale>
<asrwt>0</asrwt>
<pdfrwt beam="1">  1        2 0.16037560E+00 0.11719297E+04</pdfrwt>
<pdfrwt beam="2">  1       -2 0.50673175E-01 0.11719297E+04</pdfrwt>
<totfact> 0.86126900E+01</totfact>
</mgrwt>
</event>
<event>
12    1  0.1536832E-007  0.1754738E+04  0.7818608E-02  0.8730746E-01
          2   -1    0    0  501    0  0.00000000000E+00  0.00000000000E+00  0.14182472548E+04  0.14182472548E+04  0.00000000000E+00 0.  1.
         -2   -1    0    0    0  501 -0.00000000000E+00 -0.00000000000E+00 -0.54276614353E+03  0.54276614353E+03  0.00000000000E+00 0. -1.
         23    2    1    2    0    0 -0.22662015216E+02  0.48060535249E+03 -0.15880160229E+03  0.51495648634E+03  0.92017184004E+02 0.  0.
        254    2    1    2    0    0  0.22662015216E+02 -0.48060535249E+03  0.10342827136E+04  0.14460569120E+04  0.88873212466E+03 0.  0.
        -24    2    4    4    0    0 -0.33493033120E+03 -0.51952793559E+03  0.51111753815E+03  0.80608076658E+03  0.80233794771E+02 0.  0.
         24    2    4    4    0    0  0.35759234641E+03  0.38922583099E+02  0.52316517540E+03  0.63997614542E+03  0.80501007847E+02 0.  0.
         13    1    3    3    0    0 -0.14303373978E+02  0.47870260578E+03 -0.14819918215E+03  0.50132202114E+03  0.00000000000E+00 0. -1.
        -13    1    3    3    0    0 -0.83586412384E+01  0.19027467087E+01 -0.10602420136E+02  0.13634465194E+02  0.00000000000E+00 0.  1.
          2    1    6    6  502    0  0.32373171827E+03  0.97237805774E+01  0.45792310758E+03  0.56088354387E+03  0.00000000000E+00 0. -1.
          1    1    5    5  503    0 -0.27316814571E+03 -0.45667666262E+03  0.46469887582E+03  0.70648386761E+03  0.00000000000E+00 0. -1.
         -2    1    5    5    0  503 -0.61762185487E+02 -0.62851272976E+02  0.46418662336E+02  0.99596898967E+02  0.00000000000E+00 0.  1.
         -1    1    6    6    0  502  0.33860628141E+02  0.29198802522E+02  0.65242067824E+02  0.79092601555E+02  0.00000000000E+00 0.  1.
<mgrwt>
<rscale>  0 0.17547383E+04</rscale>
<asrwt>0</asrwt>
<pdfrwt beam="1">  1        2 0.21819188E+00 0.17547383E+04</pdfrwt>
<pdfrwt beam="2">  1       -2 0.83502484E-01 0.17547383E+04</pdfrwt>
<totfact> 0.16793578E+01</totfact>
</mgrwt>
</event>
<event>
12    1  0.1536832E-007  0.1464815E+04  0.7818608E-02  0.8908194E-01
          2   -1    0    0  501    0  0.00000000000E+00  0.00000000000E+00  0.17833623367E+04  0.17833623367E+04  0.00000000000E+00 0. -1.
         -2   -1    0    0    0  501 -0.00000000000E+00 -0.00000000000E+00 -0.30079165207E+03  0.30079165207E+03  0.00000000000E+00 0.  1.
         23    2    1    2    0    0 -0.69700463386E+02 -0.40767729853E+03  0.20992691183E+03  0.47261724244E+03  0.90767919519E+02 0.  0.
        254    2    1    2    0    0  0.69700463386E+02  0.40767729853E+03  0.12726437728E+04  0.16115367463E+04  0.89798083388E+03 0.  0.
        -24    2    4    4    0    0 -0.17119148085E+03 -0.14597384480E+03  0.46876256174E+02  0.24286896917E+03  0.78568863489E+02 0.  0.
         24    2    4    4    0    0  0.24089194424E+03  0.55365114332E+03  0.12257675166E+04  0.13686677772E+04  0.78657244766E+02 0.  0.
         13    1    3    3    0    0 -0.69333319396E+02 -0.24712717552E+03  0.89150700118E+02  0.27171087095E+03  0.00000000000E+00 0.  1.
        -13    1    3    3    0    0 -0.36714399077E+00 -0.16055012300E+03  0.12077621172E+03  0.20090637150E+03  0.00000000000E+00 0. -1.
          4    1    6    6  502    0  0.73646419175E+02  0.22855134994E+03  0.41902300714E+03  0.48294906060E+03  0.00000000000E+00 0. -1.
          1    1    5    5  503    0 -0.14003855261E+03 -0.13901241521E+03  0.62964575684E+02  0.20712263418E+03  0.00000000000E+00 0. -1.
         -2    1    5    5    0  503 -0.31152928246E+02 -0.69614295841E+01 -0.16088319511E+02  0.35746334985E+02  0.00000000000E+00 0.  1.
         -3    1    6    6    0  502  0.16724552506E+03  0.32509979338E+03  0.80674450949E+03  0.88571871658E+03  0.00000000000E+00 0.  1.
<mgrwt>
<rscale>  0 0.14648147E+04</rscale>
<asrwt>0</asrwt>
<pdfrwt beam="1">  1        2 0.27436343E+00 0.14648147E+04</pdfrwt>
<pdfrwt beam="2">  1       -2 0.46275640E-01 0.14648147E+04</pdfrwt>
<totfact> 0.37803991E+01</totfact>
</mgrwt>
</event>
<event>
12    1  0.1536832E-007  0.1722126E+04  0.7818608E-02  0.8748845E-01
         -1   -1    0    0    0  501 -0.00000000000E+00  0.00000000000E+00  0.52768056656E+03  0.52768056656E+03  0.00000000000E+00 0.  1.
          1   -1    0    0  501    0  0.00000000000E+00 -0.00000000000E+00 -0.14050721640E+04  0.14050721640E+04  0.00000000000E+00 0. -1.
         23    2    1    2    0    0 -0.29328412652E+02 -0.41004976630E+03  0.21126213134E+03  0.47168788300E+03  0.94110595572E+02 0.  0.
        254    2    1    2    0    0  0.29328412652E+02  0.41004976630E+03 -0.10886537288E+04  0.14610648476E+04  0.88348320922E+03 0.  0.
        -24    2    4    4    0    0 -0.74663657820E+02  0.52107936624E+03 -0.11589034556E+04  0.12753286320E+04  0.79419974445E+02 0.  0.
         24    2    4    4    0    0  0.10399207047E+03 -0.11102959995E+03  0.70249726819E+02  0.18573621561E+03  0.80131110609E+02 0.  0.
         13    1    3    3    0    0 -0.15570228999E+01 -0.10190686065E+03  0.10031348402E+03  0.14300429240E+03  0.00000000000E+00 0. -1.
        -13    1    3    3    0    0 -0.27771389752E+02 -0.30814290564E+03  0.11094864733E+03  0.32868359060E+03  0.00000000000E+00 0.  1.
          4    1    6    6  502    0  0.85206909840E+02 -0.12302165915E+03  0.60714517881E+02  0.16149550701E+03  0.00000000000E+00 0. -1.
          3    1    5    5  503    0 -0.47737404632E+02  0.48337759730E+03 -0.10453679037E+04  0.11527041318E+04  0.00000000000E+00 0. -1.
         -4    1    5    5    0  503 -0.26926253188E+02  0.37701768945E+02 -0.11353555195E+03  0.12262450020E+03  0.00000000000E+00 0.  1.
         -3    1    6    6    0  502  0.18785160632E+02  0.11992059204E+02  0.95352089375E+01  0.24240708600E+02  0.00000000000E+00 0.  1.
<mgrwt>
<rscale>  0 0.17221258E+04</rscale>
<asrwt>0</asrwt>
<pdfrwt beam="1">  1        1 0.21616495E+00 0.17221258E+04</pdfrwt>
<pdfrwt beam="2">  1       -1 0.81181627E-01 0.17221258E+04</pdfrwt>
<totfact> 0.10941906E+01</totfact>
</mgrwt>
</event>
<event>
12    1  0.1536832E-007  0.1263693E+04  0.7818608E-02  0.9058863E-01
         -1   -1    0    0    0  501 -0.00000000000E+00  0.00000000000E+00  0.11194107811E+04  0.11194107811E+04  0.00000000000E+00 0.  1.
          1   -1    0    0  501    0  0.00000000000E+00 -0.00000000000E+00 -0.35664305626E+03  0.35664305626E+03  0.00000000000E+00 0. -1.
         23    2    1    2    0    0 -0.93887332980E+02  0.30532062647E+02 -0.18388669122E+03  0.22807537495E+03  0.91962075372E+02 0.  0.
        254    2    1    2    0    0  0.93887332980E+02 -0.30532062647E+02  0.94665441611E+03  0.12479784625E+04  0.80718561749E+03 0.  0.
        -24    2    4    4    0    0 -0.28311231938E+03  0.16442522213E+03  0.62385282976E+03  0.70898379884E+03  0.79230264225E+02 0.  0.
         24    2    4    4    0    0  0.37699965236E+03 -0.19495728478E+03  0.32280158635E+03  0.53899466362E+03  0.78595817233E+02 0.  0.
         13    1    3    3    0    0 -0.91664248925E+02  0.49945988599E+02 -0.18010798685E+03  0.20817258041E+03  0.00000000000E+00 0. -1.
        -13    1    3    3    0    0 -0.22230840550E+01 -0.19413925952E+02 -0.37787043660E+01  0.19902794534E+02  0.00000000000E+00 0.  1.
          4    1    6    6  502    0  0.13883787863E+03 -0.10727165426E+03  0.16017517499E+03  0.23756946570E+03  0.00000000000E+00 0. -1.
          1    1    5    5  503    0 -0.16809730304E+03  0.98907956723E+02  0.28644192701E+03  0.34653782585E+03  0.00000000000E+00 0. -1.
         -2    1    5    5    0  503 -0.11501501634E+03  0.65517265410E+02  0.33741090274E+03  0.36244597299E+03  0.00000000000E+00 0.  1.
         -3    1    6    6    0  502  0.23816177373E+03 -0.87685630525E+02  0.16262641136E+03  0.30142519792E+03  0.00000000000E+00 0.  1.
<mgrwt>
<rscale>  0 0.12636931E+04</rscale>
<asrwt>0</asrwt>
<pdfrwt beam="1">  1        1 0.54868163E-01 0.12636931E+04</pdfrwt>
<pdfrwt beam="2">  1       -1 0.17221704E+00 0.12636931E+04</pdfrwt>
<totfact> 0.16312443E+01</totfact>
</mgrwt>
</event>
<event>
12    1  0.1536832E-007  0.2716040E+04  0.7818608E-02  0.8329819E-01
         -2   -1    0    0    0  501 -0.00000000000E+00  0.00000000000E+00  0.62395108517E+03  0.62395108517E+03  0.00000000000E+00 0.  1.
          2   -1    0    0  501    0  0.00000000000E+00 -0.00000000000E+00 -0.29557094289E+04  0.29557094289E+04  0.00000000000E+00 0. -1.
         23    2    1    2    0    0  0.14393108057E+03 -0.22119477192E+03  0.51706825390E+03  0.58773554138E+03  0.91816144203E+02 0.  0.
        254    2    1    2    0    0 -0.14393108057E+03  0.22119477192E+03 -0.28488265976E+04  0.29919249727E+04  0.87530496156E+03 0.  0.
        -24    2    4    4    0    0  0.77683426291E+02  0.23304403894E+03 -0.27050642669E+04  0.27172943257E+04  0.77275647243E+02 0.  0.
         24    2    4    4    0    0 -0.22161450687E+03 -0.11849267017E+02 -0.14376233072E+03  0.27463064697E+03  0.74168657378E+02 0.  0.
         13    1    3    3    0    0  0.61923888322E+02 -0.65232769898E+02  0.97408249950E+02  0.13258299051E+03  0.00000000000E+00 0. -1.
        -13    1    3    3    0    0  0.82007192252E+02 -0.15596200202E+03  0.41966000395E+03  0.45515255088E+03  0.00000000000E+00 0.  1.
          2    1    6    6  502    0 -0.15079529599E+03  0.18265246572E+02 -0.12151926282E+03  0.19452447600E+03  0.00000000000E+00 0. -1.
          1    1    5    5  503    0  0.64436385975E+02  0.85626330460E+02 -0.95936962065E+03  0.96533620326E+03  0.00000000000E+00 0. -1.
         -2    1    5    5    0  503  0.13247040317E+02  0.14741770848E+03 -0.17456946462E+04  0.17519581224E+04  0.00000000000E+00 0.  1.
         -1    1    6    6    0  502 -0.70819210877E+02 -0.30114513589E+02 -0.22243067894E+02  0.80106170969E+02  0.00000000000E+00 0.  1.
<mgrwt>
<rscale>  0 0.27160398E+04</rscale>
<asrwt>0</asrwt>
<pdfrwt beam="1">  1        2 0.45472453E+00 0.27160398E+04</pdfrwt>
<pdfrwt beam="2">  1       -2 0.95992474E-01 0.27160398E+04</pdfrwt>
<totfact> 0.14784116E+00</totfact>
</mgrwt>
</event>
<event>
12    1  0.1536832E-007  0.1222861E+04  0.7818608E-02  0.9093078E-01
         -2   -1    0    0    0  501 -0.00000000000E+00  0.00000000000E+00  0.32387134556E+03  0.32387134556E+03  0.00000000000E+00 0.  1.
          2   -1    0    0  501    0  0.00000000000E+00 -0.00000000000E+00 -0.11543087612E+04  0.11543087612E+04  0.00000000000E+00 0. -1.
         23    2    1    2    0    0 -0.73435405922E+01  0.23528979169E+03 -0.35346958260E+03  0.43475149113E+03  0.93020962972E+02 0.  0.
        254    2    1    2    0    0  0.73435405922E+01 -0.23528979169E+03 -0.47696783306E+03  0.10434286156E+04  0.89768020392E+03 0.  0.
        -24    2    4    4    0    0  0.35165699926E+03 -0.45873977136E+02  0.65008095877E+02  0.36944357850E+03  0.80594281788E+02 0.  0.
         24    2    4    4    0    0 -0.34431345867E+03 -0.18941581455E+03 -0.54197592893E+03  0.67398503715E+03  0.78024445736E+02 0.  0.
         13    1    3    3    0    0 -0.24476905322E+02  0.23422856286E+03 -0.32238714745E+03  0.39924379944E+03  0.00000000000E+00 0. -1.
        -13    1    3    3    0    0  0.17133364729E+02  0.10612288242E+01 -0.31082435155E+02  0.35507691684E+02  0.00000000000E+00 0.  1.
          4    1    6    6  502    0  0.11513131423E+01 -0.24476150662E+01 -0.22749282299E+02  0.22909521745E+02  0.00000000000E+00 0. -1.
          3    1    5    5  503    0  0.16149261701E+02  0.11485281490E+02  0.16180638012E+02  0.25583654760E+02  0.00000000000E+00 0. -1.
         -4    1    5    5    0  503  0.33550773756E+03 -0.57359258626E+02  0.48827457866E+02  0.34385992374E+03  0.00000000000E+00 0.  1.
         -3    1    6    6    0  502 -0.34546477181E+03 -0.18696819949E+03 -0.51922664664E+03  0.65107551540E+03  0.00000000000E+00 0.  1.
<mgrwt>
<rscale>  0 0.12228615E+04</rscale>
<asrwt>0</asrwt>
<pdfrwt beam="1">  1        2 0.17758596E+00 0.12228615E+04</pdfrwt>
<pdfrwt beam="2">  1       -2 0.49826361E-01 0.12228615E+04</pdfrwt>
<totfact> 0.75760181E+01</totfact>
</mgrwt>
</event>
<event>
12    1  0.1536832E-007  0.1913431E+04  0.7818608E-02  0.8648200E-01
          1   -1    0    0  501    0  0.00000000000E+00  0.00000000000E+00  0.22354024216E+04  0.22354024216E+04  0.00000000000E+00 0. -1.
         -1   -1    0    0    0  501 -0.00000000000E+00 -0.00000000000E+00 -0.40945839095E+03  0.40945839095E+03  0.00000000000E+00 0.  1.
         23    2    1    2    0    0  0.14931643363E+03  0.29127955104E+03 -0.20603640821E+03  0.39745497610E+03  0.91543881902E+02 0.  0.
        254    2    1    2    0    0 -0.14931643363E+03 -0.29127955104E+03  0.20319804389E+04  0.22474058364E+04  0.90263465232E+03 0.  0.
        -24    2    4    4    0    0  0.25944163480E+03  0.14957681330E+03  0.10338764910E+04  0.10795433250E+04  0.82643856566E+02 0.  0.
         24    2    4    4    0    0 -0.40875806843E+03 -0.44085636434E+03  0.99810394786E+03  0.11678625114E+04  0.79081365338E+02 0.  0.
         13    1    3    3    0    0  0.49379812167E+02  0.32246786165E+02 -0.16346971527E+02  0.61200037138E+02  0.00000000000E+00 0. -1.
        -13    1    3    3    0    0  0.99936621463E+02  0.25903276487E+03 -0.18968943668E+03  0.33625493896E+03  0.00000000000E+00 0.  1.
          2    1    6    6  502    0 -0.34361992335E+03 -0.33082773548E+03  0.75189475344E+03  0.89043099819E+03  0.00000000000E+00 0. -1.
          3    1    5    5  503    0  0.59721778138E+02  0.37786566226E+01  0.27349803607E+03  0.27996811384E+03  0.00000000000E+00 0. -1.
         -4    1    5    5    0  503  0.19971985667E+03  0.14579815668E+03  0.76037845493E+03  0.79957521119E+03  0.00000000000E+00 0.  1.
         -1    1    6    6    0  502 -0.65138145089E+02 -0.11002862885E+03  0.24620919442E+03  0.27743151322E+03  0.00000000000E+00 0.  1.
<mgrwt>
<rscale>  0 0.19134307E+04</rscale>
<asrwt>0</asrwt>
<pdfrwt beam="1">  1        1 0.34390806E+00 0.19134307E+04</pdfrwt>
<pdfrwt beam="2">  1       -1 0.62993600E-01 0.19134307E+04</pdfrwt>
<totfact> 0.49232493E+00</totfact>
</mgrwt>
</event>
<event>
12    1  0.1536832E-007  0.2421211E+04  0.7818608E-02  0.8431605E-01
         -1   -1    0    0    0  501 -0.00000000000E+00  0.00000000000E+00  0.72834688235E+03  0.72834688235E+03  0.00000000000E+00 0.  1.
          1   -1    0    0  501    0  0.00000000000E+00 -0.00000000000E+00 -0.20121800625E+04  0.20121800625E+04  0.00000000000E+00 0. -1.
         23    2    1    2    0    0  0.82915028955E+03 -0.57908991158E+03 -0.61761118981E+03  0.11876424503E+04  0.78839581539E+02 0.  0.
        254    2    1    2    0    0 -0.82915028955E+03  0.57908991158E+03 -0.66622199034E+03  0.15528844946E+04  0.97198929248E+03 0.  0.
        -24    2    4    4    0    0 -0.25964919639E+02  0.55939829145E+03 -0.11995013044E+03  0.57809460991E+03  0.78770036714E+02 0.  0.
         24    2    4    4    0    0 -0.80318536991E+03  0.19691620128E+02 -0.54627185990E+03  0.97478988465E+03  0.79422137740E+02 0.  0.
         13    1    3    3    0    0  0.55894701399E+03 -0.42659517300E+03 -0.40377573325E+03  0.81082676870E+03  0.00000000000E+00 0.  1.
        -13    1    3    3    0    0  0.27020327556E+03 -0.15249473858E+03 -0.21383545656E+03  0.37681568160E+03  0.00000000000E+00 0. -1.
          4    1    6    6  502    0 -0.27937380460E+03  0.36182657039E+02 -0.16236975854E+03  0.32515049724E+03  0.00000000000E+00 0. -1.
          1    1    5    5  503    0 -0.22805905700E+02  0.64232731527E+02 -0.31472827226E+02  0.75076574162E+02  0.00000000000E+00 0. -1.
         -2    1    5    5    0  503 -0.31590139382E+01  0.49516555992E+03 -0.88477303215E+02  0.50301803575E+03  0.00000000000E+00 0.  1.
         -3    1    6    6    0  502 -0.52381156532E+03 -0.16491036911E+02 -0.38390210136E+03  0.64963938742E+03  0.00000000000E+00 0.  1.
<mgrwt>
<rscale>  0 0.24212105E+04</rscale>
<asrwt>0</asrwt>
<pdfrwt beam="1">  1        1 0.30956616E+00 0.24212105E+04</pdfrwt>
<pdfrwt beam="2">  1       -1 0.11205337E+00 0.24212105E+04</pdfrwt>
<totfact> 0.19097766E+00</totfact>
</mgrwt>
</event>
<event>
12    1  0.1536832E-007  0.1782011E+04  0.7818608E-02  0.8715925E-01
         -1   -1    0    0    0  501 -0.00000000000E+00  0.00000000000E+00  0.23458014203E+03  0.23458014203E+03  0.00000000000E+00 0.  1.
          1   -1    0    0  501    0  0.00000000000E+00 -0.00000000000E+00 -0.33843051215E+04  0.33843051215E+04  0.00000000000E+00 0. -1.
         23    2    1    2    0    0  0.29239925111E+03 -0.55509764756E+03 -0.79947622973E+03  0.10204134314E+04  0.91927192142E+02 0.  0.
        254    2    1    2    0    0 -0.29239925111E+03  0.55509764756E+03 -0.23502487497E+04  0.25984718322E+04  0.91364979968E+03 0.  0.
        -24    2    4    4    0    0  0.30106467106E+02 -0.19209416881E+03 -0.17188611600E+03  0.27168218445E+03  0.80372902275E+02 0.  0.
         24    2    4    4    0    0 -0.32250571822E+03  0.74719181637E+03 -0.21783626337E+04  0.23267896477E+04  0.79879608512E+02 0.  0.
         11    1    3    3    0    0  0.41285837322E+02 -0.10075439511E+03 -0.19741527503E+03  0.22545234377E+03  0.00000000000E+00 0. -1.
        -11    1    3    3    0    0  0.25111341379E+03 -0.45434325245E+03 -0.60206095470E+03  0.79496108760E+03  0.00000000000E+00 0.  1.
          4    1    6    6  502    0 -0.66946876668E+02  0.10039517783E+03 -0.37698981285E+03  0.39583127090E+03  0.00000000000E+00 0. -1.
          1    1    5    5  503    0 -0.10126486798E+02 -0.10835119430E+02 -0.43468301688E+02  0.45928627234E+02  0.00000000000E+00 0. -1.
         -2    1    5    5    0  503  0.40232953904E+02 -0.18125904938E+03 -0.12841781432E+03  0.22575355722E+03  0.00000000000E+00 0.  1.
         -3    1    6    6    0  502 -0.25555884155E+03  0.64679663854E+03 -0.18013728209E+04  0.19309583768E+04  0.00000000000E+00 0.  1.
<mgrwt>
<rscale>  0 0.17820110E+04</rscale>
<asrwt>0</asrwt>
<pdfrwt beam="1">  1        1 0.52066231E+00 0.17820110E+04</pdfrwt>
<pdfrwt beam="2">  1       -1 0.36089254E-01 0.17820110E+04</pdfrwt>
<totfact> 0.21478825E+00</totfact>
</mgrwt>
</event>
<event>
12    1  0.1536832E-007  0.3414588E+04  0.7818608E-02  0.8134335E-01
         -1   -1    0    0    0  501 -0.00000000000E+00  0.00000000000E+00  0.14734577302E+04  0.14734577302E+04  0.00000000000E+00 0.  1.
          1   -1    0    0  501    0  0.00000000000E+00 -0.00000000000E+00 -0.19782404307E+04  0.19782404307E+04  0.00000000000E+00 0. -1.
         23    2    1    2    0    0 -0.12877045072E+04  0.90726112732E+03 -0.39109501861E+03  0.16256907805E+04  0.92787656111E+02 0.  0.
        254    2    1    2    0    0  0.12877045072E+04 -0.90726112732E+03 -0.11368768182E+03  0.18260073804E+04  0.91655464275E+03 0.  0.
        -24    2    4    4    0    0  0.12294354968E+04 -0.79429083446E+03  0.19791324031E+03  0.14792889737E+04  0.81955149330E+02 0.  0.
         24    2    4    4    0    0  0.58269010444E+02 -0.11297029286E+03 -0.31160092213E+03  0.34671840671E+03  0.83432333221E+02 0.  0.
         13    1    3    3    0    0 -0.12568677583E+04  0.88452834532E+03 -0.36600133133E+03  0.15798936452E+04  0.00000000000E+00 0. -1.
        -13    1    3    3    0    0 -0.30836748904E+02  0.22732781998E+02 -0.25093687284E+02  0.45797135301E+02  0.00000000000E+00 0.  1.
          4    1    6    6  502    0  0.47635447184E+02 -0.79604171683E+02 -0.11862993469E+03  0.15059555565E+03  0.00000000000E+00 0. -1.
          1    1    5    5  503    0  0.23749397617E+03 -0.19286189655E+03  0.37994323151E+02  0.30828990974E+03  0.00000000000E+00 0. -1.
         -2    1    5    5    0  503  0.99194152062E+03 -0.60142893790E+03  0.15991891716E+03  0.11709990639E+04  0.00000000000E+00 0.  1.
         -3    1    6    6    0  502  0.10633563260E+02 -0.33366121180E+02 -0.19297098745E+03  0.19612285106E+03  0.00000000000E+00 0.  1.
<mgrwt>
<rscale>  0 0.34145885E+04</rscale>
<asrwt>0</asrwt>
<pdfrwt beam="1">  1        1 0.30434468E+00 0.34145885E+04</pdfrwt>
<pdfrwt beam="2">  1       -1 0.22668581E+00 0.34145885E+04</pdfrwt>
<totfact> 0.25158286E-01</totfact>
</mgrwt>
</event>
<event>
12    1  0.1536832E-007  0.1157091E+04  0.7818608E-02  0.9151266E-01
         -2   -1    0    0    0  501 -0.00000000000E+00  0.00000000000E+00  0.22207967000E+03  0.22207967000E+03  0.00000000000E+00 0.  1.
          2   -1    0    0  501    0  0.00000000000E+00 -0.00000000000E+00 -0.15071843557E+04  0.15071843557E+04  0.00000000000E+00 0. -1.
         23    2    1    2    0    0  0.15075728530E+03 -0.25676796870E+02 -0.20576309165E+02  0.17594708910E+03  0.84539556972E+02 0.  0.
        254    2    1    2    0    0 -0.15075728530E+03  0.25676796870E+02 -0.12645283765E+04  0.15533169366E+04  0.88903005208E+03 0.  0.
        -24    2    4    4    0    0  0.34403427022E+02  0.43504381832E+03 -0.67832874998E+03  0.81053176367E+03  0.79906991070E+02 0.  0.
         24    2    4    4    0    0 -0.18516071233E+03 -0.40936702145E+03 -0.58619962655E+03  0.74278517292E+03  0.78955451429E+02 0.  0.
         13    1    3    3    0    0 -0.70467185036E+01 -0.14306667388E+02 -0.60937780362E+01  0.17072524833E+02  0.00000000000E+00 0. -1.
        -13    1    3    3    0    0  0.15780400381E+03 -0.11370129482E+02 -0.14482531129E+02  0.15887456426E+03  0.00000000000E+00 0.  1.
          2    1    6    6  502    0 -0.86531860092E+02 -0.26415991709E+03 -0.39764633959E+03  0.48517093482E+03  0.00000000000E+00 0. -1.
          3    1    5    5  503    0 -0.14652647285E+02  0.28040627895E+03 -0.40875862116E+03  0.49590925755E+03  0.00000000000E+00 0. -1.
         -4    1    5    5    0  503  0.49056074307E+02  0.15463753937E+03 -0.26957012882E+03  0.31462250612E+03  0.00000000000E+00 0.  1.
         -1    1    6    6    0  502 -0.98628852233E+02 -0.14520710436E+03 -0.18855328696E+03  0.25761423810E+03  0.00000000000E+00 0.  1.
<mgrwt>
<rscale>  0 0.11570912E+04</rscale>
<asrwt>0</asrwt>
<pdfrwt beam="1">  1        2 0.23187451E+00 0.11570912E+04</pdfrwt>
<pdfrwt beam="2">  1       -2 0.34166103E-01 0.11570912E+04</pdfrwt>
<totfact> 0.99755480E+01</totfact>
</mgrwt>
</event>
<event>
12    1  0.1536832E-007  0.1247180E+04  0.7818608E-02  0.9072534E-01
         -2   -1    0    0    0  501 -0.00000000000E+00  0.00000000000E+00  0.15123768501E+03  0.15123768501E+03  0.00000000000E+00 0. -1.
          2   -1    0    0  501    0  0.00000000000E+00 -0.00000000000E+00 -0.25712144826E+04  0.25712144826E+04  0.00000000000E+00 0.  1.
         23    2    1    2    0    0 -0.89104634835E+02  0.20245090555E+03 -0.10517163705E+04  0.10798604263E+04  0.10519130752E+03 0.  0.
        254    2    1    2    0    0  0.89104634835E+02 -0.20245090555E+03 -0.13682604271E+04  0.16425917413E+04  0.88150157526E+03 0.  0.
        -24    2    4    4    0    0  0.30925961994E+03  0.78739959695E+02 -0.11884939630E+04  0.12330235322E+04  0.77379822963E+02 0.  0.
         24    2    4    4    0    0 -0.22015498511E+03 -0.28119086525E+03 -0.17976646409E+03  0.40956820915E+03  0.88846025054E+02 0.  0.
         11    1    3    3    0    0 -0.70061720328E+02  0.68203364293E+02 -0.28653513494E+03  0.30275852938E+03  0.00000000000E+00 0. -1.
        -11    1    3    3    0    0 -0.19042914507E+02  0.13424754126E+03 -0.76518123558E+03  0.77710189693E+03  0.00000000000E+00 0.  1.
          4    1    6    6  502    0 -0.32566024725E+02 -0.22288659901E+02  0.58194980464E+01  0.39889809276E+02  0.00000000000E+00 0. -1.
          1    1    5    5  503    0  0.19006105789E+03  0.22543773142E+02 -0.80787071419E+03  0.83023280969E+03  0.00000000000E+00 0. -1.
         -2    1    5    5    0  503  0.11919856206E+03  0.56196186553E+02 -0.38062324879E+03  0.40279072246E+03  0.00000000000E+00 0.  1.
         -3    1    6    6    0  502 -0.18758896038E+03 -0.25890220535E+03 -0.18558596213E+03  0.36967839987E+03  0.00000000000E+00 0.  1.
<mgrwt>
<rscale>  0 0.12471801E+04</rscale>
<asrwt>0</asrwt>
<pdfrwt beam="1">  1        2 0.39557145E+00 0.12471801E+04</pdfrwt>
<pdfrwt beam="2">  1       -2 0.23267337E-01 0.12471801E+04</pdfrwt>
<totfact> 0.51161255E+01</totfact>
</mgrwt>
</event>
<event>
12    1  0.1536832E-007  0.1349708E+04  0.7818608E-02  0.8991049E-01
          1   -1    0    0  501    0  0.00000000000E+00  0.00000000000E+00  0.15962287860E+04  0.15962287860E+04  0.00000000000E+00 0. -1.
         -1   -1    0    0    0  501 -0.00000000000E+00 -0.00000000000E+00 -0.28531510951E+03  0.28531510951E+03  0.00000000000E+00 0.  1.
         23    2    1    2    0    0  0.28675377714E+03 -0.19635981963E+03  0.22654913618E+03  0.42475202659E+03  0.91131034873E+02 0.  0.
        254    2    1    2    0    0 -0.28675377714E+03  0.19635981963E+03  0.10843645403E+04  0.14567918689E+04  0.90863149052E+03 0.  0.
        -24    2    4    4    0    0 -0.45063856526E+03 -0.13612118723E+03  0.93242221404E+03  0.10477659877E+04  0.82451716588E+02 0.  0.
         24    2    4    4    0    0  0.16388478812E+03  0.33248100686E+03  0.15194232622E+03  0.40902588121E+03  0.82546091951E+02 0.  0.
         11    1    3    3    0    0  0.24161884069E+03 -0.19807472848E+03  0.21089717280E+03  0.37694943923E+03  0.00000000000E+00 0.  1.
        -11    1    3    3    0    0  0.45134936452E+02  0.17149088489E+01  0.15651963384E+02  0.47802587364E+02  0.00000000000E+00 0. -1.
          4    1    6    6  502    0  0.48622404008E+02  0.17925007649E+03  0.52364560295E+02  0.19296832711E+03  0.00000000000E+00 0. -1.
          1    1    5    5  503    0 -0.27841137183E+03 -0.11529008856E+03  0.64747499462E+03  0.71416284218E+03  0.00000000000E+00 0. -1.
         -2    1    5    5    0  503 -0.17222719343E+03 -0.20831098670E+02  0.28494721942E+03  0.33360314549E+03  0.00000000000E+00 0.  1.
         -3    1    6    6    0  502  0.11526238411E+03  0.15323093037E+03  0.99577765929E+02  0.21605755410E+03  0.00000000000E+00 0.  1.
<mgrwt>
<rscale>  0 0.13497084E+04</rscale>
<asrwt>0</asrwt>
<pdfrwt beam="1">  1        1 0.24557365E+00 0.13497084E+04</pdfrwt>
<pdfrwt beam="2">  1       -1 0.43894633E-01 0.13497084E+04</pdfrwt>
<totfact> 0.28188632E+01</totfact>
</mgrwt>
</event>
<event>
12    1  0.1536832E-007  0.2122085E+04  0.7818608E-02  0.8551577E-01
          2   -1    0    0  501    0  0.00000000000E+00  0.00000000000E+00  0.14502547377E+04  0.14502547377E+04  0.00000000000E+00 0. -1.
         -2   -1    0    0    0  501 -0.00000000000E+00 -0.00000000000E+00 -0.77628514439E+03  0.77628514439E+03  0.00000000000E+00 0.  1.
         23    2    1    2    0    0  0.76931323005E+03 -0.29401335810E+03  0.94034156090E+01  0.82864873149E+03  0.91014258765E+02 0.  0.
        254    2    1    2    0    0 -0.76931323005E+03  0.29401335810E+03  0.66456617771E+03  0.13978911506E+04  0.91332620883E+03 0.  0.
        -24    2    4    4    0    0 -0.50222035006E+03  0.61716791451E+03  0.48132758595E+03  0.93340226359E+03  0.80262232449E+02 0.  0.
         24    2    4    4    0    0 -0.26709287999E+03 -0.32315455641E+03  0.18323859176E+03  0.46448888702E+03  0.80037933412E+02 0.  0.
         11    1    3    3    0    0  0.55355249361E+03 -0.17420691411E+03 -0.16112986398E+02  0.58054116170E+03  0.00000000000E+00 0.  1.
        -11    1    3    3    0    0  0.21576073644E+03 -0.11980644399E+03  0.25516402007E+02  0.24810756978E+03  0.00000000000E+00 0. -1.
          4    1    6    6  502    0 -0.19702811188E+03 -0.23219643958E+03  0.92854287662E+02  0.31836642751E+03  0.00000000000E+00 0. -1.
          1    1    5    5  503    0 -0.37242513656E+03  0.50862181684E+03  0.38635368131E+03  0.73936851568E+03  0.00000000000E+00 0. -1.
         -2    1    5    5    0  503 -0.12979521350E+03  0.10854609767E+03  0.94973904640E+02  0.19403374791E+03  0.00000000000E+00 0.  1.
         -3    1    6    6    0  502 -0.70064768104E+02 -0.90958116831E+02  0.90384304095E+02  0.14612245951E+03  0.00000000000E+00 0.  1.
<mgrwt>
<rscale>  0 0.21220850E+04</rscale>
<asrwt>0</asrwt>
<pdfrwt beam="1">  1        2 0.22311611E+00 0.21220850E+04</pdfrwt>
<pdfrwt beam="2">  1       -2 0.11942848E+00 0.21220850E+04</pdfrwt>
<totfact> 0.66966958E+00</totfact>
</mgrwt>
</event>
<event>
12    1  0.1536832E-007  0.1178895E+04  0.7818608E-02  0.9131533E-01
          1   -1    0    0  501    0  0.00000000000E+00  0.00000000000E+00  0.31353551533E+04  0.31353551533E+04  0.00000000000E+00 0. -1.
         -1   -1    0    0    0  501 -0.00000000000E+00 -0.00000000000E+00 -0.11081634357E+03  0.11081634357E+03  0.00000000000E+00 0.  1.
         23    2    1    2    0    0  0.19055486175E+02  0.13238049766E+03  0.12948735356E+03  0.20776150730E+03  0.92250536414E+02 0.  0.
        254    2    1    2    0    0 -0.19055486175E+02 -0.13238049766E+03  0.28950514562E+04  0.30384099896E+04  0.91253746394E+03 0.  0.
        -24    2    4    4    0    0  0.21200644048E+03 -0.26687242345E+03  0.41766184050E+03  0.54506220035E+03  0.80521848216E+02 0.  0.
         24    2    4    4    0    0 -0.23106192666E+03  0.13449192578E+03  0.24773896157E+04  0.24933477892E+04  0.88578767709E+02 0.  0.
         13    1    3    3    0    0 -0.11418613056E+02  0.12539902306E+03  0.79858443618E+02  0.14910623973E+03  0.00000000000E+00 0.  1.
        -13    1    3    3    0    0  0.30474099231E+02  0.69814745991E+01  0.49628909946E+02  0.58655267572E+02  0.00000000000E+00 0. -1.
          2    1    6    6  502    0 -0.75102701937E+02 -0.54122689958E+00  0.70834263877E+03  0.71231313526E+03  0.00000000000E+00 0. -1.
          3    1    5    5  503    0  0.10106331576E+03 -0.13347984418E+03  0.14294720921E+03  0.22014669476E+03  0.00000000000E+00 0. -1.
         -4    1    5    5    0  503  0.11094312473E+03 -0.13339257927E+03  0.27471463129E+03  0.32491550559E+03  0.00000000000E+00 0.  1.
         -1    1    6    6    0  502 -0.15595922472E+03  0.13503315268E+03  0.17690469769E+04  0.17810346540E+04  0.00000000000E+00 0.  1.
<mgrwt>
<rscale>  0 0.11788954E+04</rscale>
<asrwt>0</asrwt>
<pdfrwt beam="1">  1        1 0.48236226E+00 0.11788954E+04</pdfrwt>
<pdfrwt beam="2">  1       -1 0.17048671E-01 0.11788954E+04</pdfrwt>
<totfact> 0.12767040E+01</totfact>
</mgrwt>
</event>
<event>
12    1  0.1774660E-007  0.1624355E+04  0.7818608E-02  0.8805724E-01
         -1   -1    0    0    0  501 -0.00000000000E+00  0.00000000000E+00  0.33867784880E+03  0.33867784880E+03  0.00000000000E+00 0.  1.
          1   -1    0    0  501    0  0.00000000000E+00 -0.00000000000E+00 -0.19476699414E+04  0.19476699414E+04  0.00000000000E+00 0. -1.
         23    2    1    2    0    0  0.24031452273E+03  0.26914506681E+03  0.41135681865E+02  0.37500251642E+03  0.93512599021E+02 0.  0.
        254    2    1    2    0    0 -0.24031452273E+03 -0.26914506681E+03 -0.16501277745E+04  0.19113452738E+04  0.89449927153E+03 0.  0.
        -24    2    4    4    0    0  0.47661709729E+02  0.26867280909E+03 -0.23917156201E+03  0.37167863479E+03  0.80531078254E+02 0.  0.
         24    2    4    4    0    0 -0.28797623246E+03 -0.53781787590E+03 -0.14109562125E+04  0.15396666390E+04  0.87163912789E+02 0.  0.
         11    1    3    3    0    0 -0.19508655877E+01  0.65776295553E+01  0.15350492601E+02  0.16813943921E+02  0.00000000000E+00 0. -1.
        -11    1    3    3    0    0  0.24226538832E+03  0.26256743726E+03  0.25785189265E+02  0.35818857250E+03  0.00000000000E+00 0.  1.
          4    1    6    6  502    0 -0.42673560364E+02 -0.14979127549E+03 -0.40495407984E+03  0.43387355963E+03  0.00000000000E+00 0. -1.
          1    1    5    5  503    0 -0.70680702793E+01  0.79131508625E+02 -0.11067354528E+03  0.13623651089E+03  0.00000000000E+00 0. -1.
         -2    1    5    5    0  503  0.54729780008E+02  0.18954130046E+03 -0.12849801673E+03  0.23544212390E+03  0.00000000000E+00 0.  1.
         -3    1    6    6    0  502 -0.24530267209E+03 -0.38802660041E+03 -0.10060021327E+04  0.11057930794E+04  0.00000000000E+00 0.  1.
<mgrwt>
<rscale>  0 0.16243555E+04</rscale>
<asrwt>0</asrwt>
<pdfrwt beam="1">  1        1 0.29964153E+00 0.16243555E+04</pdfrwt>
<pdfrwt beam="2">  1       -1 0.52104285E-01 0.16243555E+04</pdfrwt>
<totfact> 0.11490565E+01</totfact>
</mgrwt>
</event>
<event>
12    1  0.1536832E-007  0.3366647E+04  0.7818608E-02  0.8146141E-01
          2   -1    0    0  501    0  0.00000000000E+00  0.00000000000E+00  0.28365941493E+04  0.28365941493E+04  0.00000000000E+00 0. -1.
         -2   -1    0    0    0  501 -0.00000000000E+00 -0.00000000000E+00 -0.99893692303E+03  0.99893692303E+03  0.00000000000E+00 0.  1.
         23    2    1    2    0    0 -0.51072032200E+03  0.13056979146E+04  0.16390810308E+04  0.21588614680E+04  0.91727426406E+02 0.  0.
        254    2    1    2    0    0  0.51072032200E+03 -0.13056979146E+04  0.19857619546E+03  0.16766696044E+04  0.89783415245E+03 0.  0.
        -24    2    4    4    0    0  0.46633117721E+02  0.10502078420E+03  0.12129400716E+03  0.18699806235E+03  0.83976344088E+02 0.  0.
         24    2    4    4    0    0  0.46408720428E+03 -0.14107186988E+04  0.77282188295E+02  0.14896715420E+04  0.87433323841E+02 0.  0.
         13    1    3    3    0    0 -0.80775896211E+02  0.31142851370E+03  0.38262270624E+03  0.49991259224E+03  0.00000000000E+00 0. -1.
        -13    1    3    3    0    0 -0.42994442579E+03  0.99426940091E+03  0.12564583246E+04  0.16589488757E+04  0.00000000000E+00 0.  1.
          4    1    6    6  502    0  0.39938799681E+03 -0.12685546654E+04  0.89853284762E+02  0.13329723643E+04  0.00000000000E+00 0. -1.
          1    1    5    5  503    0  0.50598314925E-02  0.51067870453E+02  0.59806808018E+01  0.51416884007E+02  0.00000000000E+00 0. -1.
         -2    1    5    5    0  503  0.46628057890E+02  0.53952913752E+02  0.11531332636E+03  0.13558117834E+03  0.00000000000E+00 0.  1.
         -3    1    6    6    0  502  0.64699207465E+02 -0.14216403341E+03 -0.12571096468E+02  0.15669917775E+03  0.00000000000E+00 0.  1.
<mgrwt>
<rscale>  0 0.33666474E+04</rscale>
<asrwt>0</asrwt>
<pdfrwt beam="1">  1        2 0.43639910E+00 0.33666474E+04</pdfrwt>
<pdfrwt beam="2">  1       -2 0.15368260E+00 0.33666474E+04</pdfrwt>
<totfact> 0.51234741E-01</totfact>
</mgrwt>
</event>
<event>
12    1  0.1536832E-007  0.2109992E+04  0.7818608E-02  0.8556854E-01
          2   -1    0    0  501    0  0.00000000000E+00  0.00000000000E+00  0.19287621648E+04  0.19287621648E+04  0.00000000000E+00 0.  1.
         -2   -1    0    0    0  501 -0.00000000000E+00 -0.00000000000E+00 -0.57706272429E+03  0.57706272429E+03  0.00000000000E+00 0. -1.
         23    2    1    2    0    0  0.42893090160E+02 -0.41562048428E+02 -0.46642552525E+03  0.47762913919E+03  0.83723371575E+02 0.  0.
        254    2    1    2    0    0 -0.42893090160E+02  0.41562048428E+02  0.18181249658E+04  0.20281957499E+04  0.89690154853E+03 0.  0.
        -24    2    4    4    0    0  0.25006236617E+03  0.14692488381E+03  0.16308230041E+03  0.34215260696E+03  0.79714874910E+02 0.  0.
         24    2    4    4    0    0 -0.29295545633E+03 -0.10536283538E+03  0.16550426654E+04  0.16860431430E+04  0.81553842720E+02 0.  0.
         11    1    3    3    0    0  0.42578728681E+02 -0.23409648978E+02 -0.45155371790E+03  0.45416045617E+03  0.00000000000E+00 0. -1.
        -11    1    3    3    0    0  0.31436147888E+00 -0.18152399450E+02 -0.14871807356E+02  0.23468683026E+02  0.00000000000E+00 0.  1.
          2    1    6    6  502    0 -0.13105717910E+03 -0.70743441356E+02  0.60695085054E+03  0.62495596138E+03  0.00000000000E+00 0. -1.
          1    1    5    5  503    0  0.16172875784E+03  0.13669072679E+03  0.11067806446E+03  0.23893551402E+03  0.00000000000E+00 0. -1.
         -2    1    5    5    0  503  0.88333608330E+02  0.10234157021E+02  0.52404235945E+02  0.10321709294E+03  0.00000000000E+00 0.  1.
         -1    1    6    6    0  502 -0.16189827723E+03 -0.34619394028E+02  0.10480918148E+04  0.10610871816E+04  0.00000000000E+00 0.  1.
<mgrwt>
<rscale>  0 0.21099922E+04</rscale>
<asrwt>0</asrwt>
<pdfrwt beam="1">  1        2 0.29673264E+00 0.21099922E+04</pdfrwt>
<pdfrwt beam="2">  1       -2 0.88778882E-01 0.21099922E+04</pdfrwt>
<totfact> 0.73498142E+00</totfact>
</mgrwt>
</event>
<event>
12    1  0.1536832E-007  0.1407390E+04  0.7818608E-02  0.8948487E-01
          2   -1    0    0  501    0  0.00000000000E+00  0.00000000000E+00  0.97759604049E+03  0.97759604049E+03  0.00000000000E+00 0. -1.
         -2   -1    0    0    0  501 -0.00000000000E+00 -0.00000000000E+00 -0.50653471145E+03  0.50653471145E+03  0.00000000000E+00 0.  1.
         23    2    1    2    0    0  0.90285874369E+02 -0.37533278949E+02  0.56136767941E+03  0.57704054488E+03  0.91004575753E+02 0.  0.
        254    2    1    2    0    0 -0.90285874369E+02  0.37533278949E+02 -0.90306350370E+02  0.90709020706E+03  0.89727204386E+03 0.  0.
        -24    2    4    4    0    0 -0.23922135653E+03  0.58479188400E+02  0.34912758570E+03  0.43431916016E+03  0.78079375529E+02 0.  0.
         24    2    4    4    0    0  0.14893548217E+03 -0.20945909452E+02 -0.43943393607E+03  0.47277104690E+03  0.88259671678E+02 0.  0.
         11    1    3    3    0    0  0.55081798713E+02 -0.19359732925E+02  0.50371541961E+03  0.50708779098E+03  0.00000000000E+00 0. -1.
        -11    1    3    3    0    0  0.35204075656E+02 -0.18173546024E+02  0.57652259800E+02  0.69952753898E+02  0.00000000000E+00 0.  1.
          4    1    6    6  502    0  0.20295073899E+01  0.21392692786E+02 -0.55948528867E+02  0.59933330353E+02  0.00000000000E+00 0. -1.
          1    1    5    5  503    0 -0.35108208234E+02  0.25264172045E+01  0.10745850028E+03  0.11307651548E+03  0.00000000000E+00 0. -1.
         -2    1    5    5    0  503 -0.20411314830E+03  0.55952771196E+02  0.24166908542E+03  0.32124264468E+03  0.00000000000E+00 0.  1.
         -3    1    6    6    0  502  0.14690597478E+03 -0.42338602238E+02 -0.38348540721E+03  0.41283771655E+03  0.00000000000E+00 0.  1.
<mgrwt>
<rscale>  0 0.14073895E+04</rscale>
<asrwt>0</asrwt>
<pdfrwt beam="1">  1        2 0.15039939E+00 0.14073895E+04</pdfrwt>
<pdfrwt beam="2">  1       -2 0.77928417E-01 0.14073895E+04</pdfrwt>
<totfact> 0.37154534E+01</totfact>
</mgrwt>
</event>
<event>
12    1  0.1536832E-007  0.2254320E+04  0.7818608E-02  0.8496153E-01
          1   -1    0    0  501    0  0.00000000000E+00  0.00000000000E+00  0.15295397510E+04  0.15295397510E+04  0.00000000000E+00 0. -1.
         -1   -1    0    0    0  501 -0.00000000000E+00 -0.00000000000E+00 -0.83063522599E+03  0.83063522599E+03  0.00000000000E+00 0.  1.
         23    2    1    2    0    0 -0.36076875396E+03  0.85583609359E+03  0.67274058893E+02  0.93584411891E+03  0.93106943762E+02 0.  0.
        254    2    1    2    0    0  0.36076875396E+03 -0.85583609359E+03  0.63163046614E+03  0.14243308581E+04  0.87587204241E+03 0.  0.
        -24    2    4    4    0    0  0.25432926447E+03 -0.74075082067E+03  0.19849738929E+02  0.78755683159E+03  0.80352957379E+02 0.  0.
         24    2    4    4    0    0  0.10643948949E+03 -0.11508527291E+03  0.61178072721E+03  0.63677402651E+03  0.81434131006E+02 0.  0.
         11    1    3    3    0    0 -0.94746539341E+02  0.31160047376E+03  0.52504842864E+02  0.32989167993E+03  0.00000000000E+00 0. -1.
        -11    1    3    3    0    0 -0.26602221462E+03  0.54423561983E+03  0.14769216029E+02  0.60595243898E+03  0.00000000000E+00 0.  1.
          2    1    6    6  502    0  0.88269201148E+02 -0.61443547350E+02  0.50032985151E+03  0.51175846031E+03  0.00000000000E+00 0. -1.
          1    1    5    5  503    0  0.19483019761E+03 -0.58712803377E+03  0.47825604461E+02  0.62045581824E+03  0.00000000000E+00 0. -1.
         -2    1    5    5    0  503  0.59499066855E+02 -0.15362278690E+03 -0.27975865532E+02  0.16710101335E+03  0.00000000000E+00 0.  1.
         -1    1    6    6    0  502  0.18170288345E+02 -0.53641725565E+02  0.11145087569E+03  0.12501556620E+03  0.00000000000E+00 0.  1.
<mgrwt>
<rscale>  0 0.22543199E+04</rscale>
<asrwt>0</asrwt>
<pdfrwt beam="1">  1        1 0.23531381E+00 0.22543199E+04</pdfrwt>
<pdfrwt beam="2">  1       -1 0.12779003E+00 0.22543199E+04</pdfrwt>
<totfact> 0.29988168E+00</totfact>
</mgrwt>
</event>
<event>
12    1  0.1536832E-007  0.3436541E+04  0.7818608E-02  0.8128996E-01
         -2   -1    0    0    0  501 -0.00000000000E+00  0.00000000000E+00  0.13422148919E+04  0.13422148919E+04  0.00000000000E+00 0.  1.
          2   -1    0    0  501    0  0.00000000000E+00 -0.00000000000E+00 -0.21996871470E+04  0.21996871470E+04  0.00000000000E+00 0. -1.
         23    2    1    2    0    0 -0.66952307761E+03  0.98618517519E+02  0.10943796538E+04  0.12903261259E+04  0.96373859798E+02 0.  0.
        254    2    1    2    0    0  0.66952307761E+03 -0.98618517519E+02 -0.19518519089E+04  0.22515759131E+04  0.89547833843E+03 0.  0.
        -24    2    4    4    0    0  0.57400078800E+01 -0.18715339967E+03 -0.19102689410E+02  0.20464880967E+03  0.80354712717E+02 0.  0.
         24    2    4    4    0    0  0.66378306973E+03  0.88534882153E+02 -0.19327492195E+04  0.20469271034E+04  0.77101440997E+02 0.  0.
         13    1    3    3    0    0 -0.62284407640E+03  0.79293892656E+02  0.96339079356E+03  0.11499322093E+04  0.00000000000E+00 0.  1.
        -13    1    3    3    0    0 -0.46679001219E+02  0.19324624863E+02  0.13098886029E+03  0.14039391653E+03  0.00000000000E+00 0. -1.
          2    1    6    6  502    0  0.57805303352E+03  0.75420379753E+02 -0.17521847829E+04  0.18466144851E+04  0.00000000000E+00 0. -1.
          1    1    5    5  503    0 -0.85974417399E+01 -0.14810813906E+03  0.17315173178E+02  0.14936449405E+03  0.00000000000E+00 0. -1.
         -2    1    5    5    0  503  0.14337449620E+02 -0.39045260615E+02 -0.36417862588E+02  0.55284315620E+02  0.00000000000E+00 0.  1.
         -1    1    6    6    0  502  0.85730036212E+02  0.13114502401E+02 -0.18056443657E+03  0.20031261826E+03  0.00000000000E+00 0.  1.
<mgrwt>
<rscale>  0 0.34365406E+04</rscale>
<asrwt>0</asrwt>
<pdfrwt beam="1">  1        2 0.33841340E+00 0.34365406E+04</pdfrwt>
<pdfrwt beam="2">  1       -2 0.20649460E+00 0.34365406E+04</pdfrwt>
<totfact> 0.51475338E-01</totfact>
</mgrwt>
</event>
<event>
12    1  0.1536832E-007  0.1592924E+04  0.7818608E-02  0.8824907E-01
          3   -1    0    0  501    0  0.00000000000E+00  0.00000000000E+00  0.30602522988E+04  0.30602522988E+04  0.00000000000E+00 0. -1.
         -3   -1    0    0    0  501 -0.00000000000E+00 -0.00000000000E+00 -0.20728751566E+03  0.20728751566E+03  0.00000000000E+00 0.  1.
         23    2    1    2    0    0 -0.23895633247E+03  0.37631572023E+03  0.18876628097E+04  0.19419027542E+04  0.94877676414E+02 0.  0.
        254    2    1    2    0    0  0.23895633247E+03 -0.37631572023E+03  0.96530197348E+03  0.13256370603E+04  0.79170200554E+03 0.  0.
        -24    2    4    4    0    0  0.14358880377E+03 -0.13038242409E+03 -0.94563793260E+02  0.23040189404E+03  0.80779952361E+02 0.  0.
         24    2    4    4    0    0  0.95367528704E+02 -0.24593329614E+03  0.10598657667E+04  0.10952351663E+04  0.81525911613E+02 0.  0.
         11    1    3    3    0    0 -0.22140025640E+03  0.37152048211E+03  0.17320369188E+04  0.17852163539E+04  0.00000000000E+00 0. -1.
        -11    1    3    3    0    0 -0.17556076068E+02  0.47952381188E+01  0.15562589090E+03  0.15668640029E+03  0.00000000000E+00 0.  1.
          2    1    6    6  502    0  0.10331411570E+03 -0.21746488493E+03  0.99859067278E+03  0.10272040277E+04  0.00000000000E+00 0. -1.
          1    1    5    5  503    0  0.14726880527E+03 -0.13656811844E+03 -0.84193447812E+02  0.21777853116E+03  0.00000000000E+00 0. -1.
         -2    1    5    5    0  503 -0.36800015045E+01  0.61856943513E+01 -0.10370345447E+02  0.12623362879E+02  0.00000000000E+00 0.  1.
         -1    1    6    6    0  502 -0.79465869961E+01 -0.28468411213E+02  0.61275093965E+02  0.68031138622E+02  0.00000000000E+00 0.  1.
<mgrwt>
<rscale>  0 0.15929245E+04</rscale>
<asrwt>0</asrwt>
<pdfrwt beam="1">  1        3 0.47080801E+00 0.15929245E+04</pdfrwt>
<pdfrwt beam="2">  1       -3 0.31890389E-01 0.15929245E+04</pdfrwt>
<totfact> 0.11730355E-01</totfact>
</mgrwt>
</event>
<event>
12    1  0.1536832E-007  0.1447946E+04  0.7818608E-02  0.8919826E-01
          1   -1    0    0  501    0  0.00000000000E+00  0.00000000000E+00  0.23102899891E+04  0.23102899891E+04  0.00000000000E+00 0. -1.
         -1   -1    0    0    0  501 -0.00000000000E+00 -0.00000000000E+00 -0.22687070707E+03  0.22687070707E+03  0.00000000000E+00 0.  1.
         23    2    1    2    0    0  0.12849011825E+03 -0.40671026536E+03  0.83883166645E+03  0.94517612461E+03  0.88297176953E+02 0.  0.
        254    2    1    2    0    0 -0.12849011825E+03  0.40671026536E+03  0.12445876156E+04  0.15919845716E+04  0.89637804123E+03 0.  0.
        -24    2    4    4    0    0  0.37856416449E+03  0.14152727988E+03  0.57820475061E+03  0.71014932201E+03  0.81550771524E+02 0.  0.
         24    2    4    4    0    0 -0.50705428274E+03  0.26518298548E+03  0.66638286500E+03  0.88183524958E+03  0.78365956844E+02 0.  0.
         11    1    3    3    0    0  0.50750811671E+02 -0.18124890334E+03  0.27779438962E+03  0.33555406830E+03  0.00000000000E+00 0.  1.
        -11    1    3    3    0    0  0.77739306578E+02 -0.22546136203E+03  0.56103727682E+03  0.60962205631E+03  0.00000000000E+00 0. -1.
          2    1    6    6  502    0 -0.17335369510E+03  0.49969804406E+02  0.21412458010E+03  0.27999610848E+03  0.00000000000E+00 0. -1.
          3    1    5    5  503    0  0.30371970435E+03  0.13898755142E+03  0.43389421949E+03  0.54756496598E+03  0.00000000000E+00 0. -1.
         -4    1    5    5    0  503  0.74844460140E+02  0.25397284647E+01  0.14431053112E+03  0.16258435603E+03  0.00000000000E+00 0.  1.
         -1    1    6    6    0  502 -0.33370058764E+03  0.21521318108E+03  0.45225828490E+03  0.60183914110E+03  0.00000000000E+00 0.  1.
<mgrwt>
<rscale>  0 0.14479463E+04</rscale>
<asrwt>0</asrwt>
<pdfrwt beam="1">  1        1 0.35542921E+00 0.14479463E+04</pdfrwt>
<pdfrwt beam="2">  1       -1 0.34903187E-01 0.14479463E+04</pdfrwt>
<totfact> 0.13899770E+01</totfact>
</mgrwt>
</event>
<event>
12    1  0.1536832E-007  0.2881122E+04  0.7818608E-02  0.8278516E-01
          2   -1    0    0  501    0  0.00000000000E+00  0.00000000000E+00  0.15694886613E+04  0.15694886613E+04  0.00000000000E+00 0. -1.
         -2   -1    0    0    0  501 -0.00000000000E+00 -0.00000000000E+00 -0.13222242509E+04  0.13222242509E+04  0.00000000000E+00 0.  1.
         23    2    1    2    0    0  0.39779730279E+03 -0.80020015819E+03  0.10564004962E+04  0.13866043066E+04  0.90147143615E+02 0.  0.
        254    2    1    2    0    0 -0.39779730279E+03  0.80020015819E+03 -0.80913608572E+03  0.15051086056E+04  0.90115909917E+03 0.  0.
        -24    2    4    4    0    0  0.81243607364E+01 -0.16625740669E+03 -0.12345303353E+02  0.18598098414E+03  0.82030417710E+02 0.  0.
         24    2    4    4    0    0 -0.40592166353E+03  0.96645756488E+03 -0.79679078237E+03  0.13191276214E+04  0.80059409653E+02 0.  0.
         13    1    3    3    0    0  0.24026802598E+03 -0.55498417637E+03  0.66934822645E+03  0.90208824877E+03  0.00000000000E+00 0. -1.
        -13    1    3    3    0    0  0.15752927681E+03 -0.24521598182E+03  0.38705226976E+03  0.48451605785E+03  0.00000000000E+00 0.  1.
          2    1    6    6  502    0 -0.13888078437E+03  0.29825542784E+03 -0.29465387547E+03  0.44166172444E+03  0.00000000000E+00 0. -1.
          3    1    5    5  503    0  0.51210673385E+00 -0.92598571961E+02  0.33975047485E+02  0.98636005769E+02  0.00000000000E+00 0. -1.
         -4    1    5    5    0  503  0.76122540025E+01 -0.73658834730E+02 -0.46320350838E+02  0.87344978370E+02  0.00000000000E+00 0.  1.
         -1    1    6    6    0  502 -0.26704087916E+03  0.66820213704E+03 -0.50213690690E+03  0.87746589698E+03  0.00000000000E+00 0.  1.
<mgrwt>
<rscale>  0 0.28811220E+04</rscale>
<asrwt>0</asrwt>
<pdfrwt beam="1">  1        2 0.24145979E+00 0.28811220E+04</pdfrwt>
<pdfrwt beam="2">  1       -2 0.20341911E+00 0.28811220E+04</pdfrwt>
<totfact> 0.12667262E+00</totfact>
</mgrwt>
</event>
<event>
12    1  0.1536832E-007  0.1711411E+04  0.7818608E-02  0.8754883E-01
         -2   -1    0    0    0  501 -0.00000000000E+00  0.00000000000E+00  0.65878253883E+03  0.65878253883E+03  0.00000000000E+00 0.  1.
          2   -1    0    0  501    0  0.00000000000E+00 -0.00000000000E+00 -0.11114922569E+04  0.11114922569E+04  0.00000000000E+00 0. -1.
         23    2    1    2    0    0 -0.54540973779E+03  0.18102873592E+03  0.70774341299E+02  0.58604388147E+03  0.90527555587E+02 0.  0.
        254    2    1    2    0    0  0.54540973779E+03 -0.18102873592E+03 -0.52348405940E+03  0.11842309143E+04  0.89337792262E+03 0.  0.
        -24    2    4    4    0    0  0.23510287412E+03  0.31521303309E+03 -0.93200796460E+01  0.40106137804E+03  0.78299089544E+02 0.  0.
         24    2    4    4    0    0  0.31030686367E+03 -0.49624176902E+03 -0.51416397976E+03  0.78316953625E+03  0.80272544989E+02 0.  0.
         13    1    3    3    0    0 -0.36261785559E+03  0.10504399344E+03  0.87010401148E+02  0.38742323067E+03  0.00000000000E+00 0.  1.
        -13    1    3    3    0    0 -0.18279188220E+03  0.75984742483E+02 -0.16236059850E+02  0.19862065081E+03  0.00000000000E+00 0. -1.
          4    1    6    6  502    0  0.17887917807E+02 -0.57384463610E+02 -0.29627498026E+02  0.67013005503E+02  0.00000000000E+00 0. -1.
          3    1    5    5  503    0  0.10767714802E+02  0.28810196326E+02  0.19008945297E+02  0.36156757262E+02  0.00000000000E+00 0. -1.
         -4    1    5    5    0  503  0.22433515931E+03  0.28640283677E+03 -0.28329024943E+02  0.36490462078E+03  0.00000000000E+00 0.  1.
         -3    1    6    6    0  502  0.29241894587E+03 -0.43885730541E+03 -0.48453648173E+03  0.71615653075E+03  0.00000000000E+00 0.  1.
<mgrwt>
<rscale>  0 0.17114108E+04</rscale>
<asrwt>0</asrwt>
<pdfrwt beam="1">  1        2 0.17099881E+00 0.17114108E+04</pdfrwt>
<pdfrwt beam="2">  1       -2 0.10135116E+00 0.17114108E+04</pdfrwt>
<totfact> 0.16305137E+01</totfact>
</mgrwt>
</event>
<event>
12    1  0.1536832E-007  0.1692866E+04  0.7818608E-02  0.8765443E-01
          2   -1    0    0  501    0  0.00000000000E+00  0.00000000000E+00  0.66662127329E+03  0.66662127329E+03  0.00000000000E+00 0. -1.
         -2   -1    0    0    0  501 -0.00000000000E+00 -0.00000000000E+00 -0.10747468539E+04  0.10747468539E+04  0.00000000000E+00 0.  1.
         23    2    1    2    0    0 -0.58362914297E+03  0.12691274833E+03 -0.16881874357E+03  0.62732518203E+03  0.91144355907E+02 0.  0.
        254    2    1    2    0    0  0.58362914297E+03 -0.12691274833E+03 -0.23930683704E+03  0.11140429452E+04  0.90944713930E+03 0.  0.
        -24    2    4    4    0    0 -0.12471867425E+03 -0.23537784686E+03 -0.27602658335E+03  0.39207275110E+03  0.81073355336E+02 0.  0.
         24    2    4    4    0    0  0.70834781722E+03  0.10846509852E+03  0.36719746306E+02  0.72197019405E+03  0.79820508501E+02 0.  0.
         11    1    3    3    0    0 -0.53509787510E+03  0.12038814828E+03 -0.12712840883E+03  0.56301392036E+03  0.00000000000E+00 0. -1.
        -11    1    3    3    0    0 -0.48531267869E+02  0.65246000491E+01 -0.41690334745E+02  0.64311261672E+02  0.00000000000E+00 0.  1.
          2    1    6    6  502    0  0.52946370853E+03  0.71262617646E+02 -0.62469596772E+01  0.53427446489E+03  0.00000000000E+00 0. -1.
          3    1    5    5  503    0 -0.13491945783E+03 -0.22509231273E+03 -0.25090957028E+03  0.36307770767E+03  0.00000000000E+00 0. -1.
         -4    1    5    5    0  503  0.10200783583E+02 -0.10285534128E+02 -0.25117013070E+02  0.28995043431E+02  0.00000000000E+00 0.  1.
         -1    1    6    6    0  502  0.17888410869E+03  0.37202480878E+02  0.42966705983E+02  0.18769572917E+03  0.00000000000E+00 0.  1.
<mgrwt>
<rscale>  0 0.16928663E+04</rscale>
<asrwt>0</asrwt>
<pdfrwt beam="1">  1        2 0.10255712E+00 0.16928663E+04</pdfrwt>
<pdfrwt beam="2">  1       -2 0.16534567E+00 0.16928663E+04</pdfrwt>
<totfact> 0.95419378E+00</totfact>
</mgrwt>
</event>
<event>
12    1  0.1536832E-007  0.1463418E+04  0.7818608E-02  0.8909150E-01
         -2   -1    0    0    0  501 -0.00000000000E+00  0.00000000000E+00  0.18252472839E+03  0.18252472839E+03  0.00000000000E+00 0.  1.
          2   -1    0    0  501    0  0.00000000000E+00 -0.00000000000E+00 -0.29332918057E+04  0.29332918057E+04  0.00000000000E+00 0. -1.
         23    2    1    2    0    0  0.43665730702E+03 -0.91680145966E+02 -0.97040684339E+03  0.10719827424E+04  0.91557115859E+02 0.  0.
        254    2    1    2    0    0 -0.43665730702E+03  0.91680145966E+02 -0.17803602339E+04  0.20438337916E+04  0.89916580920E+03 0.  0.
        -24    2    4    4    0    0 -0.44699455349E+02  0.27391779230E+03 -0.14882758468E+04  0.15160393377E+04  0.79882907964E+02 0.  0.
         24    2    4    4    0    0 -0.39195785167E+03 -0.18223764633E+03 -0.29208438710E+03  0.52779445395E+03  0.80076083898E+02 0.  0.
         13    1    3    3    0    0  0.15294766216E+03 -0.65096735309E+02 -0.28899787479E+03  0.33339217739E+03  0.00000000000E+00 0.  1.
        -13    1    3    3    0    0  0.28370964486E+03 -0.26583410657E+02 -0.68140896859E+03  0.73859056505E+03  0.00000000000E+00 0. -1.
          2    1    6    6  502    0 -0.32865161927E+03 -0.14559149155E+03 -0.20404248886E+03  0.41333050519E+03  0.00000000000E+00 0. -1.
          1    1    5    5  503    0 -0.29334964664E+02  0.17330777810E+03 -0.11299550261E+04  0.11435447027E+04  0.00000000000E+00 0. -1.
         -2    1    5    5    0  503 -0.15364490685E+02  0.10061001420E+03 -0.35832082069E+03  0.37249463496E+03  0.00000000000E+00 0.  1.
         -1    1    6    6    0  502 -0.63306232398E+02 -0.36646154781E+02 -0.88041898244E+02  0.11446394877E+03  0.00000000000E+00 0.  1.
<mgrwt>
<rscale>  0 0.14634183E+04</rscale>
<asrwt>0</asrwt>
<pdfrwt beam="1">  1        2 0.45127566E+00 0.14634183E+04</pdfrwt>
<pdfrwt beam="2">  1       -2 0.28080728E-01 0.14634183E+04</pdfrwt>
<totfact> 0.21680330E+01</totfact>
</mgrwt>
</event>
<event>
12    1  0.1536832E-007  0.1813248E+04  0.7818608E-02  0.8699286E-01
          1   -1    0    0  501    0  0.00000000000E+00  0.00000000000E+00  0.33286201645E+03  0.33286201645E+03  0.00000000000E+00 0. -1.
         -1   -1    0    0    0  501 -0.00000000000E+00 -0.00000000000E+00 -0.24693927273E+04  0.24693927273E+04  0.00000000000E+00 0.  1.
         23    2    1    2    0    0 -0.57893975998E+02  0.56328271355E+03 -0.21835676046E+03  0.61348983376E+03  0.89727216817E+02 0.  0.
        254    2    1    2    0    0  0.57893975998E+02 -0.56328271355E+03 -0.19181739504E+04  0.21887649100E+04  0.88919143016E+03 0.  0.
        -24    2    4    4    0    0  0.38614981853E+03 -0.20561196276E+02 -0.94802715048E+03  0.10268874311E+04  0.78790056296E+02 0.  0.
         24    2    4    4    0    0 -0.32825584254E+03 -0.54272151728E+03 -0.97014679987E+03  0.11618774789E+04  0.80473095606E+02 0.  0.
         13    1    3    3    0    0 -0.68761927885E+02  0.41155975008E+03 -0.19115074725E+03  0.45896431101E+03  0.00000000000E+00 0.  1.
        -13    1    3    3    0    0  0.10867951887E+02  0.15172296347E+03 -0.27206013216E+02  0.15452552274E+03  0.00000000000E+00 0. -1.
          2    1    6    6  502    0 -0.17796697129E+03 -0.36238898539E+03 -0.58377194408E+03  0.70978003796E+03  0.00000000000E+00 0. -1.
          3    1    5    5  503    0  0.17685066958E+03  0.29708104692E+02 -0.42180050060E+03  0.45833873186E+03  0.00000000000E+00 0. -1.
         -4    1    5    5    0  503  0.20929914896E+03 -0.50269300968E+02 -0.52622664988E+03  0.56854869925E+03  0.00000000000E+00 0.  1.
         -1    1    6    6    0  502 -0.15028887125E+03 -0.18033253189E+03 -0.38637485579E+03  0.45209744090E+03  0.00000000000E+00 0.  1.
<mgrwt>
<rscale>  0 0.18132480E+04</rscale>
<asrwt>0</asrwt>
<pdfrwt beam="1">  1        1 0.51209539E-01 0.18132480E+04</pdfrwt>
<pdfrwt beam="2">  1       -1 0.37990658E+00 0.18132480E+04</pdfrwt>
<totfact> 0.70868260E-01</totfact>
</mgrwt>
</event>
<event>
12    1  0.1536832E-007  0.1869398E+04  0.7818608E-02  0.8670241E-01
          2   -1    0    0  501    0  0.00000000000E+00  0.00000000000E+00  0.37522164048E+04  0.37522164048E+04  0.00000000000E+00 0. -1.
         -2   -1    0    0    0  501 -0.00000000000E+00 -0.00000000000E+00 -0.23283894943E+03  0.23283894943E+03  0.00000000000E+00 0.  1.
         23    2    1    2    0    0 -0.69622497970E+03  0.14859017691E+03  0.12383107097E+04  0.14312668350E+04  0.91121217543E+02 0.  0.
        254    2    1    2    0    0  0.69622497970E+03 -0.14859017691E+03  0.22810667457E+04  0.25537885192E+04  0.90097837904E+03 0.  0.
        -24    2    4    4    0    0  0.77573083013E+03 -0.81068951802E+02  0.10231936269E+04  0.12890574126E+04  0.80083200594E+02 0.  0.
         24    2    4    4    0    0 -0.79505850426E+02 -0.67521225104E+02  0.12578731187E+04  0.12647311066E+04  0.80122986988E+02 0.  0.
         13    1    3    3    0    0 -0.63452318670E+03  0.16118226584E+03  0.11241509274E+04  0.13008899664E+04  0.00000000000E+00 0. -1.
        -13    1    3    3    0    0 -0.61701792999E+02 -0.12592088932E+02  0.11415978232E+03  0.13037686858E+03  0.00000000000E+00 0.  1.
          4    1    6    6  502    0  0.13328669891E+02 -0.15942222938E+02  0.10924094959E+03  0.11119978858E+03  0.00000000000E+00 0. -1.
          3    1    5    5  503    0  0.65327428652E+02  0.14366657995E+02  0.99004427942E+02  0.11948200931E+03  0.00000000000E+00 0. -1.
         -4    1    5    5    0  503  0.71040340148E+03 -0.95435609797E+02  0.92418919899E+03  0.11695754033E+04  0.00000000000E+00 0.  1.
         -3    1    6    6    0  502 -0.92834520317E+02 -0.51579002167E+02  0.11486321691E+04  0.11535313180E+04  0.00000000000E+00 0.  1.
<mgrwt>
<rscale>  0 0.18693979E+04</rscale>
<asrwt>0</asrwt>
<pdfrwt beam="1">  1        2 0.57726402E+00 0.18693979E+04</pdfrwt>
<pdfrwt beam="2">  1       -2 0.35821380E-01 0.18693979E+04</pdfrwt>
<totfact> 0.37080690E+00</totfact>
</mgrwt>
</event>
<event>
12    1  0.1536832E-007  0.1643484E+04  0.7818608E-02  0.8794271E-01
         -1   -1    0    0    0  501 -0.00000000000E+00  0.00000000000E+00  0.35110776872E+03  0.35110776872E+03  0.00000000000E+00 0.  1.
          1   -1    0    0  501    0  0.00000000000E+00 -0.00000000000E+00 -0.19232271094E+04  0.19232271094E+04  0.00000000000E+00 0. -1.
         23    2    1    2    0    0  0.90534746852E+02  0.46548796986E+03 -0.98437965820E+03  0.10964259500E+04  0.90944829052E+02 0.  0.
        254    2    1    2    0    0 -0.90534746852E+02 -0.46548796986E+03 -0.58773968249E+03  0.11779089281E+04  0.90396676823E+03 0.  0.
        -24    2    4    4    0    0  0.34152852457E+03  0.24210419441E+02 -0.28668965734E+03  0.45400331125E+03  0.81854563064E+02 0.  0.
         24    2    4    4    0    0 -0.43206327142E+03 -0.48969838930E+03 -0.30105002514E+03  0.72390561686E+03  0.83216834125E+02 0.  0.
         11    1    3    3    0    0 -0.13914464477E+02  0.96133362244E+02 -0.16220878984E+03  0.18906857792E+03  0.00000000000E+00 0.  1.
        -11    1    3    3    0    0  0.10444921133E+03  0.36935460762E+03 -0.82217086836E+03  0.90735737210E+03  0.00000000000E+00 0. -1.
          2    1    6    6  502    0 -0.21322934854E+03 -0.22544499517E+03 -0.18722788145E+03  0.36241754996E+03  0.00000000000E+00 0. -1.
          1    1    5    5  503    0  0.17878127646E+02  0.20216425208E+02 -0.12232312821E+02  0.29630402853E+02  0.00000000000E+00 0. -1.
         -2    1    5    5    0  503  0.32365039692E+03  0.39939942332E+01 -0.27445734452E+03  0.42437290840E+03  0.00000000000E+00 0.  1.
         -1    1    6    6    0  502 -0.21883392288E+03 -0.26425339414E+03 -0.11382214369E+03  0.36148806690E+03  0.00000000000E+00 0.  1.
<mgrwt>
<rscale>  0 0.16434841E+04</rscale>
<asrwt>0</asrwt>
<pdfrwt beam="1">  1        1 0.29588109E+00 0.16434841E+04</pdfrwt>
<pdfrwt beam="2">  1       -1 0.54016580E-01 0.16434841E+04</pdfrwt>
<totfact> 0.11117753E+01</totfact>
</mgrwt>
</event>
<event>
12    1  0.1740267E-007  0.1966395E+04  0.7818608E-02  0.8622495E-01
         -1   -1    0    0    0  501 -0.00000000000E+00  0.00000000000E+00  0.57653933445E+03  0.57653933445E+03  0.00000000000E+00 0.  1.
          1   -1    0    0  501    0  0.00000000000E+00 -0.00000000000E+00 -0.16766889926E+04  0.16766889926E+04  0.00000000000E+00 0. -1.
         23    2    1    2    0    0  0.59081407951E+02 -0.10204939436E+03 -0.12961642165E+04  0.13047556590E+04  0.91874708442E+02 0.  0.
        254    2    1    2    0    0 -0.59081407951E+02  0.10204939436E+03  0.19601455833E+03  0.94847266800E+03  0.92047487919E+03 0.  0.
        -24    2    4    4    0    0 -0.47711594058E+03  0.92047193963E+01  0.16630898746E+03  0.51183538709E+03  0.81193820882E+02 0.  0.
         24    2    4    4    0    0  0.41803453263E+03  0.92844674968E+02  0.29705570876E+02  0.43663728092E+03  0.79979309852E+02 0.  0.
         13    1    3    3    0    0  0.43479841602E+02 -0.96344233165E+02 -0.12652784825E+04  0.12696859242E+04  0.00000000000E+00 0. -1.
        -13    1    3    3    0    0  0.15601566349E+02 -0.57051611987E+01 -0.30885734017E+02  0.35069734853E+02  0.00000000000E+00 0.  1.
          4    1    6    6  502    0  0.35916244873E+03  0.88930848569E+02 -0.12437895548E+01  0.37001068554E+03  0.00000000000E+00 0. -1.
          3    1    5    5  503    0 -0.43492048142E+03  0.31447418388E+02  0.14437810548E+03  0.45933626312E+03  0.00000000000E+00 0. -1.
         -4    1    5    5    0  503 -0.42195459165E+02 -0.22242698991E+02  0.21930881978E+02  0.52499123963E+02  0.00000000000E+00 0.  1.
         -3    1    6    6    0  502  0.58872083901E+02  0.39138263986E+01  0.30949360431E+02  0.66626595373E+02  0.00000000000E+00 0.  1.
<mgrwt>
<rscale>  0 0.19663948E+04</rscale>
<asrwt>0</asrwt>
<pdfrwt beam="1">  1        1 0.25795215E+00 0.19663948E+04</pdfrwt>
<pdfrwt beam="2">  1       -1 0.88698361E-01 0.19663948E+04</pdfrwt>
<totfact> 0.57368700E+00</totfact>
</mgrwt>
</event>
<event>
12    1  0.1536832E-007  0.2484192E+04  0.7818608E-02  0.8408639E-01
         -2   -1    0    0    0  501 -0.00000000000E+00  0.00000000000E+00  0.16535164425E+04  0.16535164425E+04  0.00000000000E+00 0.  1.
          2   -1    0    0  501    0  0.00000000000E+00 -0.00000000000E+00 -0.93304309001E+03  0.93304309001E+03  0.00000000000E+00 0. -1.
         23    2    1    2    0    0 -0.38026308046E+03  0.30408687479E+02  0.13652496415E+04  0.14205524896E+04  0.92401804427E+02 0.  0.
        254    2    1    2    0    0  0.38026308046E+03 -0.30408687479E+02 -0.64477628900E+03  0.11660070429E+04  0.89348265938E+03 0.  0.
        -24    2    4    4    0    0  0.61239072791E+02  0.32007828401E+03  0.30450249731E+02  0.33711573487E+03  0.80743229181E+02 0.  0.
         24    2    4    4    0    0  0.31902400767E+03 -0.35048697149E+03 -0.67522653873E+03  0.82889130803E+03  0.80699983067E+02 0.  0.
         11    1    3    3    0    0 -0.17599385595E+03 -0.19345947447E+02  0.51071134298E+03  0.54053138564E+03  0.00000000000E+00 0. -1.
        -11    1    3    3    0    0 -0.20426922451E+03  0.49754634926E+02  0.85453829851E+03  0.88002110395E+03  0.00000000000E+00 0.  1.
          4    1    6    6  502    0  0.61104932133E+01 -0.38156792945E+02 -0.55006714857E+02  0.67223639105E+02  0.00000000000E+00 0. -1.
          3    1    5    5  503    0  0.14095921132E+02  0.87653531697E+02  0.44959290106E+02  0.99514694283E+02  0.00000000000E+00 0. -1.
         -4    1    5    5    0  503  0.47143151659E+02  0.23242475232E+03 -0.14509040375E+02  0.23760104059E+03  0.00000000000E+00 0.  1.
         -3    1    6    6    0  502  0.31291351446E+03 -0.31233017855E+03 -0.62021982388E+03  0.76166766893E+03  0.00000000000E+00 0.  1.
<mgrwt>
<rscale>  0 0.24841917E+04</rscale>
<asrwt>0</asrwt>
<pdfrwt beam="1">  1        2 0.14354509E+00 0.24841917E+04</pdfrwt>
<pdfrwt beam="2">  1       -2 0.25438714E+00 0.24841917E+04</pdfrwt>
<totfact> 0.15024687E+00</totfact>
</mgrwt>
</event>
<event>
12    1  0.1536832E-007  0.1282778E+04  0.7818608E-02  0.9043335E-01
         -2   -1    0    0    0  501 -0.00000000000E+00  0.00000000000E+00  0.73490851458E+03  0.73490851458E+03  0.00000000000E+00 0.  1.
          2   -1    0    0  501    0  0.00000000000E+00 -0.00000000000E+00 -0.55977040550E+03  0.55977040550E+03  0.00000000000E+00 0. -1.
         23    2    1    2    0    0  0.24659582726E+02 -0.11016574703E+03  0.30000891225E+03  0.33368654120E+03  0.92718787266E+02 0.  0.
        254    2    1    2    0    0 -0.24659582726E+02  0.11016574703E+03 -0.12487080317E+03  0.96099237888E+03  0.94613373682E+03 0.  0.
        -24    2    4    4    0    0 -0.41285823085E+03  0.18572295679E+03 -0.26932666418E+03  0.53271709339E+03  0.79408526577E+02 0.  0.
         24    2    4    4    0    0  0.38819864813E+03 -0.75557209769E+02  0.14445586101E+03  0.42827528549E+03  0.78390956287E+02 0.  0.
         11    1    3    3    0    0  0.27063658971E+01  0.16330291791E+02  0.22648209799E+02  0.28052526686E+02  0.00000000000E+00 0. -1.
        -11    1    3    3    0    0  0.21953216829E+02 -0.12649603882E+03  0.27736070245E+03  0.30563401452E+03  0.00000000000E+00 0.  1.
          4    1    6    6  502    0  0.10111754291E+01 -0.43487135596E+01  0.12169709374E+02  0.12962855072E+02  0.00000000000E+00 0. -1.
          3    1    5    5  503    0 -0.90813563423E+02  0.37149831724E+02 -0.22637489248E+02  0.10069592454E+03  0.00000000000E+00 0. -1.
         -4    1    5    5    0  503 -0.32204466743E+03  0.14857312507E+03 -0.24668917493E+03  0.43202116886E+03  0.00000000000E+00 0.  1.
         -3    1    6    6    0  502  0.38718747270E+03 -0.71208496210E+02  0.13228615163E+03  0.41531243042E+03  0.00000000000E+00 0.  1.
<mgrwt>
<rscale>  0 0.12827783E+04</rscale>
<asrwt>0</asrwt>
<pdfrwt beam="1">  1        2 0.86118523E-01 0.12827783E+04</pdfrwt>
<pdfrwt beam="2">  1       -2 0.11306285E+00 0.12827783E+04</pdfrwt>
<totfact> 0.32512808E+01</totfact>
</mgrwt>
</event>
<event>
12    1  0.1536832E-007  0.1509331E+04  0.7818608E-02  0.8878271E-01
          2   -1    0    0  501    0  0.00000000000E+00  0.00000000000E+00  0.10153126811E+04  0.10153126811E+04  0.00000000000E+00 0. -1.
         -2   -1    0    0    0  501 -0.00000000000E+00 -0.00000000000E+00 -0.56093103547E+03  0.56093103547E+03  0.00000000000E+00 0.  1.
         23    2    1    2    0    0  0.30336455930E+03 -0.16886727857E+03 -0.24069683013E+03  0.43183126395E+03  0.89426298572E+02 0.  0.
        254    2    1    2    0    0 -0.30336455930E+03  0.16886727857E+03  0.69507847580E+03  0.11444124527E+04  0.84023780008E+03 0.  0.
        -24    2    4    4    0    0  0.15109697621E+02 -0.20436679353E+03 -0.71107376340E+02  0.23101949013E+03  0.79496267800E+02 0.  0.
         24    2    4    4    0    0 -0.31847425692E+03  0.37323407209E+03  0.76618585214E+03  0.91339296253E+03  0.80724340171E+02 0.  0.
         11    1    3    3    0    0  0.20024060298E+03 -0.81387302115E+02 -0.10516940909E+03  0.24037636456E+03  0.00000000000E+00 0. -1.
        -11    1    3    3    0    0  0.10312395632E+03 -0.87479976451E+02 -0.13552742104E+03  0.19145489939E+03  0.00000000000E+00 0.  1.
          2    1    6    6  502    0  0.31570664748E+01  0.16888591486E+02  0.24769992749E+02  0.30145383260E+02  0.00000000000E+00 0. -1.
          1    1    5    5  503    0  0.48195596141E+01 -0.16713186165E+03 -0.22158707210E+02  0.16866326109E+03  0.00000000000E+00 0. -1.
         -2    1    5    5    0  503  0.10290138007E+02 -0.37234931872E+02 -0.48948669130E+02  0.62356229050E+02  0.00000000000E+00 0.  1.
         -1    1    6    6    0  502 -0.32163132340E+03  0.35634548061E+03  0.74141585939E+03  0.88324757927E+03  0.00000000000E+00 0.  1.
<mgrwt>
<rscale>  0 0.15093315E+04</rscale>
<asrwt>0</asrwt>
<pdfrwt beam="1">  1        2 0.15620195E+00 0.15093315E+04</pdfrwt>
<pdfrwt beam="2">  1       -2 0.86297083E-01 0.15093315E+04</pdfrwt>
<totfact> 0.27680857E+01</totfact>
</mgrwt>
</event>
<event>
12    1  0.1536832E-007  0.1283702E+04  0.7818608E-02  0.9042590E-01
          2   -1    0    0  501    0  0.00000000000E+00  0.00000000000E+00  0.34699030735E+04  0.34699030735E+04  0.00000000000E+00 0. -1.
         -2   -1    0    0    0  501 -0.00000000000E+00 -0.00000000000E+00 -0.11872742699E+03  0.11872742699E+03  0.00000000000E+00 0.  1.
         23    2    1    2    0    0 -0.12869142847E+03 -0.24234329476E+03  0.41374688650E+03  0.50487918369E+03  0.91786424681E+02 0.  0.
        254    2    1    2    0    0  0.12869142847E+03  0.24234329476E+03  0.29374287600E+04  0.30837513168E+04  0.89763172150E+03 0.  0.
        -24    2    4    4    0    0 -0.37337223200E+03  0.16811878532E+02  0.12434402859E+04  0.13007915824E+04  0.78902049466E+02 0.  0.
         24    2    4    4    0    0  0.50206366047E+03  0.22553141623E+03  0.16939884742E+04  0.17829597344E+04  0.80100718671E+02 0.  0.
         11    1    3    3    0    0 -0.49941704362E+02 -0.87431659129E+02  0.80007941324E+02  0.12860691866E+03  0.00000000000E+00 0.  1.
        -11    1    3    3    0    0 -0.78749724110E+02 -0.15491163563E+03  0.33373894518E+03  0.37627226503E+03  0.00000000000E+00 0. -1.
          4    1    6    6  502    0  0.39638014846E+03  0.18542176336E+03  0.14383176950E+04  0.15034148609E+04  0.00000000000E+00 0. -1.
          3    1    5    5  503    0 -0.31210382549E+03 -0.66690985519E+01  0.94515218329E+03  0.99537225416E+03  0.00000000000E+00 0. -1.
         -4    1    5    5    0  503 -0.61268406507E+02  0.23480977084E+02  0.29828810257E+03  0.30541932823E+03  0.00000000000E+00 0.  1.
         -3    1    6    6    0  502  0.10568351200E+03  0.40109652874E+02  0.25567077920E+03  0.27954487350E+03  0.00000000000E+00 0.  1.
<mgrwt>
<rscale>  0 0.12837019E+04</rscale>
<asrwt>0</asrwt>
<pdfrwt beam="1">  1        2 0.53383116E+00 0.12837019E+04</pdfrwt>
<pdfrwt beam="2">  1       -2 0.18265761E-01 0.12837019E+04</pdfrwt>
<totfact> 0.21415364E+01</totfact>
</mgrwt>
</event>
<event>
12    1  0.1536832E-007  0.1625365E+04  0.7818608E-02  0.8805115E-01
         -1   -1    0    0    0  501 -0.00000000000E+00  0.00000000000E+00  0.36075805993E+03  0.36075805993E+03  0.00000000000E+00 0.  1.
          1   -1    0    0  501    0  0.00000000000E+00 -0.00000000000E+00 -0.18307368291E+04  0.18307368291E+04  0.00000000000E+00 0. -1.
         23    2    1    2    0    0  0.30584628857E+03 -0.19644337067E+02 -0.11329520595E+04  0.11774360978E+04  0.94061379351E+02 0.  0.
        254    2    1    2    0    0 -0.30584628857E+03  0.19644337067E+02 -0.33702670966E+03  0.10140587912E+04  0.90598034018E+03 0.  0.
        -24    2    4    4    0    0  0.22499394763E+03  0.27299070155E+03 -0.13244238559E+03  0.38625957793E+03  0.80680087005E+02 0.  0.
         24    2    4    4    0    0 -0.53084023620E+03 -0.25334636448E+03 -0.20458432407E+03  0.62779921328E+03  0.79381167613E+02 0.  0.
         13    1    3    3    0    0  0.23659321454E+03  0.18034126398E+02 -0.92767835681E+03  0.95754306043E+03  0.00000000000E+00 0. -1.
        -13    1    3    3    0    0  0.69253074038E+02 -0.37678463466E+02 -0.20527370269E+03  0.21989303738E+03  0.00000000000E+00 0.  1.
          4    1    6    6  502    0 -0.17474553489E+02 -0.23331475543E+02 -0.21481025426E+02  0.36209836012E+02  0.00000000000E+00 0. -1.
          1    1    5    5  503    0  0.85272735292E+02  0.14531594185E+03 -0.94653088904E+02  0.19325467544E+03  0.00000000000E+00 0. -1.
         -2    1    5    5    0  503  0.13972121234E+03  0.12767475970E+03 -0.37789296688E+02  0.19300490249E+03  0.00000000000E+00 0.  1.
         -3    1    6    6    0  502 -0.51336568272E+03 -0.23001488894E+03 -0.18310329864E+03  0.59158937727E+03  0.00000000000E+00 0.  1.
<mgrwt>
<rscale>  0 0.16253653E+04</rscale>
<asrwt>0</asrwt>
<pdfrwt beam="1">  1        1 0.28165183E+00 0.16253653E+04</pdfrwt>
<pdfrwt beam="2">  1       -1 0.55501239E-01 0.16253653E+04</pdfrwt>
<totfact> 0.12205633E+01</totfact>
</mgrwt>
</event>
<event>
12    1  0.1536832E-007  0.1247209E+04  0.7818608E-02  0.9072509E-01
          1   -1    0    0  501    0  0.00000000000E+00  0.00000000000E+00  0.10484816523E+04  0.10484816523E+04  0.00000000000E+00 0. -1.
         -1   -1    0    0    0  501 -0.00000000000E+00 -0.00000000000E+00 -0.37090092113E+03  0.37090092113E+03  0.00000000000E+00 0.  1.
         23    2    1    2    0    0  0.89242508486E+02  0.26526065847E+03  0.67024240102E+02  0.30196665833E+03  0.91455845781E+02 0.  0.
        254    2    1    2    0    0 -0.89242508486E+02 -0.26526065847E+03  0.61055649108E+03  0.11174159151E+04  0.89303508123E+03 0.  0.
        -24    2    4    4    0    0 -0.38453741550E+03  0.94392486675E+02  0.88743463658E+02  0.41387443364E+03  0.81471952329E+02 0.  0.
         24    2    4    4    0    0  0.29529490702E+03 -0.35965314515E+03  0.52181302742E+03  0.70354148148E+03  0.78309090515E+02 0.  0.
         11    1    3    3    0    0  0.38828954261E+02  0.10926122198E+03 -0.17906893066E+02  0.11733012886E+03  0.00000000000E+00 0.  1.
        -11    1    3    3    0    0  0.50413554224E+02  0.15599943649E+03  0.84931133168E+02  0.18463652947E+03  0.00000000000E+00 0. -1.
          4    1    6    6  502    0  0.24189202237E+03 -0.25830222394E+03  0.42885802717E+03  0.55601348621E+03  0.00000000000E+00 0. -1.
          1    1    5    5  503    0 -0.18918437303E+03  0.71765671406E+02  0.11746941403E+02  0.20267962213E+03  0.00000000000E+00 0. -1.
         -2    1    5    5    0  503 -0.19535304247E+03  0.22626815269E+02  0.76996522255E+02  0.21119481151E+03  0.00000000000E+00 0.  1.
         -3    1    6    6    0  502  0.53402884648E+02 -0.10135092121E+03  0.92955000253E+02  0.14752799528E+03  0.00000000000E+00 0.  1.
<mgrwt>
<rscale>  0 0.12472094E+04</rscale>
<asrwt>0</asrwt>
<pdfrwt beam="1">  1        1 0.16130487E+00 0.12472094E+04</pdfrwt>
<pdfrwt beam="2">  1       -1 0.57061681E-01 0.12472094E+04</pdfrwt>
<totfact> 0.42558159E+01</totfact>
</mgrwt>
</event>
<event>
12    1  0.1536832E-007  0.1279113E+04  0.7818608E-02  0.9046295E-01
         -1   -1    0    0    0  501 -0.00000000000E+00  0.00000000000E+00  0.24676516519E+03  0.24676516519E+03  0.00000000000E+00 0.  1.
          1   -1    0    0  501    0  0.00000000000E+00 -0.00000000000E+00 -0.16575767555E+04  0.16575767555E+04  0.00000000000E+00 0. -1.
         23    2    1    2    0    0  0.73632628719E+02  0.21872307226E+03 -0.66872086841E+03  0.71361370249E+03  0.93783634933E+02 0.  0.
        254    2    1    2    0    0 -0.73632628719E+02 -0.21872307226E+03 -0.74209072186E+03  0.11907282182E+04  0.90214937992E+03 0.  0.
        -24    2    4    4    0    0  0.13044246047E+03 -0.16605623640E+03 -0.89169408771E+03  0.91989513208E+03  0.80615127797E+02 0.  0.
         24    2    4    4    0    0 -0.20407508919E+03 -0.52666835856E+02  0.14960336585E+03  0.27083308607E+03  0.80925619007E+02 0.  0.
         13    1    3    3    0    0 -0.56898703219E+01 -0.14372249396E+01 -0.78126080887E+02  0.78346185322E+02  0.00000000000E+00 0.  1.
        -13    1    3    3    0    0  0.79322499041E+02  0.22016029720E+03 -0.59059478752E+03  0.63526751716E+03  0.00000000000E+00 0. -1.
          4    1    6    6  502    0 -0.12019829752E+03 -0.44328250675E+02  0.13348440807E+03  0.18501543647E+03  0.00000000000E+00 0. -1.
          1    1    5    5  503    0  0.13487199513E+03 -0.12633355479E+03 -0.76717427878E+03  0.78911785949E+03  0.00000000000E+00 0. -1.
         -2    1    5    5    0  503 -0.44295346626E+01 -0.39722681615E+02 -0.12451980893E+03  0.13077727259E+03  0.00000000000E+00 0.  1.
         -3    1    6    6    0  502 -0.83876791672E+02 -0.83385851814E+01  0.16118957784E+02  0.85817649607E+02  0.00000000000E+00 0.  1.
<mgrwt>
<rscale>  0 0.12791125E+04</rscale>
<asrwt>0</asrwt>
<pdfrwt beam="1">  1        1 0.25501182E+00 0.12791125E+04</pdfrwt>
<pdfrwt beam="2">  1       -1 0.37963870E-01 0.12791125E+04</pdfrwt>
<totfact> 0.33597554E+01</totfact>
</mgrwt>
</event>
<event>
12    1  0.1536832E-007  0.1814833E+04  0.7818608E-02  0.8698451E-01
         -2   -1    0    0    0  501 -0.00000000000E+00  0.00000000000E+00  0.83494208994E+03  0.83494208994E+03  0.00000000000E+00 0.  1.
          2   -1    0    0  501    0  0.00000000000E+00 -0.00000000000E+00 -0.98618208846E+03  0.98618208846E+03  0.00000000000E+00 0. -1.
         23    2    1    2    0    0 -0.21910742125E+03 -0.60483362071E+03 -0.29225088411E+03  0.71240250494E+03  0.90966911560E+02 0.  0.
        254    2    1    2    0    0  0.21910742125E+03  0.60483362071E+03  0.14101088560E+03  0.11087216735E+04  0.89193492396E+03 0.  0.
        -24    2    4    4    0    0  0.43738914791E+03  0.67652100866E+03 -0.31006236206E+02  0.81052541073E+03  0.83666677291E+02 0.  0.
         24    2    4    4    0    0 -0.21828172666E+03 -0.71687387955E+02  0.17201712180E+03  0.29819626273E+03  0.80901959981E+02 0.  0.
         11    1    3    3    0    0 -0.49700227865E+02 -0.26592037219E+03 -0.13203598639E+03  0.30102700659E+03  0.00000000000E+00 0. -1.
        -11    1    3    3    0    0 -0.16940719338E+03 -0.33891324852E+03 -0.16021489772E+03  0.41137549835E+03  0.00000000000E+00 0.  1.
          2    1    6    6  502    0 -0.20166583544E+03 -0.49649180074E+02  0.17340478350E+03  0.27056121157E+03  0.00000000000E+00 0. -1.
          3    1    5    5  503    0  0.28141076071E+03  0.42165220981E+03 -0.59242136268E+02  0.51038439729E+03  0.00000000000E+00 0. -1.
         -4    1    5    5    0  503  0.15597838720E+03  0.25486879885E+03  0.28235900062E+02  0.30014101344E+03  0.00000000000E+00 0.  1.
         -1    1    6    6    0  502 -0.16615891224E+02 -0.22038207881E+02 -0.13876617006E+01  0.27635051163E+02  0.00000000000E+00 0.  1.
<mgrwt>
<rscale>  0 0.18148333E+04</rscale>
<asrwt>0</asrwt>
<pdfrwt beam="1">  1        2 0.15172032E+00 0.18148333E+04</pdfrwt>
<pdfrwt beam="2">  1       -2 0.12845263E+00 0.18148333E+04</pdfrwt>
<totfact> 0.10853491E+01</totfact>
</mgrwt>
</event>
<event>
12    1  0.1536832E-007  0.1951017E+04  0.7818608E-02  0.8629870E-01
          1   -1    0    0  501    0  0.00000000000E+00  0.00000000000E+00  0.14655705775E+04  0.14655705775E+04  0.00000000000E+00 0. -1.
         -1   -1    0    0    0  501 -0.00000000000E+00 -0.00000000000E+00 -0.64931506652E+03  0.64931506652E+03  0.00000000000E+00 0.  1.
         23    2    1    2    0    0  0.68653796367E+03 -0.28090813248E+03  0.51060970292E+03  0.90509481872E+03  0.90722696729E+02 0.  0.
        254    2    1    2    0    0 -0.68653796367E+03  0.28090813248E+03  0.30564580810E+03  0.12097908253E+04  0.90550026316E+03 0.  0.
        -24    2    4    4    0    0 -0.62958389297E+03  0.49416741999E+03  0.46239384024E+03  0.92780341456E+03  0.80210942625E+02 0.  0.
         24    2    4    4    0    0 -0.56954070709E+02 -0.21325928751E+03 -0.15674803214E+03  0.28198741077E+03  0.78890204540E+02 0.  0.
         11    1    3    3    0    0  0.16584485242E+03 -0.46052226040E+02  0.15914245395E+03  0.23441766838E+03  0.00000000000E+00 0.  1.
        -11    1    3    3    0    0  0.52069311125E+03 -0.23485590644E+03  0.35146724897E+03  0.67067715035E+03  0.00000000000E+00 0. -1.
          4    1    6    6  502    0 -0.25884969870E+02 -0.79421526958E+02 -0.15541403252E+02  0.84966733635E+02  0.00000000000E+00 0. -1.
          1    1    5    5  503    0 -0.20644887982E+03  0.12421189795E+03  0.11418880584E+03  0.26662486559E+03  0.00000000000E+00 0. -1.
         -2    1    5    5    0  503 -0.42313501314E+03  0.36995552204E+03  0.34820503440E+03  0.66117854897E+03  0.00000000000E+00 0.  1.
         -3    1    6    6    0  502 -0.31069100839E+02 -0.13383776055E+03 -0.14120662888E+03  0.19702067713E+03  0.00000000000E+00 0.  1.
<mgrwt>
<rscale>  0 0.19510172E+04</rscale>
<asrwt>0</asrwt>
<pdfrwt beam="1">  1        1 0.22547240E+00 0.19510172E+04</pdfrwt>
<pdfrwt beam="2">  1       -1 0.99894626E-01 0.19510172E+04</pdfrwt>
<totfact> 0.61521573E+00</totfact>
</mgrwt>
</event>
<event>
12    1  0.1536832E-007  0.1147287E+04  0.7818608E-02  0.9160290E-01
          1   -1    0    0  501    0  0.00000000000E+00  0.00000000000E+00  0.12954387607E+04  0.12954387607E+04  0.00000000000E+00 0. -1.
         -1   -1    0    0    0  501 -0.00000000000E+00 -0.00000000000E+00 -0.25401958982E+03  0.25401958982E+03  0.00000000000E+00 0.  1.
         23    2    1    2    0    0  0.96804645597E+02 -0.10587062124E+03  0.39894636744E+03  0.43455489012E+03  0.95394028021E+02 0.  0.
        254    2    1    2    0    0 -0.96804645597E+02  0.10587062124E+03  0.64247280340E+03  0.11149034604E+04  0.89981036611E+03 0.  0.
        -24    2    4    4    0    0  0.12353931527E+03  0.31907352403E+02 -0.19248521743E+03  0.24465184371E+03  0.80770812469E+02 0.  0.
         24    2    4    4    0    0 -0.22034396086E+03  0.73963268832E+02  0.83495802084E+03  0.87025161665E+03  0.78491741543E+02 0.  0.
         11    1    3    3    0    0  0.53960946296E+02 -0.11412088261E+02  0.67000156827E+02  0.86781567734E+02  0.00000000000E+00 0.  1.
        -11    1    3    3    0    0  0.42843699302E+02 -0.94458532975E+02  0.33194621061E+03  0.34777332238E+03  0.00000000000E+00 0. -1.
          2    1    6    6  502    0 -0.84234829240E+02  0.47761297357E+02  0.46971366442E+03  0.47959104925E+03  0.00000000000E+00 0. -1.
          3    1    5    5  503    0  0.65746904594E+02  0.53835737497E+01 -0.16038317481E+03  0.17341972521E+03  0.00000000000E+00 0. -1.
         -4    1    5    5    0  503  0.57792410672E+02  0.26523778654E+02 -0.32102042623E+02  0.71232118499E+02  0.00000000000E+00 0.  1.
         -1    1    6    6    0  502 -0.13610913162E+03  0.26201971475E+02  0.36524435642E+03  0.39066056739E+03  0.00000000000E+00 0.  1.
<mgrwt>
<rscale>  0 0.11472869E+04</rscale>
<asrwt>0</asrwt>
<pdfrwt beam="1">  1        1 0.19929827E+00 0.11472869E+04</pdfrwt>
<pdfrwt beam="2">  1       -1 0.39079938E-01 0.11472869E+04</pdfrwt>
<totfact> 0.57509700E+01</totfact>
</mgrwt>
</event>
<event>
12    1  0.1536832E-007  0.2228205E+04  0.7818608E-02  0.8506780E-01
          1   -1    0    0  501    0  0.00000000000E+00  0.00000000000E+00  0.11018935861E+04  0.11018935861E+04  0.00000000000E+00 0. -1.
         -1   -1    0    0    0  501 -0.00000000000E+00 -0.00000000000E+00 -0.11264463619E+04  0.11264463619E+04  0.00000000000E+00 0.  1.
         23    2    1    2    0    0 -0.86220486642E+03 -0.33983915709E+03 -0.11286757032E+03  0.93818944932E+03  0.92587634201E+02 0.  0.
        254    2    1    2    0    0  0.86220486642E+03  0.33983915709E+03  0.88314794570E+02  0.12901504986E+04  0.89319702297E+03 0.  0.
        -24    2    4    4    0    0  0.35026140623E+03 -0.27392610206E+03 -0.10626577881E+03  0.46368008532E+03  0.77383743069E+02 0.  0.
         24    2    4    4    0    0  0.51194346019E+03  0.61376525916E+03  0.19458057338E+03  0.82647041332E+03  0.79986528735E+02 0.  0.
         11    1    3    3    0    0 -0.62162257174E+03 -0.22895384305E+03 -0.41029532232E+02  0.66371522994E+03  0.00000000000E+00 0. -1.
        -11    1    3    3    0    0 -0.24058229468E+03 -0.11088531405E+03 -0.71838038088E+02  0.27447421938E+03  0.00000000000E+00 0.  1.
          4    1    6    6  502    0  0.32771501498E+03  0.38599133101E+03  0.16241959140E+03  0.53175799225E+03  0.00000000000E+00 0. -1.
          3    1    5    5  503    0  0.30744817081E+03 -0.20296080765E+03 -0.89684601405E+02  0.37915800784E+03  0.00000000000E+00 0. -1.
         -2    1    5    5    0  503  0.42813235420E+02 -0.70965294414E+02 -0.16581177405E+02  0.84522077486E+02  0.00000000000E+00 0.  1.
         -3    1    6    6    0  502  0.18422844521E+03  0.22777392815E+03  0.32160981982E+02  0.29471242107E+03  0.00000000000E+00 0.  1.
<mgrwt>
<rscale>  0 0.22282047E+04</rscale>
<asrwt>0</asrwt>
<pdfrwt beam="1">  1        1 0.16952209E+00 0.22282047E+04</pdfrwt>
<pdfrwt beam="2">  1       -1 0.17329944E+00 0.22282047E+04</pdfrwt>
<totfact> 0.26751098E+00</totfact>
</mgrwt>
</event>
<event>
12    1  0.1536832E-007  0.1992178E+04  0.7818608E-02  0.8610287E-01
         -2   -1    0    0    0  501 -0.00000000000E+00  0.00000000000E+00  0.88049739846E+03  0.88049739846E+03  0.00000000000E+00 0.  1.
          2   -1    0    0  501    0  0.00000000000E+00 -0.00000000000E+00 -0.11268551904E+04  0.11268551904E+04  0.00000000000E+00 0. -1.
         23    2    1    2    0    0 -0.40944416602E+03  0.66970115427E+03 -0.10166702681E+03  0.79663779904E+03  0.90285311082E+02 0.  0.
        254    2    1    2    0    0  0.40944416602E+03 -0.66970115427E+03 -0.14469076511E+03  0.12107147898E+04  0.91035747022E+03 0.  0.
        -24    2    4    4    0    0  0.44820491017E+02  0.20656019266E+03 -0.12485545682E+03  0.25806661105E+03  0.79583296220E+02 0.  0.
         24    2    4    4    0    0  0.36462367501E+03 -0.87626134693E+03 -0.19835308299E+02  0.95264817874E+03  0.79754250708E+02 0.  0.
         13    1    3    3    0    0 -0.12165467183E+03  0.18554978113E+03 -0.69445491171E+02  0.23248926147E+03  0.00000000000E+00 0. -1.
        -13    1    3    3    0    0 -0.28778949420E+03  0.48415137314E+03 -0.32221535636E+02  0.56414853757E+03  0.00000000000E+00 0.  1.
          4    1    6    6  502    0  0.33093314167E+03 -0.72501432904E+03 -0.28189565105E+02  0.79746923023E+03  0.00000000000E+00 0. -1.
          3    1    5    5  503    0  0.22000349420E+02  0.20100796833E+03 -0.10883768742E+03  0.22963854404E+03  0.00000000000E+00 0. -1.
         -4    1    5    5    0  503  0.22820141597E+02  0.55522243273E+01 -0.16017769392E+02  0.28428067008E+02  0.00000000000E+00 0.  1.
         -3    1    6    6    0  502  0.33690533334E+02 -0.15124701789E+03  0.83542568058E+01  0.15517894852E+03  0.00000000000E+00 0.  1.
<mgrwt>
<rscale>  0 0.19921778E+04</rscale>
<asrwt>0</asrwt>
<pdfrwt beam="1">  1        2 0.17336234E+00 0.19921778E+04</pdfrwt>
<pdfrwt beam="2">  1       -2 0.13546114E+00 0.19921778E+04</pdfrwt>
<totfact> 0.76258465E+00</totfact>
</mgrwt>
</event>
<event>
12    1  0.1536832E-007  0.5087084E+04  0.7818608E-02  0.7815212E-01
          1   -1    0    0  501    0  0.00000000000E+00  0.00000000000E+00  0.24298291357E+04  0.24298291357E+04  0.00000000000E+00 0. -1.
         -1   -1    0    0    0  501 -0.00000000000E+00 -0.00000000000E+00 -0.26625761440E+04  0.26625761440E+04  0.00000000000E+00 0.  1.
         23    2    1    2    0    0 -0.19327264295E+04  0.14690369923E+04  0.30353551770E+03  0.24482354030E+04  0.90673267577E+02 0.  0.
        254    2    1    2    0    0  0.19327264295E+04 -0.14690369923E+04 -0.53628252598E+03  0.26441698768E+04  0.90029675857E+03 0.  0.
        -24    2    4    4    0    0  0.11046723270E+04 -0.28960082538E+03 -0.20097985058E+03  0.11625100270E+04  0.82867812933E+02 0.  0.
         24    2    4    4    0    0  0.82805410253E+03 -0.11794361670E+04 -0.33530267541E+03  0.14816598498E+04  0.78388505372E+02 0.  0.
         13    1    3    3    0    0 -0.18212425457E+04  0.13757849934E+04  0.30581421030E+03  0.23028745275E+04  0.00000000000E+00 0. -1.
        -13    1    3    3    0    0 -0.11148388387E+03  0.93251998989E+02 -0.22786926021E+01  0.14536087548E+03  0.00000000000E+00 0.  1.
          4    1    6    6  502    0  0.32732863515E+03 -0.53311975755E+03 -0.15112403802E+03  0.64358308411E+03  0.00000000000E+00 0. -1.
          3    1    5    5  503    0  0.77724950483E+03 -0.24257028807E+03 -0.14301114077E+03  0.82668574670E+03  0.00000000000E+00 0. -1.
         -4    1    5    5    0  503  0.32742282217E+03 -0.47030537313E+02 -0.57968709803E+02  0.33582428030E+03  0.00000000000E+00 0.  1.
         -3    1    6    6    0  502  0.50072546738E+03 -0.64631640941E+03 -0.18417863739E+03  0.83807676571E+03  0.00000000000E+00 0.  1.
<mgrwt>
<rscale>  0 0.50870837E+04</rscale>
<asrwt>0</asrwt>
<pdfrwt beam="1">  1        1 0.37381987E+00 0.50870837E+04</pdfrwt>
<pdfrwt beam="2">  1       -1 0.40962710E+00 0.50870837E+04</pdfrwt>
<totfact> 0.66813277E-03</totfact>
</mgrwt>
</event>
<event>
12    1  0.1536832E-007  0.1390936E+04  0.7818608E-02  0.8960406E-01
         -2   -1    0    0    0  501 -0.00000000000E+00  0.00000000000E+00  0.46337167315E+03  0.46337167315E+03  0.00000000000E+00 0.  1.
          2   -1    0    0  501    0  0.00000000000E+00 -0.00000000000E+00 -0.10438181471E+04  0.10438181471E+04  0.00000000000E+00 0. -1.
         23    2    1    2    0    0  0.24363978361E+03  0.29091335806E+02 -0.48194308353E+03  0.54842907870E+03  0.91097028627E+02 0.  0.
        254    2    1    2    0    0 -0.24363978361E+03 -0.29091335806E+02 -0.98503390450E+02  0.95876074159E+03  0.92158157084E+03 0.  0.
        -24    2    4    4    0    0  0.29903591126E+03  0.18832365788E+02 -0.23578758972E+03  0.39116227200E+03  0.87378494742E+02 0.  0.
         24    2    4    4    0    0 -0.54267569487E+03 -0.47923701594E+02  0.13728419927E+03  0.56759846959E+03  0.80792823560E+02 0.  0.
         13    1    3    3    0    0  0.71795550310E+01 -0.81677301848E+01 -0.79000013607E+02  0.79744968347E+02  0.00000000000E+00 0.  1.
        -13    1    3    3    0    0  0.23646022858E+03  0.37259065991E+02 -0.40294306992E+03  0.46868411035E+03  0.00000000000E+00 0. -1.
          2    1    6    6  502    0 -0.19710826598E+03 -0.29695987325E+02  0.88624139009E+02  0.21814618538E+03  0.00000000000E+00 0. -1.
          3    1    5    5  503    0  0.64557891367E+02  0.56073163694E+01 -0.10209663342E+03  0.12092512514E+03  0.00000000000E+00 0. -1.
         -4    1    5    5    0  503  0.23447801989E+03  0.13225049419E+02 -0.13369095630E+03  0.27023714686E+03  0.00000000000E+00 0.  1.
         -1    1    6    6    0  502 -0.34556742889E+03 -0.18227714268E+02  0.48660060259E+02  0.34945228421E+03  0.00000000000E+00 0.  1.
<mgrwt>
<rscale>  0 0.13909360E+04</rscale>
<asrwt>0</asrwt>
<pdfrwt beam="1">  1        2 0.16058741E+00 0.13909360E+04</pdfrwt>
<pdfrwt beam="2">  1       -2 0.71287950E-01 0.13909360E+04</pdfrwt>
<totfact> 0.41096601E+01</totfact>
</mgrwt>
</event>
<event>
12    1  0.1536832E-007  0.1201120E+04  0.7818608E-02  0.9111877E-01
         -2   -1    0    0    0  501 -0.00000000000E+00  0.00000000000E+00  0.44556608715E+03  0.44556608715E+03  0.00000000000E+00 0.  1.
          2   -1    0    0  501    0  0.00000000000E+00 -0.00000000000E+00 -0.80946959076E+03  0.80946959076E+03  0.00000000000E+00 0. -1.
         23    2    1    2    0    0  0.27716654140E+03 -0.58197290344E+02 -0.29502592853E+02  0.29852619119E+03  0.89661962766E+02 0.  0.
        254    2    1    2    0    0 -0.27716654140E+03  0.58197290344E+02 -0.33440091075E+03  0.95650948673E+03  0.85022244902E+03 0.  0.
        -24    2    4    4    0    0 -0.52833666969E+03 -0.15278747758E+03 -0.17534977576E+03  0.58336883040E+03  0.84190252255E+02 0.  0.
         24    2    4    4    0    0  0.25117012829E+03  0.21098476792E+03 -0.15905113499E+03  0.37314065633E+03  0.79596986264E+02 0.  0.
         13    1    3    3    0    0  0.23009372667E+03 -0.58386595248E+02  0.92314701693E+01  0.23756543856E+03  0.00000000000E+00 0.  1.
        -13    1    3    3    0    0  0.47072814731E+02  0.18930490392E+00 -0.38734063023E+02  0.60960752631E+02  0.00000000000E+00 0. -1.
          4    1    6    6  502    0  0.56335011796E+02  0.22842800155E+02 -0.58106785942E+02  0.84094147510E+02  0.00000000000E+00 0. -1.
          1    1    5    5  503    0 -0.31428500946E+03 -0.91847411851E+02 -0.60676206370E+02  0.33300542976E+03  0.00000000000E+00 0. -1.
         -2    1    5    5    0  503 -0.21405166023E+03 -0.60940065728E+02 -0.11467356939E+03  0.25036340063E+03  0.00000000000E+00 0.  1.
         -3    1    6    6    0  502  0.19483511650E+03  0.18814196777E+03 -0.10094434905E+03  0.28904650882E+03  0.00000000000E+00 0.  1.
<mgrwt>
<rscale>  0 0.12011198E+04</rscale>
<asrwt>0</asrwt>
<pdfrwt beam="1">  1        2 0.12453378E+00 0.12011198E+04</pdfrwt>
<pdfrwt beam="2">  1       -2 0.68548629E-01 0.12011198E+04</pdfrwt>
<totfact> 0.65129876E+01</totfact>
</mgrwt>
</event>
<event>
12    1  0.1536832E-007  0.1479348E+04  0.7818608E-02  0.8898303E-01
          2   -1    0    0  501    0  0.00000000000E+00  0.00000000000E+00  0.22819901932E+04  0.22819901932E+04  0.00000000000E+00 0. -1.
         -2   -1    0    0    0  501 -0.00000000000E+00 -0.00000000000E+00 -0.23975469938E+03  0.23975469938E+03  0.00000000000E+00 0.  1.
         23    2    1    2    0    0 -0.28254614381E+03  0.15497178894E+02  0.12617860021E+04  0.12963714425E+04  0.91665237963E+02 0.  0.
        254    2    1    2    0    0  0.28254614381E+03 -0.15497178894E+02  0.78044949177E+03  0.12253734501E+04  0.90131359535E+03 0.  0.
        -24    2    4    4    0    0  0.17134527149E+03  0.81963404398E+02  0.95833004456E+03  0.98030835373E+03  0.80813317919E+02 0.  0.
         24    2    4    4    0    0  0.11120087232E+03 -0.97460583292E+02 -0.17788055280E+03  0.24506509641E+03  0.80939552227E+02 0.  0.
         13    1    3    3    0    0 -0.17728417265E+03 -0.19999993300E+02  0.62484988940E+03  0.64982079213E+03  0.00000000000E+00 0. -1.
        -13    1    3    3    0    0 -0.10526197116E+03  0.35497172194E+02  0.63693611269E+03  0.64655065034E+03  0.00000000000E+00 0.  1.
          2    1    6    6  502    0  0.42937730331E+01 -0.51023225123E+02 -0.65669717897E+02  0.83272551525E+02  0.00000000000E+00 0. -1.
          3    1    5    5  503    0  0.36917636906E+02  0.54072483122E+02  0.22932990928E+03  0.23849308719E+03  0.00000000000E+00 0. -1.
         -4    1    5    5    0  503  0.13442763459E+03  0.27890921276E+02  0.72900013528E+03  0.74181526654E+03  0.00000000000E+00 0.  1.
         -1    1    6    6    0  502  0.10690709928E+03 -0.46437358170E+02 -0.11221083490E+03  0.16179254488E+03  0.00000000000E+00 0.  1.
<mgrwt>
<rscale>  0 0.14793483E+04</rscale>
<asrwt>0</asrwt>
<pdfrwt beam="1">  1        2 0.35107540E+00 0.14793483E+04</pdfrwt>
<pdfrwt beam="2">  1       -2 0.36885340E-01 0.14793483E+04</pdfrwt>
<totfact> 0.31153739E+01</totfact>
</mgrwt>
</event>
<event>
12    1  0.1536832E-007  0.1223760E+04  0.7818608E-02  0.9092310E-01
         -4   -1    0    0    0  501 -0.00000000000E+00  0.00000000000E+00  0.24892392118E+03  0.24892392118E+03  0.00000000000E+00 0.  1.
          4   -1    0    0  501    0  0.00000000000E+00 -0.00000000000E+00 -0.15040624980E+04  0.15040624980E+04  0.00000000000E+00 0. -1.
         23    2    1    2    0    0  0.98499685150E+01 -0.23964160859E+03 -0.48621434767E+03  0.54982970413E+03  0.91559757631E+02 0.  0.
        254    2    1    2    0    0 -0.98499685150E+01  0.23964160859E+03 -0.76892422915E+03  0.12031567150E+04  0.89376534300E+03 0.  0.
        -24    2    4    4    0    0  0.99970965355E+02  0.40856500385E+03 -0.86570432300E+03  0.96572906076E+03  0.79177570385E+02 0.  0.
         24    2    4    4    0    0 -0.10982093387E+03 -0.16892339526E+03  0.96780093853E+02  0.23742765428E+03  0.80060935989E+02 0.  0.
         13    1    3    3    0    0 -0.84905112941E+01 -0.17132048539E+03 -0.24953151484E+03  0.30280154292E+03  0.00000000000E+00 0.  1.
        -13    1    3    3    0    0  0.18340479809E+02 -0.68321123202E+02 -0.23668283283E+03  0.24702816122E+03  0.00000000000E+00 0. -1.
          4    1    6    6  502    0 -0.16993623318E+02 -0.29184078657E+01  0.32272688321E+02  0.36589981544E+02  0.00000000000E+00 0. -1.
          1    1    5    5  503    0  0.79693642060E+01  0.14607608484E+02 -0.10535268637E+02  0.19694793137E+02  0.00000000000E+00 0. -1.
         -2    1    5    5    0  503  0.92001601149E+02  0.39395739536E+03 -0.85516905437E+03  0.94603426763E+03  0.00000000000E+00 0.  1.
         -3    1    6    6    0  502 -0.92827310552E+02 -0.16600498739E+03  0.64507405532E+02  0.20083767274E+03  0.00000000000E+00 0.  1.
<mgrwt>
<rscale>  0 0.12237600E+04</rscale>
<asrwt>0</asrwt>
<pdfrwt beam="1">  1        4 0.23139423E+00 0.12237600E+04</pdfrwt>
<pdfrwt beam="2">  1       -4 0.38295987E-01 0.12237600E+04</pdfrwt>
<totfact> 0.10850326E+00</totfact>
</mgrwt>
</event>
<event>
12    1  0.1536832E-007  0.1297022E+04  0.7818608E-02  0.9031930E-01
         -2   -1    0    0    0  501 -0.00000000000E+00  0.00000000000E+00  0.10918872980E+04  0.10918872980E+04  0.00000000000E+00 0.  1.
          2   -1    0    0  501    0  0.00000000000E+00 -0.00000000000E+00 -0.38517372885E+03  0.38517372885E+03  0.00000000000E+00 0. -1.
         23    2    1    2    0    0 -0.19280855519E+03 -0.12266819586E+03  0.50319766747E+03  0.56054826876E+03  0.93722162957E+02 0.  0.
        254    2    1    2    0    0  0.19280855519E+03  0.12266819586E+03  0.20351590171E+03  0.91651275813E+03  0.86391798704E+03 0.  0.
        -24    2    4    4    0    0  0.40371162438E+03  0.35185005126E+03  0.11486699967E+02  0.54164158893E+03  0.80387389282E+02 0.  0.
         24    2    4    4    0    0 -0.21090306919E+03 -0.22918185540E+03  0.19202920174E+03  0.37487116920E+03  0.81539878216E+02 0.  0.
         11    1    3    3    0    0 -0.42793502053E+02  0.12882917832E+02  0.97965408672E+02  0.10767764246E+03  0.00000000000E+00 0. -1.
        -11    1    3    3    0    0 -0.15001505313E+03 -0.13555111369E+03  0.40523225880E+03  0.45287062630E+03  0.00000000000E+00 0.  1.
          4    1    6    6  502    0 -0.70912608872E+02 -0.11751579525E+03  0.49166979183E+02  0.14579421138E+03  0.00000000000E+00 0. -1.
          3    1    5    5  503    0  0.19401942147E+03  0.22215365760E+03  0.78128111993E+01  0.29505393322E+03  0.00000000000E+00 0. -1.
         -4    1    5    5    0  503  0.20969220291E+03  0.12969639366E+03  0.36738887677E+01  0.24658765571E+03  0.00000000000E+00 0.  1.
         -3    1    6    6    0  502 -0.13999046032E+03 -0.11166606014E+03  0.14286222256E+03  0.22907695782E+03  0.00000000000E+00 0.  1.
<mgrwt>
<rscale>  0 0.12970217E+04</rscale>
<asrwt>0</asrwt>
<pdfrwt beam="1">  1        2 0.59257497E-01 0.12970217E+04</pdfrwt>
<pdfrwt beam="2">  1       -2 0.16798266E+00 0.12970217E+04</pdfrwt>
<totfact> 0.17902850E+01</totfact>
</mgrwt>
</event>
<event>
12    1  0.1536832E-007  0.1817999E+04  0.7818608E-02  0.8696786E-01
          1   -1    0    0  501    0  0.00000000000E+00  0.00000000000E+00  0.19338218769E+04  0.19338218769E+04  0.00000000000E+00 0. -1.
         -1   -1    0    0    0  501 -0.00000000000E+00 -0.00000000000E+00 -0.42727847971E+03  0.42727847971E+03  0.00000000000E+00 0.  1.
         23    2    1    2    0    0  0.37426060700E+03 -0.24905878104E+03  0.12280704640E+04  0.13109676229E+04  0.91530133771E+02 0.  0.
        254    2    1    2    0    0 -0.37426060700E+03  0.24905878104E+03  0.27847293311E+03  0.10501327336E+04  0.90726528943E+03 0.  0.
        -24    2    4    4    0    0 -0.17647154291E+03  0.30563347720E+03  0.57548409601E+03  0.67983330114E+03  0.80233065090E+02 0.  0.
         24    2    4    4    0    0 -0.19778906410E+03 -0.56574696163E+02 -0.29701116290E+03  0.37029943250E+03  0.81146957428E+02 0.  0.
         11    1    3    3    0    0  0.15747858594E+03 -0.62195899539E+02  0.38326259357E+03  0.41899648039E+03  0.00000000000E+00 0.  1.
        -11    1    3    3    0    0  0.21678202107E+03 -0.18686288150E+03  0.84480787048E+03  0.89197114256E+03  0.00000000000E+00 0. -1.
          4    1    6    6  502    0 -0.18584403878E+03 -0.67805819440E+02 -0.29280957453E+03  0.35337385703E+03  0.00000000000E+00 0. -1.
          1    1    5    5  503    0 -0.12817002337E+03  0.24410267940E+03  0.50082611936E+03  0.57169963689E+03  0.00000000000E+00 0. -1.
         -2    1    5    5    0  503 -0.48301519533E+02  0.61530797798E+02  0.74657976649E+02  0.10813366425E+03  0.00000000000E+00 0.  1.
         -3    1    6    6    0  502 -0.11945025319E+02  0.11231123278E+02 -0.42015883689E+01  0.16925575464E+02  0.00000000000E+00 0.  1.
<mgrwt>
<rscale>  0 0.18179994E+04</rscale>
<asrwt>0</asrwt>
<pdfrwt beam="1">  1        1 0.29751105E+00 0.18179994E+04</pdfrwt>
<pdfrwt beam="2">  1       -1 0.65735152E-01 0.18179994E+04</pdfrwt>
<totfact> 0.73037693E+00</totfact>
</mgrwt>
</event>
<event>
12    1  0.1536832E-007  0.1641252E+04  0.7818608E-02  0.8795598E-01
          2   -1    0    0  501    0  0.00000000000E+00  0.00000000000E+00  0.23059922182E+04  0.23059922182E+04  0.00000000000E+00 0. -1.
         -2   -1    0    0    0  501 -0.00000000000E+00 -0.00000000000E+00 -0.29203364741E+03  0.29203364741E+03  0.00000000000E+00 0.  1.
         23    2    1    2    0    0 -0.66150894703E+02 -0.36818413043E+03  0.14033277102E+04  0.14552816223E+04  0.92630682096E+02 0.  0.
        254    2    1    2    0    0  0.66150894703E+02  0.36818413043E+03  0.61063086065E+03  0.11427442433E+04  0.89053852412E+03 0.  0.
        -24    2    4    4    0    0 -0.64085732650E+02 -0.21792916810E+03  0.46037716880E+03  0.51940118068E+03  0.78932537646E+02 0.  0.
         24    2    4    4    0    0  0.13023662735E+03  0.58611329853E+03  0.15025369185E+03  0.62334306267E+03  0.74094696464E+02 0.  0.
         11    1    3    3    0    0 -0.50879018753E+02 -0.72753457767E+02  0.28658804206E+03  0.30002407573E+03  0.00000000000E+00 0.  1.
        -11    1    3    3    0    0 -0.15271875950E+02 -0.29543067266E+03  0.11167396681E+04  0.11552575465E+04  0.00000000000E+00 0. -1.
          2    1    6    6  502    0  0.59288994556E+02  0.42228618528E+03  0.10471280943E+03  0.43909632157E+03  0.00000000000E+00 0. -1.
          3    1    5    5  503    0 -0.31405568190E+02 -0.15831078684E+03  0.38732752471E+03  0.41960842025E+03  0.00000000000E+00 0. -1.
         -4    1    5    5    0  503 -0.32680164460E+02 -0.59618381255E+02  0.73049644091E+02  0.99792760431E+02  0.00000000000E+00 0.  1.
         -1    1    6    6    0  502  0.70947632797E+02  0.16382711325E+03  0.45540882422E+02  0.18424674110E+03  0.00000000000E+00 0.  1.
<mgrwt>
<rscale>  0 0.16412523E+04</rscale>
<asrwt>0</asrwt>
<pdfrwt beam="1">  1        2 0.35476802E+00 0.16412523E+04</pdfrwt>
<pdfrwt beam="2">  1       -2 0.44928255E-01 0.16412523E+04</pdfrwt>
<totfact> 0.20222360E+01</totfact>
</mgrwt>
</event>
<event>
12    1  0.1536832E-007  0.2067360E+04  0.7818608E-02  0.8575759E-01
         -2   -1    0    0    0  501 -0.00000000000E+00  0.00000000000E+00  0.42169922568E+03  0.42169922568E+03  0.00000000000E+00 0.  1.
          2   -1    0    0  501    0  0.00000000000E+00 -0.00000000000E+00 -0.25337833039E+04  0.25337833039E+04  0.00000000000E+00 0. -1.
         23    2    1    2    0    0  0.25923235600E+03  0.27943424027E+03 -0.19107576445E+04  0.19505789418E+04  0.92078896624E+02 0.  0.
        254    2    1    2    0    0 -0.25923235600E+03 -0.27943424027E+03 -0.20132643376E+03  0.10049035878E+04  0.90775215715E+03 0.  0.
        -24    2    4    4    0    0 -0.28771576550E+03  0.27207405885E+03 -0.19253362930E+03  0.44753856840E+03  0.80105658855E+02 0.  0.
         24    2    4    4    0    0  0.28483409499E+02 -0.55150829912E+03 -0.87928044577E+01  0.55736501940E+03  0.74871508768E+02 0.  0.
         13    1    3    3    0    0  0.12372202270E+03  0.18964791763E+03 -0.12311837237E+04  0.12518333887E+04  0.00000000000E+00 0.  1.
        -13    1    3    3    0    0  0.13551033330E+03  0.89786322644E+02 -0.67957392076E+03  0.69874555308E+03  0.00000000000E+00 0. -1.
          4    1    6    6  502    0  0.46315561369E+02 -0.38231650087E+03  0.15973691165E+02  0.38544285811E+03  0.00000000000E+00 0. -1.
          3    1    5    5  503    0 -0.23192644180E+03  0.24844487748E+03 -0.14085806277E+03  0.36790722390E+03  0.00000000000E+00 0. -1.
         -4    1    5    5    0  503 -0.55789323693E+02  0.23629181371E+02 -0.51675566529E+02  0.79631344498E+02  0.00000000000E+00 0.  1.
         -3    1    6    6    0  502 -0.17832151870E+02 -0.16919179825E+03 -0.24766495622E+02  0.17192216129E+03  0.00000000000E+00 0.  1.
<mgrwt>
<rscale>  0 0.20673601E+04</rscale>
<asrwt>0</asrwt>
<pdfrwt beam="1">  1        2 0.38981282E+00 0.20673601E+04</pdfrwt>
<pdfrwt beam="2">  1       -2 0.64876803E-01 0.20673601E+04</pdfrwt>
<totfact> 0.67422499E+00</totfact>
</mgrwt>
</event>
<event>
12    1  0.1536832E-007  0.4295242E+04  0.7818608E-02  0.7947499E-01
          2   -1    0    0  501    0  0.00000000000E+00  0.00000000000E+00  0.38306683226E+04  0.38306683226E+04  0.00000000000E+00 0.  1.
         -2   -1    0    0    0  501 -0.00000000000E+00 -0.00000000000E+00 -0.12040393988E+04  0.12040393988E+04  0.00000000000E+00 0. -1.
         23    2    1    2    0    0  0.64108541179E+02  0.14174509898E+03  0.36552441748E+04  0.36596978125E+04  0.91523348434E+02 0.  0.
        254    2    1    2    0    0 -0.64108541179E+02 -0.14174509898E+03 -0.10286152509E+04  0.13750099089E+04  0.89911141529E+03 0.  0.
        -24    2    4    4    0    0  0.20225464896E+03  0.26417290931E+03 -0.71181917837E+03  0.78978254460E+03  0.79847705161E+02 0.  0.
         24    2    4    4    0    0 -0.26636319014E+03 -0.40591800829E+03 -0.31679607253E+03  0.58522736432E+03  0.80078323276E+02 0.  0.
         11    1    3    3    0    0  0.41597148579E+01  0.11433452942E+03  0.23937011515E+04  0.23964337860E+04  0.00000000000E+00 0.  1.
        -11    1    3    3    0    0  0.59948826322E+02  0.27410569555E+02  0.12615430232E+04  0.12632640265E+04  0.00000000000E+00 0. -1.
          2    1    6    6  502    0 -0.11657044228E+03 -0.15006055873E+03 -0.16737643984E+03  0.25322265285E+03  0.00000000000E+00 0. -1.
          1    1    5    5  503    0  0.11613291027E+03  0.15944308508E+03 -0.50829315213E+03  0.54522553015E+03  0.00000000000E+00 0. -1.
         -2    1    5    5    0  503  0.86121738689E+02  0.10472982423E+03 -0.20352602624E+03  0.24455701445E+03  0.00000000000E+00 0.  1.
         -1    1    6    6    0  502 -0.14979274786E+03 -0.25585744956E+03 -0.14941963269E+03  0.33200471147E+03  0.00000000000E+00 0.  1.
<mgrwt>
<rscale>  0 0.42952418E+04</rscale>
<asrwt>0</asrwt>
<pdfrwt beam="1">  1        2 0.58933358E+00 0.42952418E+04</pdfrwt>
<pdfrwt beam="2">  1       -2 0.18523683E+00 0.42952418E+04</pdfrwt>
<totfact> 0.59645381E-02</totfact>
</mgrwt>
</event>
<event>
12    1  0.1536832E-007  0.1349929E+04  0.7818608E-02  0.8990882E-01
         -2   -1    0    0    0  501 -0.00000000000E+00  0.00000000000E+00  0.24628719993E+03  0.24628719993E+03  0.00000000000E+00 0. -1.
          2   -1    0    0  501    0  0.00000000000E+00 -0.00000000000E+00 -0.18497808370E+04  0.18497808370E+04  0.00000000000E+00 0.  1.
         23    2    1    2    0    0 -0.10817445506E+03  0.32730831806E+03 -0.59485373825E+03  0.69383990267E+03  0.93436571142E+02 0.  0.
        254    2    1    2    0    0  0.10817445506E+03 -0.32730831806E+03 -0.10086398989E+04  0.14022281343E+04  0.91107455636E+03 0.  0.
        -24    2    4    4    0    0  0.32211522419E+03 -0.49448177921E+03 -0.36485629335E+03  0.69898432561E+03  0.84785169857E+02 0.  0.
         24    2    4    4    0    0 -0.21394076913E+03  0.16717346115E+03 -0.64378360552E+03  0.70324380869E+03  0.79855525318E+02 0.  0.
         13    1    3    3    0    0 -0.59808422619E+01  0.25991059519E+02 -0.10862613705E+02  0.28797604512E+02  0.00000000000E+00 0. -1.
        -13    1    3    3    0    0 -0.10219361280E+03  0.30131725854E+03 -0.58399112455E+03  0.66504229816E+03  0.00000000000E+00 0.  1.
          4    1    6    6  502    0 -0.13698303762E+03  0.56452089775E+02 -0.34011329554E+03  0.37098280936E+03  0.00000000000E+00 0. -1.
          3    1    5    5  503    0  0.28390100435E+03 -0.37509803913E+03 -0.27712200140E+03  0.54598069828E+03  0.00000000000E+00 0. -1.
         -4    1    5    5    0  503  0.38214219835E+02 -0.11938374008E+03 -0.87734291953E+02  0.15300362733E+03  0.00000000000E+00 0.  1.
         -3    1    6    6    0  502 -0.76957731512E+02  0.11072137137E+03 -0.30367030998E+03  0.33226099934E+03  0.00000000000E+00 0.  1.
<mgrwt>
<rscale>  0 0.13499294E+04</rscale>
<asrwt>0</asrwt>
<pdfrwt beam="1">  1        2 0.28458167E+00 0.13499294E+04</pdfrwt>
<pdfrwt beam="2">  1       -2 0.37890338E-01 0.13499294E+04</pdfrwt>
<totfact> 0.52000952E+01</totfact>
</mgrwt>
</event>
<event>
12    1  0.1536832E-007  0.2615210E+04  0.7818608E-02  0.8363053E-01
         -2   -1    0    0    0  501 -0.00000000000E+00  0.00000000000E+00  0.10535356802E+04  0.10535356802E+04  0.00000000000E+00 0.  1.
          2   -1    0    0  501    0  0.00000000000E+00 -0.00000000000E+00 -0.16229449173E+04  0.16229449173E+04  0.00000000000E+00 0. -1.
         23    2    1    2    0    0  0.14451037985E+03 -0.11124293796E+04  0.12414377523E+02  0.11250706899E+04  0.85132638318E+02 0.  0.
        254    2    1    2    0    0 -0.14451037985E+03  0.11124293796E+04 -0.58182361458E+03  0.15514099076E+04  0.89998422671E+03 0.  0.
        -24    2    4    4    0    0  0.16470690557E+03  0.10384180177E+04 -0.24687979852E+03  0.10827056681E+04  0.76560985423E+02 0.  0.
         24    2    4    4    0    0 -0.30921728542E+03  0.74011361899E+02 -0.33494381606E+03  0.46870423951E+03  0.80020578165E+02 0.  0.
         13    1    3    3    0    0  0.15165563111E+03 -0.10804491010E+04  0.20826465521E+02  0.10912394017E+04  0.00000000000E+00 0. -1.
        -13    1    3    3    0    0 -0.71452512644E+01 -0.31980278620E+02 -0.84120879980E+01  0.33831288192E+02  0.00000000000E+00 0.  1.
          2    1    6    6  502    0 -0.85358336374E+02 -0.48185358514E+00 -0.50612653376E+02  0.99236678971E+02  0.00000000000E+00 0. -1.
          1    1    5    5  503    0  0.12212805026E+02  0.46723617312E+02 -0.27773623508E+02  0.55710171280E+02  0.00000000000E+00 0. -1.
         -2    1    5    5    0  503  0.15249410054E+03  0.99169440039E+03 -0.21910617501E+03  0.10269954968E+04  0.00000000000E+00 0.  1.
         -1    1    6    6    0  502 -0.22385894904E+03  0.74493215484E+02 -0.28433116269E+03  0.36946756054E+03  0.00000000000E+00 0.  1.
<mgrwt>
<rscale>  0 0.26152096E+04</rscale>
<asrwt>0</asrwt>
<pdfrwt beam="1">  1        2 0.24968383E+00 0.26152096E+04</pdfrwt>
<pdfrwt beam="2">  1       -2 0.16208241E+00 0.26152096E+04</pdfrwt>
<totfact> 0.23261516E+00</totfact>
</mgrwt>
</event>
<event>
12    1  0.1536832E-007  0.1127945E+04  0.7818608E-02  0.9178375E-01
          1   -1    0    0  501    0  0.00000000000E+00  0.00000000000E+00  0.70163079078E+03  0.70163079078E+03  0.00000000000E+00 0. -1.
         -1   -1    0    0    0  501 -0.00000000000E+00 -0.00000000000E+00 -0.45332235027E+03  0.45332235027E+03  0.00000000000E+00 0.  1.
         23    2    1    2    0    0  0.13653414355E+03 -0.12751158731E+03  0.93400010303E+02  0.22790622245E+03  0.91197078104E+02 0.  0.
        254    2    1    2    0    0 -0.13653414355E+03  0.12751158731E+03  0.15490843021E+03  0.92704691860E+03  0.89471704481E+03 0.  0.
        -24    2    4    4    0    0 -0.37714810143E+03  0.82764778272E+02  0.40715931091E+03  0.56731955752E+03  0.83558823264E+02 0.  0.
         24    2    4    4    0    0  0.24061395788E+03  0.44746809033E+02 -0.25225088070E+03  0.35972736108E+03  0.76654509673E+02 0.  0.
         13    1    3    3    0    0  0.78857143314E+01 -0.47162290128E+02  0.52075653665E+02  0.70698937794E+02  0.00000000000E+00 0. -1.
        -13    1    3    3    0    0  0.12864842922E+03 -0.80349297178E+02  0.41324356638E+02  0.15720728465E+03  0.00000000000E+00 0.  1.
          2    1    6    6  502    0  0.26121406100E+02 -0.14205596721E+02 -0.54530998475E+02  0.62110841481E+02  0.00000000000E+00 0. -1.
          1    1    5    5  503    0 -0.22635298810E+03  0.70168827236E+02  0.29797504312E+03  0.38072098163E+03  0.00000000000E+00 0. -1.
         -2    1    5    5    0  503 -0.15079511333E+03  0.12595951036E+02  0.10918426779E+03  0.18659857588E+03  0.00000000000E+00 0.  1.
         -1    1    6    6    0  502  0.21449255178E+03  0.58952405754E+02 -0.19771988222E+03  0.29761651960E+03  0.00000000000E+00 0.  1.
<mgrwt>
<rscale>  0 0.11279449E+04</rscale>
<asrwt>0</asrwt>
<pdfrwt beam="1">  1        1 0.10794320E+00 0.11279449E+04</pdfrwt>
<pdfrwt beam="2">  1       -1 0.69741900E-01 0.11279449E+04</pdfrwt>
<totfact> 0.56157544E+01</totfact>
</mgrwt>
</event>
<event>
12    1  0.1536832E-007  0.1864697E+04  0.7818608E-02  0.8672631E-01
          1   -1    0    0  501    0  0.00000000000E+00  0.00000000000E+00  0.35566045717E+03  0.35566045717E+03  0.00000000000E+00 0. -1.
         -1   -1    0    0    0  501 -0.00000000000E+00 -0.00000000000E+00 -0.24441102692E+04  0.24441102692E+04  0.00000000000E+00 0.  1.
         23    2    1    2    0    0  0.24571161747E+03 -0.66441872873E+03 -0.73403659424E+03  0.10248066450E+04  0.97941267294E+02 0.  0.
        254    2    1    2    0    0 -0.24571161747E+03  0.66441872873E+03 -0.13544132178E+04  0.17749640814E+04  0.90235019791E+03 0.  0.
        -24    2    4    4    0    0 -0.28985689000E+02  0.57095700791E+03 -0.22719724509E+03  0.62056902156E+03  0.81579699003E+02 0.  0.
         24    2    4    4    0    0 -0.21672592847E+03  0.93461720819E+02 -0.11272159727E+04  0.11543950598E+04  0.79415890884E+02 0.  0.
         13    1    3    3    0    0  0.21347385102E+03 -0.48701222231E+03 -0.50523199060E+03  0.73349257261E+03  0.00000000000E+00 0.  1.
        -13    1    3    3    0    0  0.32237766446E+02 -0.17740650642E+03 -0.22880460365E+03  0.29131407236E+03  0.00000000000E+00 0. -1.
          2    1    6    6  502    0 -0.57992697743E+02  0.21705553164E+02 -0.15897694961E+03  0.17061053466E+03  0.00000000000E+00 0. -1.
          3    1    5    5  503    0 -0.13908413078E+02  0.12400672335E+02 -0.93031387423E+01  0.20827122201E+02  0.00000000000E+00 0. -1.
         -4    1    5    5    0  503 -0.15077275922E+02  0.55855633558E+03 -0.21789410634E+03  0.59974189936E+03  0.00000000000E+00 0.  1.
         -1    1    6    6    0  502 -0.15873323072E+03  0.71756167655E+02 -0.96823902310E+03  0.98378452518E+03  0.00000000000E+00 0.  1.
<mgrwt>
<rscale>  0 0.18646966E+04</rscale>
<asrwt>0</asrwt>
<pdfrwt beam="1">  1        1 0.54716992E-01 0.18646966E+04</pdfrwt>
<pdfrwt beam="2">  1       -1 0.37601697E+00 0.18646966E+04</pdfrwt>
<totfact> 0.68668500E-01</totfact>
</mgrwt>
</event>
<event>
12    1  0.1536832E-007  0.1654592E+04  0.7818608E-02  0.8787695E-01
          1   -1    0    0  501    0  0.00000000000E+00  0.00000000000E+00  0.50063447803E+03  0.50063447803E+03  0.00000000000E+00 0. -1.
         -1   -1    0    0    0  501 -0.00000000000E+00 -0.00000000000E+00 -0.13671017622E+04  0.13671017622E+04  0.00000000000E+00 0.  1.
         23    2    1    2    0    0 -0.47725262896E+03  0.37417825870E+03 -0.25377440678E+03  0.66375232100E+03  0.91576486929E+02 0.  0.
        254    2    1    2    0    0  0.47725262896E+03 -0.37417825870E+03 -0.61269287744E+03  0.12039839193E+04  0.84047919348E+03 0.  0.
        -24    2    4    4    0    0  0.36958888668E+03 -0.46873079611E+03 -0.35765563239E+02  0.60348885219E+03  0.81333356126E+02 0.  0.
         24    2    4    4    0    0  0.10766374228E+03  0.94552537406E+02 -0.57692731420E+03  0.60049506709E+03  0.84956082750E+02 0.  0.
         11    1    3    3    0    0 -0.16454291461E+03  0.15635529770E+03 -0.53358666639E+02  0.23317053238E+03  0.00000000000E+00 0.  1.
        -11    1    3    3    0    0 -0.31270971435E+03  0.21782296101E+03 -0.20041574014E+03  0.43058178861E+03  0.00000000000E+00 0. -1.
          4    1    6    6  502    0  0.27437700840E+02  0.70872862176E+02 -0.19013155116E+03  0.20475789794E+03  0.00000000000E+00 0. -1.
          3    1    5    5  503    0  0.83419018198E+02 -0.15921408448E+03 -0.27764057696E+02  0.18187550741E+03  0.00000000000E+00 0. -1.
         -4    1    5    5    0  503  0.28616986849E+03 -0.30951671162E+03 -0.80015055428E+01  0.42161334478E+03  0.00000000000E+00 0.  1.
         -3    1    6    6    0  502  0.80226041436E+02  0.23679675230E+02 -0.38679576304E+03  0.39573716915E+03  0.00000000000E+00 0.  1.
<mgrwt>
<rscale>  0 0.16545915E+04</rscale>
<asrwt>0</asrwt>
<pdfrwt beam="1">  1        1 0.77020691E-01 0.16545915E+04</pdfrwt>
<pdfrwt beam="2">  1       -1 0.21032334E+00 0.16545915E+04</pdfrwt>
<totfact> 0.54050743E+00</totfact>
</mgrwt>
</event>
<event>
12    1  0.1536832E-007  0.1499710E+04  0.7818608E-02  0.8884646E-01
          1   -1    0    0  501    0  0.00000000000E+00  0.00000000000E+00  0.49308839608E+03  0.49308839608E+03  0.00000000000E+00 0. -1.
         -1   -1    0    0    0  501 -0.00000000000E+00 -0.00000000000E+00 -0.11403282505E+04  0.11403282505E+04  0.00000000000E+00 0.  1.
         23    2    1    2    0    0 -0.10597329979E+03 -0.44312757571E+03 -0.35244864440E+03  0.58291504784E+03  0.89316949356E+02 0.  0.
        254    2    1    2    0    0  0.10597329979E+03  0.44312757571E+03 -0.29479121001E+03  0.10505015987E+04  0.89947727199E+03 0.  0.
        -24    2    4    4    0    0  0.29720546365E+03  0.63057139687E+03 -0.93694639513E+02  0.70761220482E+03  0.77362605740E+02 0.  0.
         24    2    4    4    0    0 -0.19123216386E+03 -0.18744382116E+03 -0.20109657050E+03  0.34288939392E+03  0.73677535310E+02 0.  0.
         11    1    3    3    0    0 -0.18437831472E+02 -0.77032506877E+01 -0.18567454385E+02  0.27277171094E+02  0.00000000000E+00 0.  1.
        -11    1    3    3    0    0 -0.87535468313E+02 -0.43542432502E+03 -0.33388119001E+03  0.55563787675E+03  0.00000000000E+00 0. -1.
          4    1    6    6  502    0 -0.12040563064E+03 -0.15254337642E+03 -0.16940542274E+03  0.25780844601E+03  0.00000000000E+00 0. -1.
          3    1    5    5  503    0  0.19767484216E+03  0.48165000399E+03 -0.90633547281E+02  0.52846618573E+03  0.00000000000E+00 0. -1.
         -4    1    5    5    0  503  0.99530621486E+02  0.14892139287E+03 -0.30610922323E+01  0.17914601909E+03  0.00000000000E+00 0.  1.
         -3    1    6    6    0  502 -0.70826533216E+02 -0.34900444738E+02 -0.31691147755E+02  0.85080947905E+02  0.00000000000E+00 0.  1.
<mgrwt>
<rscale>  0 0.14997101E+04</rscale>
<asrwt>0</asrwt>
<pdfrwt beam="1">  1        1 0.75859755E-01 0.14997101E+04</pdfrwt>
<pdfrwt beam="2">  1       -1 0.17543511E+00 0.14997101E+04</pdfrwt>
<totfact> 0.98133827E+00</totfact>
</mgrwt>
</event>
<event>
12    1  0.1536832E-007  0.2038672E+04  0.7818608E-02  0.8588751E-01
         -2   -1    0    0    0  501 -0.00000000000E+00  0.00000000000E+00  0.84159266796E+03  0.84159266796E+03  0.00000000000E+00 0. -1.
          2   -1    0    0  501    0  0.00000000000E+00 -0.00000000000E+00 -0.12346185696E+04  0.12346185696E+04  0.00000000000E+00 0.  1.
         23    2    1    2    0    0 -0.16372360349E+02 -0.58434840399E+03 -0.73911745690E+03  0.94659439078E+03  0.89527728197E+02 0.  0.
        254    2    1    2    0    0  0.16372360349E+02  0.58434840399E+03  0.34609155522E+03  0.11296168468E+04  0.90250969226E+03 0.  0.
        -24    2    4    4    0    0  0.26193342387E+03  0.19601503253E+03  0.53040945121E+03  0.62830101971E+03  0.79981084730E+02 0.  0.
         24    2    4    4    0    0 -0.24556106352E+03  0.38833337146E+03 -0.18431789599E+03  0.50131582713E+03  0.79002711580E+02 0.  0.
         11    1    3    3    0    0  0.29632588175E+02 -0.18280870990E+03 -0.19677769601E+03  0.27021949660E+03  0.00000000000E+00 0. -1.
        -11    1    3    3    0    0 -0.46004948524E+02 -0.40153969409E+03 -0.54233976090E+03  0.67637489418E+03  0.00000000000E+00 0.  1.
          2    1    6    6  502    0 -0.21424817884E+03  0.37538621055E+03 -0.17351226274E+03  0.46575057115E+03  0.00000000000E+00 0. -1.
          1    1    5    5  503    0  0.18094097027E+03  0.14541641622E+03  0.43638004747E+03  0.49428040085E+03  0.00000000000E+00 0. -1.
         -2    1    5    5    0  503  0.80992453599E+02  0.50598616314E+02  0.94029403738E+02  0.13402061886E+03  0.00000000000E+00 0.  1.
         -1    1    6    6    0  502 -0.31312884674E+02  0.12947160908E+02 -0.10805633259E+02  0.35565255972E+02  0.00000000000E+00 0.  1.
<mgrwt>
<rscale>  0 0.20386721E+04</rscale>
<asrwt>0</asrwt>
<pdfrwt beam="1">  1        2 0.18994132E+00 0.20386721E+04</pdfrwt>
<pdfrwt beam="2">  1       -2 0.12947580E+00 0.20386721E+04</pdfrwt>
<totfact> 0.73411229E+00</totfact>
</mgrwt>
</event>
<event>
12    1  0.1536832E-007  0.1690114E+04  0.7818608E-02  0.8767023E-01
          1   -1    0    0  501    0  0.00000000000E+00  0.00000000000E+00  0.12884034543E+04  0.12884034543E+04  0.00000000000E+00 0. -1.
         -1   -1    0    0    0  501 -0.00000000000E+00 -0.00000000000E+00 -0.55426850855E+03  0.55426850855E+03  0.00000000000E+00 0.  1.
         23    2    1    2    0    0  0.13327304119E+03 -0.57693996947E+03  0.31809332401E+03  0.67961030520E+03  0.10032632894E+03 0.  0.
        254    2    1    2    0    0 -0.13327304119E+03  0.57693996947E+03  0.41604162178E+03  0.11630616577E+04  0.91049456705E+03 0.  0.
        -24    2    4    4    0    0 -0.40908618276E+03  0.56601091891E+03  0.60099838575E+02  0.70537674655E+03  0.78895492435E+02 0.  0.
         24    2    4    4    0    0  0.27581314157E+03  0.10929050554E+02  0.35594178320E+03  0.45768491112E+03  0.81170140028E+02 0.  0.
         13    1    3    3    0    0  0.73366463564E+02 -0.38433126053E+03  0.15751007939E+03  0.42178499370E+03  0.00000000000E+00 0. -1.
        -13    1    3    3    0    0  0.59906577623E+02 -0.19260870894E+03  0.16058324461E+03  0.25782531150E+03  0.00000000000E+00 0.  1.
          2    1    6    6  502    0  0.12030692264E+03 -0.34385396129E+02  0.17009767960E+03  0.21116186139E+03  0.00000000000E+00 0. -1.
          1    1    5    5  503    0 -0.29568340449E+03  0.36587440478E+03  0.13145527577E+02  0.47060127567E+03  0.00000000000E+00 0. -1.
         -2    1    5    5    0  503 -0.11340277827E+03  0.20013651413E+03  0.46954310998E+02  0.23477547088E+03  0.00000000000E+00 0.  1.
         -1    1    6    6    0  502  0.15550621893E+03  0.45314446683E+02  0.18584410360E+03  0.24652304973E+03  0.00000000000E+00 0.  1.
<mgrwt>
<rscale>  0 0.16901142E+04</rscale>
<asrwt>0</asrwt>
<pdfrwt beam="1">  1        1 0.19821592E+00 0.16901142E+04</pdfrwt>
<pdfrwt beam="2">  1       -1 0.85272078E-01 0.16901142E+04</pdfrwt>
<totfact> 0.11940060E+01</totfact>
</mgrwt>
</event>
<event>
12    1  0.1536832E-007  0.2006823E+04  0.7818608E-02  0.8603437E-01
         -1   -1    0    0    0  501 -0.00000000000E+00  0.00000000000E+00  0.13295818906E+04  0.13295818906E+04  0.00000000000E+00 0.  1.
          1   -1    0    0  501    0  0.00000000000E+00 -0.00000000000E+00 -0.75725629992E+03  0.75725629992E+03  0.00000000000E+00 0. -1.
         23    2    1    2    0    0 -0.28705564438E+03  0.65110639595E+03  0.60239317389E+03  0.93680399551E+03  0.91562591909E+02 0.  0.
        254    2    1    2    0    0  0.28705564438E+03 -0.65110639595E+03 -0.30067583246E+02  0.11500341950E+04  0.90295853072E+03 0.  0.
        -24    2    4    4    0    0 -0.19026654158E+03 -0.61869926594E+03  0.64789765766E+02  0.65533417191E+03  0.79215052910E+02 0.  0.
         24    2    4    4    0    0  0.47732218596E+03 -0.32407130017E+02 -0.94857349013E+02  0.49470002305E+03  0.82725478893E+02 0.  0.
         11    1    3    3    0    0 -0.24147647731E+03  0.60553915823E+03  0.56220818323E+03  0.86085225361E+03  0.00000000000E+00 0.  1.
        -11    1    3    3    0    0 -0.45579167069E+02  0.45567237723E+02  0.40184990654E+02  0.75951741904E+02  0.00000000000E+00 0. -1.
          4    1    6    6  502    0  0.24515494388E+03  0.12203916017E+02 -0.18047876352E+02  0.24612112448E+03  0.00000000000E+00 0. -1.
          1    1    5    5  503    0 -0.14504577406E+03 -0.38229965830E+03  0.12763298364E+02  0.40908948544E+03  0.00000000000E+00 0. -1.
         -2    1    5    5    0  503 -0.45220767523E+02 -0.23639960763E+03  0.52026467402E+02  0.24624468647E+03  0.00000000000E+00 0.  1.
         -3    1    6    6    0  502  0.23216724208E+03 -0.44611046034E+02 -0.76809472660E+02  0.24857889857E+03  0.00000000000E+00 0.  1.
<mgrwt>
<rscale>  0 0.20068226E+04</rscale>
<asrwt>0</asrwt>
<pdfrwt beam="1">  1        1 0.11650097E+00 0.20068226E+04</pdfrwt>
<pdfrwt beam="2">  1       -1 0.20455106E+00 0.20068226E+04</pdfrwt>
<totfact> 0.31319131E+00</totfact>
</mgrwt>
</event>
<event>
12    1  0.1536832E-007  0.1985597E+04  0.7818608E-02  0.8613384E-01
         -1   -1    0    0    0  501 -0.00000000000E+00  0.00000000000E+00  0.53609399221E+03  0.53609399221E+03  0.00000000000E+00 0.  1.
          1   -1    0    0  501    0  0.00000000000E+00 -0.00000000000E+00 -0.18385744037E+04  0.18385744037E+04  0.00000000000E+00 0. -1.
         23    2    1    2    0    0 -0.72626987003E+03 -0.27974566808E+03 -0.38721345859E+03  0.87507904595E+03  0.10051622373E+03 0.  0.
        254    2    1    2    0    0  0.72626987003E+03  0.27974566808E+03 -0.91526695289E+03  0.14995893499E+04  0.89740128176E+03 0.  0.
        -24    2    4    4    0    0 -0.14323802096E+03  0.10747365426E+02 -0.43984014699E+03  0.46951354694E+03  0.79693031957E+02 0.  0.
         24    2    4    4    0    0  0.86950789099E+03  0.26899830265E+03 -0.47542680590E+03  0.10300758030E+04  0.81372310144E+02 0.  0.
         13    1    3    3    0    0 -0.48608623954E+03 -0.19426730150E+03 -0.20717327681E+03  0.56297458497E+03  0.00000000000E+00 0.  1.
        -13    1    3    3    0    0 -0.24018363049E+03 -0.85478366577E+02 -0.18004018179E+03  0.31210446098E+03  0.00000000000E+00 0. -1.
          2    1    6    6  502    0  0.44494608912E+02  0.31029616250E+01 -0.40638225163E+02  0.60339571903E+02  0.00000000000E+00 0. -1.
          1    1    5    5  503    0  0.58427943222E+01  0.13963349825E+02 -0.38735387974E+02  0.41587782645E+02  0.00000000000E+00 0. -1.
         -2    1    5    5    0  503 -0.14908081528E+03 -0.32159843990E+01 -0.40110475901E+03  0.42792576429E+03  0.00000000000E+00 0.  1.
         -1    1    6    6    0  502  0.82501328208E+03  0.26589534102E+03 -0.43478858074E+03  0.96973623111E+03  0.00000000000E+00 0.  1.
<mgrwt>
<rscale>  0 0.19855968E+04</rscale>
<asrwt>0</asrwt>
<pdfrwt beam="1">  1        1 0.28285760E+00 0.19855968E+04</pdfrwt>
<pdfrwt beam="2">  1       -1 0.82475999E-01 0.19855968E+04</pdfrwt>
<totfact> 0.52049185E+00</totfact>
</mgrwt>
</event>
<event>
12    1  0.1536832E-007  0.1672897E+04  0.7818608E-02  0.8776975E-01
         -2   -1    0    0    0  501 -0.00000000000E+00  0.00000000000E+00  0.16491065847E+03  0.16491065847E+03  0.00000000000E+00 0.  1.
          2   -1    0    0  501    0  0.00000000000E+00 -0.00000000000E+00 -0.42425780855E+04  0.42425780855E+04  0.00000000000E+00 0. -1.
         23    2    1    2    0    0  0.55852599301E+03 -0.46561314575E+02 -0.15704509571E+04  0.16699393766E+04  0.90895939480E+02 0.  0.
        254    2    1    2    0    0 -0.55852599301E+03  0.46561314575E+02 -0.25072164699E+04  0.27375493674E+04  0.94547494470E+03 0.  0.
        -24    2    4    4    0    0 -0.21959246759E+03  0.44570156723E+03 -0.75785362054E+03  0.90983910830E+03  0.81205627733E+02 0.  0.
         24    2    4    4    0    0 -0.33893352543E+03 -0.39914025266E+03 -0.17493628494E+04  0.18277102591E+04  0.77881554264E+02 0.  0.
         11    1    3    3    0    0  0.41181446690E+02 -0.27916466447E+02 -0.12180229414E+03  0.13157142360E+03  0.00000000000E+00 0.  1.
        -11    1    3    3    0    0  0.51734454632E+03 -0.18644848128E+02 -0.14486486630E+04  0.15383679530E+04  0.00000000000E+00 0. -1.
          4    1    6    6  502    0 -0.13275497639E+02 -0.22254656476E+02 -0.16125171166E+03  0.16332061439E+03  0.00000000000E+00 0. -1.
          1    1    5    5  503    0 -0.16657584729E+03  0.25352111327E+03 -0.48128860534E+03  0.56891052847E+03  0.00000000000E+00 0. -1.
         -2    1    5    5    0  503 -0.53016620291E+02  0.19218045396E+03 -0.27656501519E+03  0.34092857982E+03  0.00000000000E+00 0.  1.
         -3    1    6    6    0  502 -0.32565802779E+03 -0.37688559618E+03 -0.15881111377E+04  0.16643896447E+04  0.00000000000E+00 0.  1.
<mgrwt>
<rscale>  0 0.16728973E+04</rscale>
<asrwt>0</asrwt>
<pdfrwt beam="1">  1        2 0.65270440E+00 0.16728973E+04</pdfrwt>
<pdfrwt beam="2">  1       -2 0.25370867E-01 0.16728973E+04</pdfrwt>
<totfact> 0.29066544E+00</totfact>
</mgrwt>
</event>
<event>
12    1  0.1536832E-007  0.1900359E+04  0.7818608E-02  0.8654678E-01
          1   -1    0    0  501    0  0.00000000000E+00  0.00000000000E+00  0.31630980752E+04  0.31630980752E+04  0.00000000000E+00 0. -1.
         -1   -1    0    0    0  501 -0.00000000000E+00 -0.00000000000E+00 -0.28542922029E+03  0.28542922029E+03  0.00000000000E+00 0.  1.
         23    2    1    2    0    0  0.41462307364E+03 -0.29083065408E+03  0.20840248730E+04  0.21466268082E+04  0.91390479945E+02 0.  0.
        254    2    1    2    0    0 -0.41462307364E+03  0.29083065408E+03  0.79364398195E+03  0.13019004873E+04  0.89921040157E+03 0.  0.
        -24    2    4    4    0    0 -0.31671744259E+03 -0.19009851860E+03  0.15082184335E+02  0.37818252156E+03  0.79669078783E+02 0.  0.
         24    2    4    4    0    0 -0.97905631050E+02  0.48092917268E+03  0.77856179762E+03  0.92371796578E+03  0.78854460021E+02 0.  0.
         11    1    3    3    0    0  0.29002079831E+03 -0.17439452183E+03  0.12278638646E+04  0.12736464119E+04  0.00000000000E+00 0.  1.
        -11    1    3    3    0    0  0.12460227533E+03 -0.11643613226E+03  0.85616100840E+03  0.87298039624E+03  0.00000000000E+00 0. -1.
          2    1    6    6  502    0 -0.93918702517E+02  0.47897698303E+03  0.75018240356E+03  0.89499347012E+03  0.00000000000E+00 0. -1.
          1    1    5    5  503    0 -0.25375406563E+03 -0.15350744907E+03  0.44015436643E+02  0.29982164933E+03  0.00000000000E+00 0. -1.
         -2    1    5    5    0  503 -0.62963376959E+02 -0.36591069527E+02 -0.28933252307E+02  0.78360872228E+02  0.00000000000E+00 0.  1.
         -1    1    6    6    0  502 -0.39869285326E+01  0.19521896552E+01  0.28379394060E+02  0.28724495658E+02  0.00000000000E+00 0.  1.
<mgrwt>
<rscale>  0 0.19003585E+04</rscale>
<asrwt>0</asrwt>
<pdfrwt beam="1">  1        1 0.48663045E+00 0.19003585E+04</pdfrwt>
<pdfrwt beam="2">  1       -1 0.43912190E-01 0.19003585E+04</pdfrwt>
<totfact> 0.21797435E+00</totfact>
</mgrwt>
</event>
<event>
12    1  0.1536832E-007  0.1869328E+04  0.7818608E-02  0.8670276E-01
         -1   -1    0    0    0  501 -0.00000000000E+00  0.00000000000E+00  0.77746395190E+03  0.77746395190E+03  0.00000000000E+00 0.  1.
          1   -1    0    0  501    0  0.00000000000E+00 -0.00000000000E+00 -0.11236497596E+04  0.11236497596E+04  0.00000000000E+00 0. -1.
         23    2    1    2    0    0  0.55145924479E+03  0.41403350896E+03  0.51484281532E+02  0.69738341702E+03  0.90343532626E+02 0.  0.
        254    2    1    2    0    0 -0.55145924479E+03 -0.41403350896E+03 -0.39767008919E+03  0.12037302944E+04  0.90293636360E+03 0.  0.
        -24    2    4    4    0    0 -0.66058668532E+03 -0.39413986250E+03  0.10308166427E+02  0.77349927740E+03  0.80460386549E+02 0.  0.
         24    2    4    4    0    0  0.10912744053E+03 -0.19893646465E+02 -0.40797825562E+03  0.43023101704E+03  0.79673807006E+02 0.  0.
         13    1    3    3    0    0  0.51066495341E+01 -0.16784172625E+01 -0.64749604133E+01  0.84154659006E+01  0.00000000000E+00 0. -1.
        -13    1    3    3    0    0  0.54635259525E+03  0.41571192623E+03  0.57959241946E+02  0.68896795112E+03  0.00000000000E+00 0.  1.
          2    1    6    6  502    0  0.67059777829E+02  0.23548065130E+01 -0.34406280880E+03  0.35054496904E+03  0.00000000000E+00 0. -1.
          3    1    5    5  503    0 -0.25161379922E+03 -0.14871681993E+03  0.42981200445E+02  0.29542102173E+03  0.00000000000E+00 0. -1.
         -4    1    5    5    0  503 -0.40897288610E+03 -0.24542304257E+03 -0.32673034018E+02  0.47807825566E+03  0.00000000000E+00 0.  1.
         -1    1    6    6    0  502  0.42067662706E+02 -0.22248452978E+02 -0.63915446816E+02  0.79686048008E+02  0.00000000000E+00 0.  1.
<mgrwt>
<rscale>  0 0.18693284E+04</rscale>
<asrwt>0</asrwt>
<pdfrwt beam="1">  1        1 0.17286919E+00 0.18693284E+04</pdfrwt>
<pdfrwt beam="2">  1       -1 0.11960984E+00 0.18693284E+04</pdfrwt>
<totfact> 0.71254456E+00</totfact>
</mgrwt>
</event>
<event>
12    1  0.1536832E-007  0.2327254E+04  0.7818608E-02  0.8467252E-01
         -1   -1    0    0    0  501 -0.00000000000E+00  0.00000000000E+00  0.97833318500E+03  0.97833318500E+03  0.00000000000E+00 0.  1.
          1   -1    0    0  501    0  0.00000000000E+00 -0.00000000000E+00 -0.13840145741E+04  0.13840145741E+04  0.00000000000E+00 0. -1.
         23    2    1    2    0    0  0.57881275914E+03  0.36339341029E+03  0.54627675401E+03  0.87889607564E+03  0.83432841359E+02 0.  0.
        254    2    1    2    0    0 -0.57881275914E+03 -0.36339341029E+03 -0.95195814313E+03  0.14834516835E+04  0.90957441157E+03 0.  0.
        -24    2    4    4    0    0 -0.87509868119E+02 -0.51769199756E+03 -0.19813571212E+03  0.56701037205E+03  0.81117323878E+02 0.  0.
         24    2    4    4    0    0 -0.49130289102E+03  0.15429858727E+03 -0.75382243101E+03  0.91644131144E+03  0.80186252296E+02 0.  0.
         13    1    3    3    0    0  0.99032515321E+01  0.23084579283E+02  0.26349630217E+02  0.36404329470E+02  0.00000000000E+00 0. -1.
        -13    1    3    3    0    0  0.56890950761E+03  0.34030883100E+03  0.51992712379E+03  0.84249174617E+03  0.00000000000E+00 0.  1.
          4    1    6    6  502    0 -0.91427262878E+02 -0.24728986121E+01 -0.12289444945E+03  0.15319303290E+03  0.00000000000E+00 0. -1.
          1    1    5    5  503    0 -0.16328017985E+02 -0.13288337251E+03 -0.88911958112E+02  0.16071692865E+03  0.00000000000E+00 0. -1.
         -2    1    5    5    0  503 -0.71181850135E+02 -0.38480862506E+03 -0.10922375401E+03  0.40629344339E+03  0.00000000000E+00 0.  1.
         -3    1    6    6    0  502 -0.39987562814E+03  0.15677148589E+03 -0.63092798156E+03  0.76324827853E+03  0.00000000000E+00 0.  1.
<mgrwt>
<rscale>  0 0.23272536E+04</rscale>
<asrwt>0</asrwt>
<pdfrwt beam="1">  1        1 0.21292532E+00 0.23272536E+04</pdfrwt>
<pdfrwt beam="2">  1       -1 0.15051280E+00 0.23272536E+04</pdfrwt>
<totfact> 0.24580736E+00</totfact>
</mgrwt>
</event>
<event>
12    1  0.1536832E-007  0.1601239E+04  0.7818608E-02  0.8819787E-01
         -2   -1    0    0    0  501 -0.00000000000E+00  0.00000000000E+00  0.43480270865E+03  0.43480270865E+03  0.00000000000E+00 0.  1.
          2   -1    0    0  501    0  0.00000000000E+00 -0.00000000000E+00 -0.14742131160E+04  0.14742131160E+04  0.00000000000E+00 0. -1.
         23    2    1    2    0    0 -0.99513486610E+02  0.22029477961E+03 -0.93529750185E+03  0.97017473001E+03  0.89581615515E+02 0.  0.
        254    2    1    2    0    0  0.99513486610E+02 -0.22029477961E+03 -0.10411290547E+03  0.93884109461E+03  0.90119386367E+03 0.  0.
        -24    2    4    4    0    0  0.46005421005E+03 -0.23459077594E+03  0.75303457479E+02  0.52804221027E+03  0.80468980206E+02 0.  0.
         24    2    4    4    0    0 -0.36054072344E+03  0.14295996337E+02 -0.17941636295E+03  0.41079888434E+03  0.79821696980E+02 0.  0.
         13    1    3    3    0    0 -0.59740608121E+02  0.40120552423E+02 -0.30862021999E+03  0.31689909935E+03  0.00000000000E+00 0.  1.
        -13    1    3    3    0    0 -0.39772878489E+02  0.18017422718E+03 -0.62667728186E+03  0.65327563065E+03  0.00000000000E+00 0. -1.
          4    1    6    6  502    0 -0.25191275751E+02 -0.64557929517E+01  0.64932601875E+01  0.26803732286E+02  0.00000000000E+00 0. -1.
          1    1    5    5  503    0  0.10027151454E+03 -0.21726089069E+02  0.33458720826E+02  0.10791610433E+03  0.00000000000E+00 0. -1.
         -2    1    5    5    0  503  0.35978269551E+03 -0.21286468687E+03  0.41844736652E+02  0.42012610594E+03  0.00000000000E+00 0.  1.
         -3    1    6    6    0  502 -0.33534944769E+03  0.20751789288E+02 -0.18590962314E+03  0.38399515206E+03  0.00000000000E+00 0.  1.
<mgrwt>
<rscale>  0 0.16012393E+04</rscale>
<asrwt>0</asrwt>
<pdfrwt beam="1">  1        2 0.22680202E+00 0.16012393E+04</pdfrwt>
<pdfrwt beam="2">  1       -2 0.66892723E-01 0.16012393E+04</pdfrwt>
<totfact> 0.25827048E+01</totfact>
</mgrwt>
</event>
<event>
12    1  0.2185104E-007  0.1513571E+04  0.7818608E-02  0.8875478E-01
          1   -1    0    0  501    0  0.00000000000E+00  0.00000000000E+00  0.90911103309E+03  0.90911103309E+03  0.00000000000E+00 0. -1.
         -1   -1    0    0    0  501 -0.00000000000E+00 -0.00000000000E+00 -0.62998317974E+03  0.62998317974E+03  0.00000000000E+00 0.  1.
         23    2    1    2    0    0 -0.12587884180E+03  0.18342714233E+03 -0.34333352478E+03  0.41919834246E+03  0.91423966918E+02 0.  0.
        254    2    1    2    0    0  0.12587884180E+03 -0.18342714233E+03  0.62246137814E+03  0.11198958704E+04  0.90400088154E+03 0.  0.
        -24    2    4    4    0    0 -0.23446096187E+03 -0.32390659884E+03  0.31606510170E+02  0.40911614806E+03  0.80558200729E+02 0.  0.
         24    2    4    4    0    0  0.36033980367E+03  0.14047945651E+03  0.59085486797E+03  0.71077972230E+03  0.80740862182E+02 0.  0.
         11    1    3    3    0    0 -0.22765124257E+02  0.11578114887E+02 -0.10373682455E+03  0.10683460299E+03  0.00000000000E+00 0.  1.
        -11    1    3    3    0    0 -0.10311371754E+03  0.17184902744E+03 -0.23959670023E+03  0.31236373947E+03  0.00000000000E+00 0. -1.
          2    1    6    6  502    0  0.10960188130E+00  0.75429908295E+01  0.20167400513E+01  0.78087107554E+01  0.00000000000E+00 0. -1.
          1    1    5    5  503    0 -0.58131141609E+02 -0.56196273281E+02  0.36039896038E+02  0.88521889168E+02  0.00000000000E+00 0. -1.
         -2    1    5    5    0  503 -0.17632982027E+03 -0.26771032556E+03 -0.44333858678E+01  0.32059425889E+03  0.00000000000E+00 0.  1.
         -1    1    6    6    0  502  0.36023020179E+03  0.13293646568E+03  0.58883812792E+03  0.70297101155E+03  0.00000000000E+00 0.  1.
<mgrwt>
<rscale>  0 0.15135715E+04</rscale>
<asrwt>0</asrwt>
<pdfrwt beam="1">  1        1 0.13986324E+00 0.15135715E+04</pdfrwt>
<pdfrwt beam="2">  1       -1 0.96920489E-01 0.15135715E+04</pdfrwt>
<totfact> 0.17694667E+01</totfact>
</mgrwt>
</event>
<event>
12    1  0.1536832E-007  0.2406745E+04  0.7818608E-02  0.8436983E-01
          1   -1    0    0  501    0  0.00000000000E+00  0.00000000000E+00  0.98578917708E+03  0.98578917708E+03  0.00000000000E+00 0. -1.
         -1   -1    0    0    0  501 -0.00000000000E+00 -0.00000000000E+00 -0.14689808813E+04  0.14689808813E+04  0.00000000000E+00 0.  1.
         23    2    1    2    0    0  0.72103395168E+03  0.18515037891E+02 -0.95205343438E+03  0.11979368549E+04  0.91728950367E+02 0.  0.
        254    2    1    2    0    0 -0.72103395168E+03 -0.18515037891E+02  0.46886173016E+03  0.12568332035E+04  0.91627813093E+03 0.  0.
        -24    2    4    4    0    0 -0.19274536652E+02 -0.36699316350E+03  0.19185669651E+03  0.42171096980E+03  0.77302394734E+02 0.  0.
         24    2    4    4    0    0 -0.70175941503E+03  0.34847812561E+03  0.27700503365E+03  0.83512223367E+03  0.82426184435E+02 0.  0.
         13    1    3    3    0    0  0.68877053660E+03  0.10420575621E+02 -0.93253987445E+03  0.11593722689E+04  0.00000000000E+00 0.  1.
        -13    1    3    3    0    0  0.32263415081E+02  0.80944622705E+01 -0.19513559931E+02  0.38564586000E+02  0.00000000000E+00 0. -1.
          2    1    6    6  502    0 -0.53456838592E+02  0.19485919106E+02 -0.65595339351E+00  0.56901361236E+02  0.00000000000E+00 0. -1.
          3    1    5    5  503    0 -0.32137748407E+02 -0.78775422542E+02  0.62310176146E+02  0.10545596295E+03  0.00000000000E+00 0. -1.
         -4    1    5    5    0  503  0.12863211755E+02 -0.28821774096E+03  0.12954652036E+03  0.31625500685E+03  0.00000000000E+00 0.  1.
         -1    1    6    6    0  502 -0.64830257644E+03  0.32899220651E+03  0.27766098704E+03  0.77822087243E+03  0.00000000000E+00 0.  1.
<mgrwt>
<rscale>  0 0.24067451E+04</rscale>
<asrwt>0</asrwt>
<pdfrwt beam="1">  1        1 0.15165987E+00 0.24067451E+04</pdfrwt>
<pdfrwt beam="2">  1       -1 0.22599706E+00 0.24067451E+04</pdfrwt>
<totfact> 0.13952523E+00</totfact>
</mgrwt>
</event>
<event>
12    1  0.1536832E-007  0.1631101E+04  0.7818608E-02  0.8801666E-01
         -2   -1    0    0    0  501 -0.00000000000E+00  0.00000000000E+00  0.11129118176E+04  0.11129118176E+04  0.00000000000E+00 0.  1.
          2   -1    0    0  501    0  0.00000000000E+00 -0.00000000000E+00 -0.59764213260E+03  0.59764213260E+03  0.00000000000E+00 0. -1.
         23    2    1    2    0    0 -0.48792683869E+03 -0.13507648981E+03 -0.38403089907E+02  0.51588975551E+03  0.91373872156E+02 0.  0.
        254    2    1    2    0    0  0.48792683869E+03  0.13507648981E+03  0.55367277494E+03  0.11946641947E+04  0.92970465119E+03 0.  0.
        -24    2    4    4    0    0  0.10118186296E+03 -0.14318068446E+03 -0.21412543737E+03  0.28778044503E+03  0.78926572289E+02 0.  0.
         24    2    4    4    0    0  0.38674497573E+03  0.27825717427E+03  0.76779821231E+03  0.90688374971E+03  0.76976031114E+02 0.  0.
         13    1    3    3    0    0 -0.48133251293E+03 -0.12499927095E+03 -0.49185714488E+02  0.49972496461E+03  0.00000000000E+00 0. -1.
        -13    1    3    3    0    0 -0.65943257596E+01 -0.10077218853E+02  0.10782624581E+02  0.16164790902E+02  0.00000000000E+00 0.  1.
          2    1    6    6  502    0  0.35197789960E+03  0.24472583821E+03  0.64047011711E+03  0.77070172480E+03  0.00000000000E+00 0. -1.
          1    1    5    5  503    0  0.46581091436E+02 -0.11185344862E+03 -0.17762132280E+03  0.21501238653E+03  0.00000000000E+00 0. -1.
         -2    1    5    5    0  503  0.54600771522E+02 -0.31327235848E+02 -0.36504114570E+02  0.72768058496E+02  0.00000000000E+00 0.  1.
         -1    1    6    6    0  502  0.34767076132E+02  0.33531336059E+02  0.12732809520E+03  0.13618202491E+03  0.00000000000E+00 0.  1.
<mgrwt>
<rscale>  0 0.16311015E+04</rscale>
<asrwt>0</asrwt>
<pdfrwt beam="1">  1        2 0.91944944E-01 0.16311015E+04</pdfrwt>
<pdfrwt beam="2">  1       -2 0.17121720E+00 0.16311015E+04</pdfrwt>
<totfact> 0.99513942E+00</totfact>
</mgrwt>
</event>
<event>
12    1  0.1536832E-007  0.1039697E+04  0.7818608E-02  0.9266046E-01
          1   -1    0    0  501    0  0.00000000000E+00  0.00000000000E+00  0.31861087804E+03  0.31861087804E+03  0.00000000000E+00 0. -1.
         -1   -1    0    0    0  501 -0.00000000000E+00 -0.00000000000E+00 -0.84818974000E+03  0.84818974000E+03  0.00000000000E+00 0.  1.
         23    2    1    2    0    0 -0.34017528988E+02 -0.30782387849E+00  0.32057601463E+02  0.10210970649E+03  0.90782241180E+02 0.  0.
        254    2    1    2    0    0  0.34017528988E+02  0.30782387849E+00 -0.56163646342E+03  0.10646909116E+04  0.90386610351E+03 0.  0.
        -24    2    4    4    0    0 -0.23288469206E+03  0.73844451540E+02  0.14981071208E+03  0.29705133579E+03  0.78153463287E+02 0.  0.
         24    2    4    4    0    0  0.26690222105E+03 -0.73536627661E+02 -0.71144717551E+03  0.76763957576E+03  0.80430115823E+02 0.  0.
         11    1    3    3    0    0 -0.12393925728E+02  0.31003963951E+02 -0.19011455012E+02  0.38422527212E+02  0.00000000000E+00 0.  1.
        -11    1    3    3    0    0 -0.21623603260E+02 -0.31311787830E+02  0.51069056475E+02  0.63687179277E+02  0.00000000000E+00 0. -1.
          2    1    6    6  502    0  0.12124962621E+03 -0.70853849282E+02 -0.30217104659E+03  0.33321026576E+03  0.00000000000E+00 0. -1.
          1    1    5    5  503    0 -0.21145801530E+03  0.72830489941E+02  0.15827764876E+03  0.27399012135E+03  0.00000000000E+00 0. -1.
         -2    1    5    5    0  503 -0.21426676760E+02  0.10139615985E+01 -0.84669366759E+01  0.23061214447E+02  0.00000000000E+00 0.  1.
         -1    1    6    6    0  502  0.14565259484E+03 -0.26827783788E+01 -0.40927612892E+03  0.43442931000E+03  0.00000000000E+00 0.  1.
<mgrwt>
<rscale>  0 0.10396970E+04</rscale>
<asrwt>0</asrwt>
<pdfrwt beam="1">  1        1 0.49017058E-01 0.10396970E+04</pdfrwt>
<pdfrwt beam="2">  1       -1 0.13049073E+00 0.10396970E+04</pdfrwt>
<totfact> 0.40727898E+01</totfact>
</mgrwt>
</event>
<event>
12    1  0.1536832E-007  0.2063075E+04  0.7818608E-02  0.8577686E-01
          1   -1    0    0  501    0  0.00000000000E+00  0.00000000000E+00  0.21778425856E+04  0.21778425856E+04  0.00000000000E+00 0. -1.
         -1   -1    0    0    0  501 -0.00000000000E+00 -0.00000000000E+00 -0.48858889083E+03  0.48858889083E+03  0.00000000000E+00 0.  1.
         23    2    1    2    0    0  0.35136135715E+03  0.67652761065E+03  0.26457462936E+03  0.81209837314E+03  0.91430967842E+02 0.  0.
        254    2    1    2    0    0 -0.35136135715E+03 -0.67652761065E+03  0.14246790654E+04  0.18543331033E+04  0.90977821874E+03 0.  0.
        -24    2    4    4    0    0 -0.29373521474E+03 -0.62557784845E+03  0.35874451737E+03  0.78268571214E+03  0.79191378342E+02 0.  0.
         24    2    4    4    0    0 -0.57626142414E+02 -0.50949762204E+02  0.10659345481E+04  0.10716473912E+04  0.79341160089E+02 0.  0.
         13    1    3    3    0    0  0.33920511804E+03  0.63519299894E+03  0.22725984189E+03  0.75510085005E+03  0.00000000000E+00 0.  1.
        -13    1    3    3    0    0  0.12156239116E+02  0.41334611709E+02  0.37314787470E+02  0.56997523091E+02  0.00000000000E+00 0. -1.
          2    1    6    6  502    0  0.18053778177E+01 -0.32406594968E+02  0.14396989007E+03  0.14758311568E+03  0.00000000000E+00 0. -1.
          1    1    5    5  503    0 -0.96177129084E+02 -0.13314921349E+03  0.10093693348E+03  0.19278749376E+03  0.00000000000E+00 0. -1.
         -2    1    5    5    0  503 -0.19755808566E+03 -0.49242863496E+03  0.25780758389E+03  0.58989821838E+03  0.00000000000E+00 0.  1.
         -1    1    6    6    0  502 -0.59431520231E+02 -0.18543167236E+02  0.92196465800E+03  0.92406427549E+03  0.00000000000E+00 0.  1.
<mgrwt>
<rscale>  0 0.20630751E+04</rscale>
<asrwt>0</asrwt>
<pdfrwt beam="1">  1        1 0.33505270E+00 0.20630751E+04</pdfrwt>
<pdfrwt beam="2">  1       -1 0.75167523E-01 0.20630751E+04</pdfrwt>
<totfact> 0.37034071E+00</totfact>
</mgrwt>
</event>
<event>
12    1  0.1536832E-007  0.1331285E+04  0.7818608E-02  0.9005118E-01
         -1   -1    0    0    0  501 -0.00000000000E+00  0.00000000000E+00  0.72692247044E+03  0.72692247044E+03  0.00000000000E+00 0.  1.
          1   -1    0    0  501    0  0.00000000000E+00 -0.00000000000E+00 -0.60952816112E+03  0.60952816112E+03  0.00000000000E+00 0. -1.
         23    2    1    2    0    0 -0.29911375718E+03  0.12560152381E+03  0.10564031334E+03  0.35135516502E+03  0.83939226027E+02 0.  0.
        254    2    1    2    0    0  0.29911375718E+03 -0.12560152381E+03  0.11753995991E+02  0.98509546654E+03  0.93006996471E+03 0.  0.
        -24    2    4    4    0    0 -0.38473403258E+01 -0.15261178691E+03  0.42919427429E+03  0.46253795673E+03  0.80177782463E+02 0.  0.
         24    2    4    4    0    0  0.30296109751E+03  0.27010263098E+02 -0.41744027830E+03  0.52255750981E+03  0.79340936453E+02 0.  0.
         11    1    3    3    0    0 -0.20672262221E+03  0.83299814538E+02  0.30446888394E+02  0.22494469242E+03  0.00000000000E+00 0. -1.
        -11    1    3    3    0    0 -0.92391134979E+02  0.42301709277E+02  0.75193424942E+02  0.12641047261E+03  0.00000000000E+00 0.  1.
          4    1    6    6  502    0  0.10149425093E+03 -0.20264534716E+02 -0.10212467925E+03  0.14540008409E+03  0.00000000000E+00 0. -1.
          3    1    5    5  503    0 -0.38927618538E+02 -0.53288882277E+02  0.19140500208E+03  0.20246219222E+03  0.00000000000E+00 0. -1.
         -4    1    5    5    0  503  0.35080278212E+02 -0.99322904637E+02  0.23778927221E+03  0.26007576450E+03  0.00000000000E+00 0.  1.
         -3    1    6    6    0  502  0.20146684657E+03  0.47274797815E+02 -0.31531559904E+03  0.37715742572E+03  0.00000000000E+00 0.  1.
<mgrwt>
<rscale>  0 0.13312847E+04</rscale>
<asrwt>0</asrwt>
<pdfrwt beam="1">  1        1 0.93773563E-01 0.13312847E+04</pdfrwt>
<pdfrwt beam="2">  1       -1 0.11183423E+00 0.13312847E+04</pdfrwt>
<totfact> 0.24088010E+01</totfact>
</mgrwt>
</event>
<event>
12    1  0.1536832E-007  0.2398729E+04  0.7818608E-02  0.8439980E-01
          1   -1    0    0  501    0  0.00000000000E+00  0.00000000000E+00  0.16968509235E+04  0.16968509235E+04  0.00000000000E+00 0. -1.
         -1   -1    0    0    0  501 -0.00000000000E+00 -0.00000000000E+00 -0.84773193873E+03  0.84773193873E+03  0.00000000000E+00 0.  1.
         23    2    1    2    0    0  0.11155106508E+03 -0.94102236012E+02  0.14377607118E+04  0.14478955739E+04  0.89145149574E+02 0.  0.
        254    2    1    2    0    0 -0.11155106508E+03  0.94102236012E+02 -0.58864172704E+03  0.10966872883E+04  0.91374233486E+03 0.  0.
        -24    2    4    4    0    0 -0.50994117058E+02 -0.23708151991E+03 -0.68900253212E+03  0.73493112408E+03  0.81186333912E+02 0.  0.
         24    2    4    4    0    0 -0.60556948018E+02  0.33118375592E+03  0.10036080508E+03  0.36175616420E+03  0.86286771849E+02 0.  0.
         11    1    3    3    0    0  0.79142616218E+02 -0.95462375194E+02  0.13179797651E+04  0.13238003173E+04  0.00000000000E+00 0. -1.
        -11    1    3    3    0    0  0.32408448858E+02  0.13601391815E+01  0.11978094665E+03  0.12409525662E+03  0.00000000000E+00 0.  1.
          4    1    6    6  502    0 -0.27344342499E+02  0.17881069742E+03  0.98123905362E+02  0.20578940541E+03  0.00000000000E+00 0. -1.
          3    1    5    5  503    0 -0.34963692190E+02 -0.26462031191E+02 -0.99719123614E+02  0.10893393631E+03  0.00000000000E+00 0. -1.
         -4    1    5    5    0  503 -0.16030424868E+02 -0.21061948872E+03 -0.58928340851E+03  0.62599718777E+03  0.00000000000E+00 0.  1.
         -3    1    6    6    0  502 -0.33212605519E+02  0.15237305851E+03  0.22368997160E+01  0.15596675878E+03  0.00000000000E+00 0.  1.
<mgrwt>
<rscale>  0 0.23987286E+04</rscale>
<asrwt>0</asrwt>
<pdfrwt beam="1">  1        1 0.26105399E+00 0.23987286E+04</pdfrwt>
<pdfrwt beam="2">  1       -1 0.13042030E+00 0.23987286E+04</pdfrwt>
<totfact> 0.21591375E+00</totfact>
</mgrwt>
</event>
<event>
12    1  0.1536832E-007  0.1196290E+04  0.7818608E-02  0.9116110E-01
         -2   -1    0    0    0  501 -0.00000000000E+00  0.00000000000E+00  0.69484807188E+03  0.69484807188E+03  0.00000000000E+00 0.  1.
          2   -1    0    0  501    0  0.00000000000E+00 -0.00000000000E+00 -0.51489988878E+03  0.51489988878E+03  0.00000000000E+00 0. -1.
         23    2    1    2    0    0 -0.11273661411E+02  0.25118356068E+03 -0.58943666086E+01  0.26762518497E+03  0.91477972624E+02 0.  0.
        254    2    1    2    0    0  0.11273661411E+02 -0.25118356068E+03  0.18584254971E+03  0.94212277568E+03  0.88872807685E+03 0.  0.
        -24    2    4    4    0    0 -0.12160941600E+03 -0.52962293232E+03  0.27105037288E+03  0.61201300624E+03  0.76172926134E+02 0.  0.
         24    2    4    4    0    0  0.13288307741E+03  0.27843937164E+03 -0.85207823171E+02  0.33010976944E+03  0.80781748015E+02 0.  0.
         13    1    3    3    0    0 -0.35741703785E+02  0.70184619647E+02  0.24465791702E+02  0.82473784853E+02  0.00000000000E+00 0.  1.
        -13    1    3    3    0    0  0.24468042375E+02  0.18099894103E+03 -0.30360158311E+02  0.18515140012E+03  0.00000000000E+00 0. -1.
          2    1    6    6  502    0  0.52330211370E+02  0.71745030253E+02  0.86762493725E+01  0.89224871484E+02  0.00000000000E+00 0. -1.
          3    1    5    5  503    0 -0.54496152511E+02 -0.31727448085E+03  0.19655138267E+03  0.37718082251E+03  0.00000000000E+00 0. -1.
         -4    1    5    5    0  503 -0.67113263485E+02 -0.21234845146E+03  0.74498990214E+02  0.23483218373E+03  0.00000000000E+00 0.  1.
         -1    1    6    6    0  502  0.80552866036E+02  0.20669434138E+03 -0.93884072544E+02  0.24088489796E+03  0.00000000000E+00 0.  1.
<mgrwt>
<rscale>  0 0.11962896E+04</rscale>
<asrwt>0</asrwt>
<pdfrwt beam="1">  1        2 0.79215367E-01 0.11962896E+04</pdfrwt>
<pdfrwt beam="2">  1       -2 0.10689970E+00 0.11962896E+04</pdfrwt>
<totfact> 0.41349665E+01</totfact>
</mgrwt>
</event>
<event>
12    1  0.1536832E-007  0.4257098E+04  0.7818608E-02  0.7954599E-01
          1   -1    0    0  501    0  0.00000000000E+00  0.00000000000E+00  0.18126229950E+04  0.18126229950E+04  0.00000000000E+00 0.  1.
         -1   -1    0    0    0  501 -0.00000000000E+00 -0.00000000000E+00 -0.24995383127E+04  0.24995383127E+04  0.00000000000E+00 0. -1.
         23    2    1    2    0    0  0.24894419898E+03 -0.19591411722E+04 -0.81885318399E+03  0.21399043002E+04  0.91992012683E+02 0.  0.
        254    2    1    2    0    0 -0.24894419898E+03  0.19591411722E+04  0.13193786638E+03  0.21722570075E+04  0.89503383139E+03 0.  0.
        -24    2    4    4    0    0 -0.48337834562E+03  0.60319822028E+03  0.15973061251E+03  0.79357093013E+03  0.82086750505E+02 0.  0.
         24    2    4    4    0    0  0.23443414664E+03  0.13559429519E+04 -0.27792746131E+02  0.13786860774E+04  0.80387842952E+02 0.  0.
         11    1    3    3    0    0 -0.19731418072E+01 -0.98054871386E+02 -0.25950503362E+02  0.10144988771E+03  0.00000000000E+00 0.  1.
        -11    1    3    3    0    0  0.25091734079E+03 -0.18610863008E+04 -0.79290268063E+03  0.20384544125E+04  0.00000000000E+00 0. -1.
          4    1    6    6  502    0  0.17835286728E+03  0.11126029273E+04  0.50355914253E+01  0.11268186971E+04  0.00000000000E+00 0. -1.
          3    1    5    5  503    0 -0.22765576966E+03  0.24765456682E+03  0.10388896826E+03  0.35206938472E+03  0.00000000000E+00 0. -1.
         -4    1    5    5    0  503 -0.25572257596E+03  0.35554365345E+03  0.55841644250E+02  0.44150154541E+03  0.00000000000E+00 0.  1.
         -3    1    6    6    0  502  0.56081279361E+02  0.24334002463E+03 -0.32828337557E+02  0.25186738023E+03  0.00000000000E+00 0.  1.
<mgrwt>
<rscale>  0 0.42570979E+04</rscale>
<asrwt>0</asrwt>
<pdfrwt beam="1">  1        1 0.27886508E+00 0.42570979E+04</pdfrwt>
<pdfrwt beam="2">  1       -1 0.38454435E+00 0.42570979E+04</pdfrwt>
<totfact> 0.27891791E-02</totfact>
</mgrwt>
</event>
<event>
12    1  0.1536832E-007  0.2412817E+04  0.7818608E-02  0.8434721E-01
         -2   -1    0    0    0  501 -0.00000000000E+00  0.00000000000E+00  0.10406726501E+04  0.10406726501E+04  0.00000000000E+00 0.  1.
          2   -1    0    0  501    0  0.00000000000E+00 -0.00000000000E+00 -0.13985389824E+04  0.13985389824E+04  0.00000000000E+00 0. -1.
         23    2    1    2    0    0  0.93383739530E+03 -0.44597216956E+03 -0.10247565453E+03  0.10437849979E+04  0.89679457944E+02 0.  0.
        254    2    1    2    0    0 -0.93383739530E+03  0.44597216956E+03 -0.25539067776E+03  0.13954266346E+04  0.90058183271E+03 0.  0.
        -24    2    4    4    0    0  0.77011218987E+02 -0.84614814942E+02 -0.20771661657E+03  0.25002516797E+03  0.79221190742E+02 0.  0.
         24    2    4    4    0    0 -0.10108486143E+04  0.53058698450E+03 -0.47674061191E+02  0.11454014666E+04  0.79587904488E+02 0.  0.
         13    1    3    3    0    0  0.71766162815E+03 -0.34617382803E+03 -0.40837586286E+02  0.79783597323E+03  0.00000000000E+00 0.  1.
        -13    1    3    3    0    0  0.21617576715E+03 -0.99798341535E+02 -0.61638068247E+02  0.24594902466E+03  0.00000000000E+00 0. -1.
          2    1    6    6  502    0 -0.59217220034E+03  0.26730112252E+03 -0.18750858516E+02  0.64997646085E+03  0.00000000000E+00 0. -1.
          3    1    5    5  503    0  0.66380827070E+02 -0.14185940041E+02 -0.10493348760E+03  0.12497476512E+03  0.00000000000E+00 0. -1.
         -4    1    5    5    0  503  0.10630391917E+02 -0.70428874901E+02 -0.10278312897E+03  0.12505040285E+03  0.00000000000E+00 0.  1.
         -1    1    6    6    0  502 -0.41867641394E+03  0.26328586198E+03 -0.28923202675E+02  0.49542500579E+03  0.00000000000E+00 0.  1.
<mgrwt>
<rscale>  0 0.24128168E+04</rscale>
<asrwt>0</asrwt>
<pdfrwt beam="1">  1        2 0.21515984E+00 0.24128168E+04</pdfrwt>
<pdfrwt beam="2">  1       -2 0.16010349E+00 0.24128168E+04</pdfrwt>
<totfact> 0.32752943E+00</totfact>
</mgrwt>
</event>
<event>
12    1  0.1536832E-007  0.1361791E+04  0.7818608E-02  0.8981950E-01
         -1   -1    0    0    0  501 -0.00000000000E+00  0.00000000000E+00  0.42470711576E+03  0.42470711576E+03  0.00000000000E+00 0.  1.
          1   -1    0    0  501    0  0.00000000000E+00 -0.00000000000E+00 -0.10916197496E+04  0.10916197496E+04  0.00000000000E+00 0. -1.
         23    2    1    2    0    0  0.22179079004E+03  0.21950490731E+03  0.64022940574E+01  0.32514925754E+03  0.91145441068E+02 0.  0.
        254    2    1    2    0    0 -0.22179079004E+03 -0.21950490731E+03 -0.67331492794E+03  0.11911776079E+04  0.93176045334E+03 0.  0.
        -24    2    4    4    0    0  0.10939311131E+03  0.73290331427E+02 -0.72349268016E+03  0.73962969242E+03  0.79196579399E+02 0.  0.
         24    2    4    4    0    0 -0.33118390136E+03 -0.29279523873E+03  0.50177752218E+02  0.45154791544E+03  0.77239140219E+02 0.  0.
         11    1    3    3    0    0  0.25973981362E+02  0.48220882861E+02  0.32495300618E+02  0.63685522797E+02  0.00000000000E+00 0. -1.
        -11    1    3    3    0    0  0.19581680868E+03  0.17128402444E+03 -0.26093006560E+02  0.26146373474E+03  0.00000000000E+00 0.  1.
          4    1    6    6  502    0 -0.22262321952E+03 -0.16857219251E+03  0.62361680582E+02  0.28612350683E+03  0.00000000000E+00 0. -1.
          3    1    5    5  503    0  0.70530204850E+02  0.81111885458E+02 -0.41900768351E+03  0.43257494911E+03  0.00000000000E+00 0. -1.
         -4    1    5    5    0  503  0.38862906463E+02 -0.78215540313E+01 -0.30448499665E+03  0.30705474331E+03  0.00000000000E+00 0.  1.
         -3    1    6    6    0  502 -0.10856068183E+03 -0.12422304623E+03 -0.12183928365E+02  0.16542440861E+03  0.00000000000E+00 0.  1.
<mgrwt>
<rscale>  0 0.13617910E+04</rscale>
<asrwt>0</asrwt>
<pdfrwt beam="1">  1        1 0.16794149E+00 0.13617910E+04</pdfrwt>
<pdfrwt beam="2">  1       -1 0.65339558E-01 0.13617910E+04</pdfrwt>
<totfact> 0.29876337E+01</totfact>
</mgrwt>
</event>
<event>
12    1  0.1536832E-007  0.1741975E+04  0.7818608E-02  0.8737780E-01
         -3   -1    0    0    0  501 -0.00000000000E+00  0.00000000000E+00  0.78427460644E+03  0.78427460644E+03  0.00000000000E+00 0.  1.
          3   -1    0    0  501    0  0.00000000000E+00 -0.00000000000E+00 -0.96728744359E+03  0.96728744359E+03  0.00000000000E+00 0. -1.
         23    2    1    2    0    0 -0.22301059859E+03 -0.91429038110E+02 -0.65636244656E+03  0.70542521863E+03  0.93381377917E+02 0.  0.
        254    2    1    2    0    0  0.22301059859E+03  0.91429038110E+02  0.47334960941E+03  0.10461368314E+04  0.90124881202E+03 0.  0.
        -24    2    4    4    0    0  0.10229950050E+03  0.39352127665E+03  0.56353347635E+03  0.69942530124E+03  0.79382555217E+02 0.  0.
         24    2    4    4    0    0  0.12071109809E+03 -0.30209223854E+03 -0.90183866941E+02  0.34671153015E+03  0.79024461365E+02 0.  0.
         13    1    3    3    0    0 -0.19139285863E+03 -0.43221805586E+02 -0.44492473285E+03  0.48626882351E+03  0.00000000000E+00 0.  1.
        -13    1    3    3    0    0 -0.31617739960E+02 -0.48207232524E+02 -0.21143771371E+03  0.21915639513E+03  0.00000000000E+00 0. -1.
          4    1    6    6  502    0  0.38605154548E+02 -0.59224913180E+02  0.10121385385E+02  0.71417019967E+02  0.00000000000E+00 0. -1.
          1    1    5    5  503    0  0.41137510803E+02  0.16022626493E+03  0.16532098139E+03  0.23387128437E+03  0.00000000000E+00 0. -1.
         -2    1    5    5    0  503  0.61161989698E+02  0.23329501172E+03  0.39821249496E+03  0.46555401687E+03  0.00000000000E+00 0.  1.
         -3    1    6    6    0  502  0.82105943539E+02 -0.24286732536E+03 -0.10030525233E+03  0.27529451018E+03  0.00000000000E+00 0.  1.
<mgrwt>
<rscale>  0 0.17419747E+04</rscale>
<asrwt>0</asrwt>
<pdfrwt beam="1">  1        3 0.14881345E+00 0.17419747E+04</pdfrwt>
<pdfrwt beam="2">  1       -3 0.12065763E+00 0.17419747E+04</pdfrwt>
<totfact> 0.45723487E-01</totfact>
</mgrwt>
</event>
<event>
12    1  0.1536832E-007  0.2201633E+04  0.7818608E-02  0.8517749E-01
         -3   -1    0    0    0  501 -0.00000000000E+00  0.00000000000E+00  0.49980269282E+03  0.49980269282E+03  0.00000000000E+00 0.  1.
          3   -1    0    0  501    0  0.00000000000E+00 -0.00000000000E+00 -0.24245508843E+04  0.24245508843E+04  0.00000000000E+00 0. -1.
         23    2    1    2    0    0 -0.56375177645E+03 -0.62847570775E+03 -0.11439423228E+04  0.14245987166E+04  0.89887065756E+02 0.  0.
        254    2    1    2    0    0  0.56375177645E+03  0.62847570775E+03 -0.78080586864E+03  0.14997548605E+04  0.96270922740E+03 0.  0.
        -24    2    4    4    0    0  0.58044466434E+01 -0.19666745979E+03 -0.35432308544E+03  0.41326086304E+03  0.80795486925E+02 0.  0.
         24    2    4    4    0    0  0.55794732981E+03  0.82514316754E+03 -0.42648278320E+03  0.10864939975E+04  0.80094771687E+02 0.  0.
         13    1    3    3    0    0 -0.20428095529E+03 -0.25662449826E+03 -0.37909598691E+03  0.50129892190E+03  0.00000000000E+00 0.  1.
        -13    1    3    3    0    0 -0.35947082116E+03 -0.37185120949E+03 -0.76484633594E+03  0.92329979468E+03  0.00000000000E+00 0. -1.
          4    1    6    6  502    0  0.37197965205E+03  0.54016125222E+03 -0.32123425004E+03  0.73029753070E+03  0.00000000000E+00 0. -1.
          1    1    5    5  503    0 -0.23839200532E+02 -0.77868457431E+02 -0.86645153364E+02  0.11890831235E+03  0.00000000000E+00 0. -1.
         -2    1    5    5    0  503  0.29643647175E+02 -0.11879900236E+03 -0.26767793207E+03  0.29435255069E+03  0.00000000000E+00 0.  1.
         -3    1    6    6    0  502  0.18596767776E+03  0.28498191532E+03 -0.10524853316E+03  0.35619646680E+03  0.00000000000E+00 0.  1.
<mgrwt>
<rscale>  0 0.22016331E+04</rscale>
<asrwt>0</asrwt>
<pdfrwt beam="1">  1        3 0.37300784E+00 0.22016331E+04</pdfrwt>
<pdfrwt beam="2">  1       -3 0.76892719E-01 0.22016331E+04</pdfrwt>
<totfact> 0.58816500E-02</totfact>
</mgrwt>
</event>
<event>
12    1  0.1536832E-007  0.2438264E+04  0.7818608E-02  0.8425315E-01
         -2   -1    0    0    0  501 -0.00000000000E+00  0.00000000000E+00  0.11984799172E+04  0.11984799172E+04  0.00000000000E+00 0.  1.
          2   -1    0    0  501    0  0.00000000000E+00 -0.00000000000E+00 -0.12401400548E+04  0.12401400548E+04  0.00000000000E+00 0. -1.
         23    2    1    2    0    0  0.56042322618E+03 -0.19814057335E+03  0.84794413557E+03  0.10393890387E+04  0.89366869918E+02 0.  0.
        254    2    1    2    0    0 -0.56042322618E+03  0.19814057335E+03 -0.88960427317E+03  0.13992309333E+04  0.90173031583E+03 0.  0.
        -24    2    4    4    0    0 -0.53271068865E+03 -0.11397980767E+03 -0.11939898399E+03  0.56329870218E+03  0.79229010708E+02 0.  0.
         24    2    4    4    0    0 -0.27712537531E+02  0.31212038103E+03 -0.77020528918E+03  0.83593223108E+03  0.85903378784E+02 0.  0.
         11    1    3    3    0    0  0.29877496866E+03 -0.63322453739E+02  0.39698215978E+03  0.50087029282E+03  0.00000000000E+00 0. -1.
        -11    1    3    3    0    0  0.26164825752E+03 -0.13481811961E+03  0.45096197579E+03  0.53851874586E+03  0.00000000000E+00 0.  1.
          2    1    6    6  502    0 -0.33411450172E+02  0.39250429482E+02 -0.13888550576E+03  0.14814217808E+03  0.00000000000E+00 0. -1.
          3    1    5    5  503    0 -0.69382893414E+02 -0.23132465640E+02  0.97983537085E+01  0.73790952023E+02  0.00000000000E+00 0. -1.
         -2    1    5    5    0  503 -0.46332779523E+03 -0.90847342033E+02 -0.12919733770E+03  0.48950775015E+03  0.00000000000E+00 0.  1.
         -1    1    6    6    0  502  0.56989126412E+01  0.27286995154E+03 -0.63131978342E+03  0.68779005300E+03  0.00000000000E+00 0.  1.
<mgrwt>
<rscale>  0 0.24382641E+04</rscale>
<asrwt>0</asrwt>
<pdfrwt beam="1">  1        2 0.19079078E+00 0.24382641E+04</pdfrwt>
<pdfrwt beam="2">  1       -2 0.18438153E+00 0.24382641E+04</pdfrwt>
<totfact> 0.27188620E+00</totfact>
</mgrwt>
</event>
<event>
12    1  0.1536832E-007  0.1125571E+04  0.7818608E-02  0.9180621E-01
          2   -1    0    0  501    0  0.00000000000E+00  0.00000000000E+00  0.13753948894E+04  0.13753948894E+04  0.00000000000E+00 0. -1.
         -2   -1    0    0    0  501 -0.00000000000E+00 -0.00000000000E+00 -0.23028104052E+03  0.23028104052E+03  0.00000000000E+00 0.  1.
         23    2    1    2    0    0 -0.13897402292E+03 -0.11670192013E+03  0.93574216199E+02  0.22263115452E+03  0.88743336751E+02 0.  0.
        254    2    1    2    0    0  0.13897402292E+03  0.11670192013E+03  0.10515396327E+04  0.13830447754E+04  0.87985460983E+03 0.  0.
        -24    2    4    4    0    0 -0.20582439498E+03  0.31876671734E+03  0.19462701600E+03  0.43417752501E+03  0.81575401998E+02 0.  0.
         24    2    4    4    0    0  0.34479841790E+03 -0.20206479721E+03  0.85691261669E+03  0.94886725039E+03  0.79584514605E+02 0.  0.
         11    1    3    3    0    0 -0.11853301131E+03 -0.50468225401E+02  0.39597968179E+02  0.13477802354E+03  0.00000000000E+00 0.  1.
        -11    1    3    3    0    0 -0.20441011609E+02 -0.66233694728E+02  0.53976248021E+02  0.87853130982E+02  0.00000000000E+00 0. -1.
          2    1    6    6  502    0  0.31982675644E+03 -0.20739630356E+03  0.78744637155E+03  0.87485665622E+03  0.00000000000E+00 0. -1.
          3    1    5    5  503    0 -0.20015100079E+03  0.25536349187E+03  0.16273445186E+03  0.36297856399E+03  0.00000000000E+00 0. -1.
         -4    1    5    5    0  503 -0.56733941909E+01  0.63403225477E+02  0.31892564142E+02  0.71198961018E+02  0.00000000000E+00 0.  1.
         -1    1    6    6    0  502  0.24971661463E+02  0.53315063430E+01  0.69466245144E+02  0.74010594178E+02  0.00000000000E+00 0.  1.
<mgrwt>
<rscale>  0 0.11255707E+04</rscale>
<asrwt>0</asrwt>
<pdfrwt beam="1">  1        2 0.21159921E+00 0.11255707E+04</pdfrwt>
<pdfrwt beam="2">  1       -2 0.35427853E-01 0.11255707E+04</pdfrwt>
<totfact> 0.11082310E+02</totfact>
</mgrwt>
</event>
<event>
12    1  0.1536832E-007  0.1366113E+04  0.7818608E-02  0.8978719E-01
          1   -1    0    0  501    0  0.00000000000E+00  0.00000000000E+00  0.13767664321E+04  0.13767664321E+04  0.00000000000E+00 0. -1.
         -1   -1    0    0    0  501 -0.00000000000E+00 -0.00000000000E+00 -0.33888559054E+03  0.33888559054E+03  0.00000000000E+00 0.  1.
         23    2    1    2    0    0 -0.24369034998E+03  0.26124013555E+03  0.45973940021E+03  0.58913416860E+03  0.89929735918E+02 0.  0.
        254    2    1    2    0    0  0.24369034998E+03 -0.26124013555E+03  0.57814144137E+03  0.11265178541E+04  0.89842281482E+03 0.  0.
        -24    2    4    4    0    0  0.22934094210E+03 -0.46097695974E+03  0.13494212738E+02  0.52118789158E+03  0.79735183054E+02 0.  0.
         24    2    4    4    0    0  0.14349407877E+02  0.19973682419E+03  0.56464722863E+03  0.60532996247E+03  0.86586178053E+02 0.  0.
         13    1    3    3    0    0 -0.21609142467E+03  0.25411435433E+03  0.38648406544E+03  0.51052868845E+03  0.00000000000E+00 0.  1.
        -13    1    3    3    0    0 -0.27598925304E+02  0.71257812274E+01  0.73255334776E+02  0.78605480147E+02  0.00000000000E+00 0. -1.
          2    1    6    6  502    0 -0.14054404142E+02  0.17456368943E+03  0.40516793570E+03  0.44139671959E+03  0.00000000000E+00 0. -1.
          3    1    5    5  503    0  0.14948449490E+03 -0.25644627563E+03  0.41952926048E+02  0.29978384630E+03  0.00000000000E+00 0. -1.
         -4    1    5    5    0  503  0.79856447206E+02 -0.20453068411E+03 -0.28458713310E+02  0.22140404528E+03  0.00000000000E+00 0.  1.
         -1    1    6    6    0  502  0.28403812019E+02  0.25173134756E+02  0.15947929293E+03  0.16393324288E+03  0.00000000000E+00 0.  1.
<mgrwt>
<rscale>  0 0.13661132E+04</rscale>
<asrwt>0</asrwt>
<pdfrwt beam="1">  1        1 0.21181022E+00 0.13661132E+04</pdfrwt>
<pdfrwt beam="2">  1       -1 0.52136246E-01 0.13661132E+04</pdfrwt>
<totfact> 0.28892124E+01</totfact>
</mgrwt>
</event>
<event>
12    1  0.1536832E-007  0.1506055E+04  0.7818608E-02  0.8880436E-01
         -2   -1    0    0    0  501 -0.00000000000E+00  0.00000000000E+00  0.54013038475E+03  0.54013038475E+03  0.00000000000E+00 0.  1.
          2   -1    0    0  501    0  0.00000000000E+00 -0.00000000000E+00 -0.10498404070E+04  0.10498404070E+04  0.00000000000E+00 0. -1.
         23    2    1    2    0    0  0.24037014151E+03 -0.14671415870E+03  0.24216317425E+03  0.38245797724E+03  0.91259257623E+02 0.  0.
        254    2    1    2    0    0 -0.24037014151E+03  0.14671415870E+03 -0.75187319650E+03  0.12075128145E+04  0.90192629648E+03 0.  0.
        -24    2    4    4    0    0 -0.47649932950E+03  0.86308852351E+02 -0.80755380878E+03  0.94469610740E+03  0.76202048908E+02 0.  0.
         24    2    4    4    0    0  0.23612918799E+03  0.60405306347E+02  0.55680612279E+02  0.26281670710E+03  0.81033921847E+02 0.  0.
         11    1    3    3    0    0  0.18472207665E+02  0.80201784522E+01  0.39863163670E+02  0.44661141232E+02  0.00000000000E+00 0. -1.
        -11    1    3    3    0    0  0.22189793384E+03 -0.15473433715E+03  0.20230001058E+03  0.33779683601E+03  0.00000000000E+00 0.  1.
          4    1    6    6  502    0  0.67375801518E+02  0.44112485296E+02  0.46583848332E+02  0.93034751113E+02  0.00000000000E+00 0. -1.
          3    1    5    5  503    0 -0.20280314767E+03 -0.57961674748E+00 -0.31945378058E+03  0.37839155724E+03  0.00000000000E+00 0. -1.
         -4    1    5    5    0  503 -0.27369618183E+03  0.86888469098E+02 -0.48810002820E+03  0.56630455017E+03  0.00000000000E+00 0.  1.
         -3    1    6    6    0  502  0.16875338648E+03  0.16292821051E+02  0.90967639475E+01  0.16978195599E+03  0.00000000000E+00 0.  1.
<mgrwt>
<rscale>  0 0.15060554E+04</rscale>
<asrwt>0</asrwt>
<pdfrwt beam="1">  1        2 0.16151391E+00 0.15060554E+04</pdfrwt>
<pdfrwt beam="2">  1       -2 0.83096983E-01 0.15060554E+04</pdfrwt>
<totfact> 0.28691209E+01</totfact>
</mgrwt>
</event>
<event>
12    1  0.1536832E-007  0.2157949E+04  0.7818608E-02  0.8536138E-01
         -2   -1    0    0    0  501 -0.00000000000E+00  0.00000000000E+00  0.57378443820E+03  0.57378443820E+03  0.00000000000E+00 0. -1.
          2   -1    0    0  501    0  0.00000000000E+00 -0.00000000000E+00 -0.20289597406E+04  0.20289597406E+04  0.00000000000E+00 0.  1.
         23    2    1    2    0    0  0.63007428370E+03  0.13233224403E+03  0.15174557105E+03  0.66757542255E+03  0.90137676192E+02 0.  0.
        254    2    1    2    0    0 -0.63007428370E+03 -0.13233224403E+03 -0.16069208734E+04  0.19351687562E+04  0.86497282955E+03 0.  0.
        -24    2    4    4    0    0 -0.42840013712E+03  0.19602177887E+03 -0.14227670929E+04  0.15008884719E+04  0.80304352631E+02 0.  0.
         24    2    4    4    0    0 -0.20167414658E+03 -0.32835402290E+03 -0.18415378049E+03  0.43428028434E+03  0.78726899739E+02 0.  0.
         13    1    3    3    0    0  0.13953146800E+03  0.50246066263E+02  0.68244214867E+02  0.16325124992E+03  0.00000000000E+00 0. -1.
        -13    1    3    3    0    0  0.49054281570E+03  0.82086177764E+02  0.83501356178E+02  0.50432417263E+03  0.00000000000E+00 0.  1.
          2    1    6    6  502    0 -0.11429583013E+03 -0.21122236640E+03 -0.15331809027E+03  0.28492957316E+03  0.00000000000E+00 0. -1.
          3    1    5    5  503    0 -0.16915543747E+03  0.40079874605E+02 -0.46244475334E+03  0.49403958168E+03  0.00000000000E+00 0. -1.
         -4    1    5    5    0  503 -0.25924469965E+03  0.15594190427E+03 -0.96032233961E+03  0.10068488902E+04  0.00000000000E+00 0.  1.
         -1    1    6    6    0  502 -0.87378316449E+02 -0.11713165650E+03 -0.30835690216E+02  0.14935071118E+03  0.00000000000E+00 0.  1.
<mgrwt>
<rscale>  0 0.21579486E+04</rscale>
<asrwt>0</asrwt>
<pdfrwt beam="1">  1        2 0.31214766E+00 0.21579486E+04</pdfrwt>
<pdfrwt beam="2">  1       -2 0.88274527E-01 0.21579486E+04</pdfrwt>
<totfact> 0.65240634E+00</totfact>
</mgrwt>
</event>
<event>
12    1  0.1536832E-007  0.2304819E+04  0.7818608E-02  0.8476024E-01
         -1   -1    0    0    0  501 -0.00000000000E+00  0.00000000000E+00  0.74903997745E+03  0.74903997745E+03  0.00000000000E+00 0.  1.
          1   -1    0    0  501    0  0.00000000000E+00 -0.00000000000E+00 -0.17729991538E+04  0.17729991538E+04  0.00000000000E+00 0. -1.
         23    2    1    2    0    0 -0.23586736074E+03 -0.94029076293E+03 -0.45691556428E+03  0.10757420751E+04  0.93107725218E+02 0.  0.
        254    2    1    2    0    0  0.23586736074E+03  0.94029076293E+03 -0.56704361203E+03  0.14462970561E+04  0.91129390754E+03 0.  0.
        -24    2    4    4    0    0  0.36190710218E+03  0.50363047860E+03  0.10192027312E+03  0.63379128423E+03  0.81751087548E+02 0.  0.
         24    2    4    4    0    0 -0.12603974144E+03  0.43666028433E+03 -0.66896388514E+03  0.81250577190E+03  0.78068747923E+02 0.  0.
         11    1    3    3    0    0 -0.21728231496E+03 -0.77438939115E+03 -0.34758692238E+03  0.87618902192E+03  0.00000000000E+00 0. -1.
        -11    1    3    3    0    0 -0.18585045779E+02 -0.16590137178E+03 -0.10932864190E+03  0.19955305316E+03  0.00000000000E+00 0.  1.
          2    1    6    6  502    0  0.11996933909E+01  0.87853751092E+02 -0.15954254416E+03  0.18213605970E+03  0.00000000000E+00 0. -1.
          3    1    5    5  503    0  0.64191362400E+02  0.14320804499E+03  0.42194747139E+02  0.16250991306E+03  0.00000000000E+00 0. -1.
         -4    1    5    5    0  503  0.29771573978E+03  0.36042243361E+03  0.59725525978E+02  0.47128137118E+03  0.00000000000E+00 0.  1.
         -1    1    6    6    0  502 -0.12723943483E+03  0.34880653324E+03 -0.50942134098E+03  0.63036971220E+03  0.00000000000E+00 0.  1.
<mgrwt>
<rscale>  0 0.23048186E+04</rscale>
<asrwt>0</asrwt>
<pdfrwt beam="1">  1        1 0.27276910E+00 0.23048186E+04</pdfrwt>
<pdfrwt beam="2">  1       -1 0.11523692E+00 0.23048186E+04</pdfrwt>
<totfact> 0.26224812E+00</totfact>
</mgrwt>
</event>
<event>
12    1  0.1536832E-007  0.1849111E+04  0.7818608E-02  0.8680610E-01
          2   -1    0    0  501    0  0.00000000000E+00  0.00000000000E+00  0.52650599818E+03  0.52650599818E+03  0.00000000000E+00 0. -1.
         -2   -1    0    0    0  501 -0.00000000000E+00 -0.00000000000E+00 -0.16235387404E+04  0.16235387404E+04  0.00000000000E+00 0.  1.
         23    2    1    2    0    0  0.55318300532E+03  0.25560745489E+03 -0.78139112485E+03  0.99605952665E+03  0.10107364779E+03 0.  0.
        254    2    1    2    0    0 -0.55318300532E+03 -0.25560745489E+03 -0.31564161740E+03  0.11539852120E+04  0.92774222196E+03 0.  0.
        -24    2    4    4    0    0 -0.37275464252E+03 -0.56407838842E+03 -0.16297091590E+02  0.68103142508E+03  0.80048453784E+02 0.  0.
         24    2    4    4    0    0 -0.18042836280E+03  0.30847093352E+03 -0.29934452581E+03  0.47295378688E+03  0.79808699141E+02 0.  0.
         11    1    3    3    0    0  0.54721306354E+03  0.26327597984E+03 -0.76202146062E+03  0.97438856978E+03  0.00000000000E+00 0.  1.
        -11    1    3    3    0    0  0.59699417803E+01 -0.76685249459E+01 -0.19369664222E+02  0.21670956873E+02  0.00000000000E+00 0. -1.
          2    1    6    6  502    0 -0.82261182479E+02  0.13684957768E+03 -0.83291694488E+02  0.18008946506E+03  0.00000000000E+00 0. -1.
          1    1    5    5  503    0 -0.76719321027E+02 -0.67818629773E+02  0.76730144201E+01  0.10268444825E+03  0.00000000000E+00 0. -1.
         -2    1    5    5    0  503 -0.29603532149E+03 -0.49625975864E+03 -0.23970106010E+02  0.57834697682E+03  0.00000000000E+00 0.  1.
         -1    1    6    6    0  502 -0.98167180324E+02  0.17162135585E+03 -0.21605283132E+03  0.29286432182E+03  0.00000000000E+00 0.  1.
<mgrwt>
<rscale>  0 0.18491110E+04</rscale>
<asrwt>0</asrwt>
<pdfrwt beam="1">  1        2 0.81000923E-01 0.18491110E+04</pdfrwt>
<pdfrwt beam="2">  1       -2 0.24977519E+00 0.18491110E+04</pdfrwt>
<totfact> 0.35136505E+00</totfact>
</mgrwt>
</event>
<event>
12    1  0.1536832E-007  0.1734420E+04  0.7818608E-02  0.8741974E-01
         -2   -1    0    0    0  501 -0.00000000000E+00  0.00000000000E+00  0.30369508168E+03  0.30369508168E+03  0.00000000000E+00 0.  1.
          2   -1    0    0  501    0  0.00000000000E+00 -0.00000000000E+00 -0.24763416321E+04  0.24763416321E+04  0.00000000000E+00 0. -1.
         23    2    1    2    0    0  0.43407110018E+03 -0.44896974508E+03 -0.76957524878E+03  0.99536370018E+03  0.92256599186E+02 0.  0.
        254    2    1    2    0    0 -0.43407110018E+03  0.44896974508E+03 -0.14030713016E+04  0.17846730136E+04  0.90909687930E+03 0.  0.
        -24    2    4    4    0    0  0.22466739045E+03  0.73550220396E+02 -0.87096418925E+02  0.26373665788E+03  0.78013891518E+02 0.  0.
         24    2    4    4    0    0 -0.65873849063E+03  0.37541952468E+03 -0.13159748827E+04  0.15209363557E+04  0.81125135778E+02 0.  0.
         11    1    3    3    0    0  0.92255948750E+02 -0.11725283541E+03 -0.24459655009E+03  0.28650804493E+03  0.00000000000E+00 0. -1.
        -11    1    3    3    0    0  0.34181515143E+03 -0.33171690967E+03 -0.52497869869E+03  0.70885565526E+03  0.00000000000E+00 0.  1.
          4    1    6    6  502    0 -0.14777378829E+03  0.12240393877E+03 -0.30854121804E+03  0.36334212522E+03  0.00000000000E+00 0. -1.
          1    1    5    5  503    0  0.18113406832E+02 -0.15142143365E+02 -0.13546604304E+02  0.27219303829E+02  0.00000000000E+00 0. -1.
         -2    1    5    5    0  503  0.20655398362E+03  0.88692363761E+02 -0.73549814621E+02  0.23651735405E+03  0.00000000000E+00 0.  1.
         -3    1    6    6    0  502 -0.51096470233E+03  0.25301558591E+03 -0.10074336646E+04  0.11575942305E+04  0.00000000000E+00 0.  1.
<mgrwt>
<rscale>  0 0.17344195E+04</rscale>
<asrwt>0</asrwt>
<pdfrwt beam="1">  1        2 0.38097563E+00 0.17344195E+04</pdfrwt>
<pdfrwt beam="2">  1       -2 0.46722321E-01 0.17344195E+04</pdfrwt>
<totfact> 0.14826299E+01</totfact>
</mgrwt>
</event>
<event>
12    1  0.1536832E-007  0.1152203E+04  0.7818608E-02  0.9155754E-01
          2   -1    0    0  501    0  0.00000000000E+00  0.00000000000E+00  0.22217461290E+04  0.22217461290E+04  0.00000000000E+00 0. -1.
         -2   -1    0    0    0  501 -0.00000000000E+00 -0.00000000000E+00 -0.14938369822E+03  0.14938369822E+03  0.00000000000E+00 0.  1.
         23    2    1    2    0    0 -0.94902804397E+02 -0.25901756448E+02  0.80426421379E+03  0.81534266863E+03  0.90913686724E+02 0.  0.
        254    2    1    2    0    0  0.94902804397E+02  0.25901756448E+02  0.12680982170E+04  0.15557871586E+04  0.89594818579E+03 0.  0.
        -24    2    4    4    0    0  0.11735920692E+03 -0.40806838380E+03  0.43715082139E+03  0.61460401618E+03  0.79650905521E+02 0.  0.
         24    2    4    4    0    0 -0.22456402526E+02  0.43397014025E+03  0.83094739561E+03  0.94118314241E+03  0.80732649233E+02 0.  0.
         11    1    3    3    0    0 -0.86514849364E+02 -0.29564538953E+02  0.80006608186E+03  0.80527300741E+03  0.00000000000E+00 0. -1.
        -11    1    3    3    0    0 -0.83879550333E+01  0.36627825049E+01  0.41981319307E+01  0.10069661217E+02  0.00000000000E+00 0.  1.
          2    1    6    6  502    0 -0.27754741233E+02  0.18258128498E+03  0.42906521371E+03  0.46712226333E+03  0.00000000000E+00 0. -1.
          1    1    5    5  503    0  0.10947412612E+03 -0.33267357847E+03  0.31611757990E+03  0.47179086301E+03  0.00000000000E+00 0. -1.
         -2    1    5    5    0  503  0.78850808057E+01 -0.75394805330E+02  0.12103324150E+03  0.14281315317E+03  0.00000000000E+00 0.  1.
         -1    1    6    6    0  502  0.52983387071E+01  0.25138885527E+03  0.40188218190E+03  0.47406087908E+03  0.00000000000E+00 0.  1.
<mgrwt>
<rscale>  0 0.11522025E+04</rscale>
<asrwt>0</asrwt>
<pdfrwt beam="1">  1        2 0.34180707E+00 0.11522025E+04</pdfrwt>
<pdfrwt beam="2">  1       -2 0.22982109E-01 0.11522025E+04</pdfrwt>
<totfact> 0.83289753E+01</totfact>
</mgrwt>
</event>
<event>
12    1  0.1536832E-007  0.1882754E+04  0.7818608E-02  0.8663489E-01
         -1   -1    0    0    0  501 -0.00000000000E+00  0.00000000000E+00  0.77543806993E+03  0.77543806993E+03  0.00000000000E+00 0.  1.
          1   -1    0    0  501    0  0.00000000000E+00 -0.00000000000E+00 -0.11428252271E+04  0.11428252271E+04  0.00000000000E+00 0. -1.
         23    2    1    2    0    0  0.15191624564E+03 -0.59299091182E+03  0.31173871891E+03  0.69276060822E+03  0.89551461451E+02 0.  0.
        254    2    1    2    0    0 -0.15191624564E+03  0.59299091182E+03 -0.67912587607E+03  0.12255026888E+04  0.81604418847E+03 0.  0.
        -24    2    4    4    0    0 -0.88104674531E+01  0.68090624045E+03 -0.75970044115E+03  0.10233017125E+04  0.79313945507E+02 0.  0.
         24    2    4    4    0    0 -0.14310577819E+03 -0.87915328633E+02  0.80574565085E+02  0.20220097628E+03  0.78642262882E+02 0.  0.
         11    1    3    3    0    0  0.15894401698E+03 -0.54292960677E+03  0.30199686356E+03  0.64127830467E+03  0.00000000000E+00 0.  1.
        -11    1    3    3    0    0 -0.70277713448E+01 -0.50061305047E+02  0.97418553510E+01  0.51482303549E+02  0.00000000000E+00 0. -1.
          4    1    6    6  502    0 -0.23259978961E+02 -0.32210397512E+02  0.54580368218E+02  0.67509650598E+02  0.00000000000E+00 0. -1.
          1    1    5    5  503    0 -0.13078894672E+01  0.10178483327E+02 -0.56571164376E+00  0.10277749138E+02  0.00000000000E+00 0. -1.
         -2    1    5    5    0  503 -0.75025779859E+01  0.67072775712E+03 -0.75913472951E+03  0.10130239634E+04  0.00000000000E+00 0.  1.
         -3    1    6    6    0  502 -0.11984579923E+03 -0.55704931121E+02  0.25994196867E+02  0.13469132568E+03  0.00000000000E+00 0.  1.
<mgrwt>
<rscale>  0 0.18827535E+04</rscale>
<asrwt>0</asrwt>
<pdfrwt beam="1">  1        1 0.17581927E+00 0.18827535E+04</pdfrwt>
<pdfrwt beam="2">  1       -1 0.11929816E+00 0.18827535E+04</pdfrwt>
<totfact> 0.69307549E+00</totfact>
</mgrwt>
</event>
<event>
12    1  0.1536832E-007  0.2168651E+04  0.7818608E-02  0.8531591E-01
         -2   -1    0    0    0  501 -0.00000000000E+00  0.00000000000E+00  0.17686411553E+04  0.17686411553E+04  0.00000000000E+00 0.  1.
          2   -1    0    0  501    0  0.00000000000E+00 -0.00000000000E+00 -0.66478239513E+03  0.66478239513E+03  0.00000000000E+00 0. -1.
         23    2    1    2    0    0 -0.80469814093E+03 -0.39892210394E+03  0.54048842107E+03  0.10526212901E+04  0.95947402058E+02 0.  0.
        254    2    1    2    0    0  0.80469814093E+03  0.39892210394E+03  0.56337033912E+03  0.13808022604E+04  0.88461901419E+03 0.  0.
        -24    2    4    4    0    0  0.86165870343E+03  0.58059784754E+03  0.53871900238E+03  0.11731346898E+04  0.80481396488E+02 0.  0.
         24    2    4    4    0    0 -0.56960562504E+02 -0.18167574360E+03  0.24651336742E+02  0.20766757056E+03  0.79167859434E+02 0.  0.
         13    1    3    3    0    0 -0.12836631613E+03 -0.37299049698E+02  0.11005216504E+03  0.17314909545E+03  0.00000000000E+00 0.  1.
        -13    1    3    3    0    0 -0.67633182480E+03 -0.36162305424E+03  0.43043625603E+03  0.87947219462E+03  0.00000000000E+00 0. -1.
          4    1    6    6  502    0 -0.54984385446E+02 -0.17277585559E+03  0.43738485102E+02  0.18651496990E+03  0.00000000000E+00 0. -1.
          1    1    5    5  503    0  0.76371502824E+03  0.49662878119E+03  0.49582275403E+03  0.10371793452E+04  0.00000000000E+00 0. -1.
         -4    1    5    5    0  503  0.97943675190E+02  0.83969066350E+02  0.42896248349E+02  0.13595534464E+03  0.00000000000E+00 0.  1.
         -3    1    6    6    0  502 -0.19761770577E+01 -0.88998880106E+01 -0.19087148360E+02  0.21152600665E+02  0.00000000000E+00 0.  1.
<mgrwt>
<rscale>  0 0.21686507E+04</rscale>
<asrwt>0</asrwt>
<pdfrwt beam="1">  1        2 0.10227422E+00 0.21686507E+04</pdfrwt>
<pdfrwt beam="2">  1       -2 0.27209864E+00 0.21686507E+04</pdfrwt>
<totfact> 0.18856380E+00</totfact>
</mgrwt>
</event>
<event>
12    1  0.1536832E-007  0.1731397E+04  0.7818608E-02  0.8743658E-01
          2   -1    0    0  501    0  0.00000000000E+00  0.00000000000E+00  0.21272018764E+04  0.21272018764E+04  0.00000000000E+00 0. -1.
         -2   -1    0    0    0  501 -0.00000000000E+00 -0.00000000000E+00 -0.35230951939E+03  0.35230951939E+03  0.00000000000E+00 0.  1.
         23    2    1    2    0    0 -0.13957265101E+03 -0.10168928605E+03  0.15272786844E+04  0.15397851201E+04  0.92394807328E+02 0.  0.
        254    2    1    2    0    0  0.13957265101E+03  0.10168928605E+03  0.24761367258E+03  0.93972627566E+03  0.88991668515E+03 0.  0.
        -24    2    4    4    0    0 -0.18166515455E+03 -0.22792873746E+03 -0.13974490488E+03  0.33284120926E+03  0.79378173334E+02 0.  0.
         24    2    4    4    0    0  0.32123780556E+03  0.32961802351E+03  0.38735857746E+03  0.60688506640E+03  0.80131436666E+02 0.  0.
         13    1    3    3    0    0 -0.14564976294E+03 -0.66601334848E+02  0.12313380055E+04  0.12417096581E+04  0.00000000000E+00 0. -1.
        -13    1    3    3    0    0  0.60771119254E+01 -0.35087951200E+02  0.29594067895E+03  0.29807546203E+03  0.00000000000E+00 0.  1.
          4    1    6    6  502    0  0.25476275797E+03  0.23854914229E+03  0.33026261444E+03  0.48050301834E+03  0.00000000000E+00 0. -1.
          3    1    5    5  503    0 -0.77279358307E+01 -0.36705642163E+02 -0.42430881063E+02  0.56633954714E+02  0.00000000000E+00 0. -1.
         -4    1    5    5    0  503 -0.17393721872E+03 -0.19122309530E+03 -0.97314023822E+02  0.27620725455E+03  0.00000000000E+00 0.  1.
         -3    1    6    6    0  502  0.66475047590E+02  0.91068881221E+02  0.57095963023E+02  0.12638204806E+03  0.00000000000E+00 0.  1.
<mgrwt>
<rscale>  0 0.17313965E+04</rscale>
<asrwt>0</asrwt>
<pdfrwt beam="1">  1        2 0.32726182E+00 0.17313965E+04</pdfrwt>
<pdfrwt beam="2">  1       -2 0.54201466E-01 0.17313965E+04</pdfrwt>
<totfact> 0.17264417E+01</totfact>
</mgrwt>
</event>
<event>
12    1  0.1536832E-007  0.2234766E+04  0.7818608E-02  0.8504096E-01
         -2   -1    0    0    0  501 -0.00000000000E+00  0.00000000000E+00  0.43450360384E+03  0.43450360384E+03  0.00000000000E+00 0.  1.
          2   -1    0    0  501    0  0.00000000000E+00 -0.00000000000E+00 -0.28734956818E+04  0.28734956818E+04  0.00000000000E+00 0. -1.
         23    2    1    2    0    0  0.29742574843E+03  0.77598508293E+03 -0.39553192965E+03  0.92514214255E+03  0.93955051936E+02 0.  0.
        254    2    1    2    0    0 -0.29742574843E+03 -0.77598508293E+03 -0.20434601483E+04  0.23828571430E+04  0.90092389350E+03 0.  0.
        -24    2    4    4    0    0 -0.58558752521E+02 -0.84115349568E+03 -0.19121867984E+04  0.20914639838E+04  0.82431261939E+02 0.  0.
         24    2    4    4    0    0 -0.23886699590E+03  0.65168412751E+02 -0.13127334990E+03  0.29139315924E+03  0.79830552444E+02 0.  0.
         13    1    3    3    0    0  0.10494602735E+03  0.19147852262E+03 -0.72146225262E+02  0.22996254282E+03  0.00000000000E+00 0. -1.
        -13    1    3    3    0    0  0.19247972108E+03  0.58450656031E+03 -0.32338570439E+03  0.69517959973E+03  0.00000000000E+00 0.  1.
          2    1    6    6  502    0 -0.34707739225E+02 -0.16120130170E+02 -0.68844903231E+01  0.38882926405E+02  0.00000000000E+00 0. -1.
          1    1    5    5  503    0 -0.48177119989E+02 -0.20730650885E+03 -0.45167873508E+03  0.49931022744E+03  0.00000000000E+00 0. -1.
         -2    1    5    5    0  503 -0.10381632532E+02 -0.63384698683E+03 -0.14605080633E+04  0.15921537564E+04  0.00000000000E+00 0.  1.
         -1    1    6    6    0  502 -0.20415925668E+03  0.81288542922E+02 -0.12438885958E+03  0.25251023283E+03  0.00000000000E+00 0.  1.
<mgrwt>
<rscale>  0 0.22347655E+04</rscale>
<asrwt>0</asrwt>
<pdfrwt beam="1">  1        2 0.44207625E+00 0.22347655E+04</pdfrwt>
<pdfrwt beam="2">  1       -2 0.66846710E-01 0.22347655E+04</pdfrwt>
<totfact> 0.39096558E+00</totfact>
</mgrwt>
</event>
<event>
12    1  0.1536832E-007  0.1595322E+04  0.7818608E-02  0.8823427E-01
         -3   -1    0    0    0  501 -0.00000000000E+00  0.00000000000E+00  0.13326812531E+04  0.13326812531E+04  0.00000000000E+00 0.  1.
          3   -1    0    0  501    0  0.00000000000E+00 -0.00000000000E+00 -0.47743056770E+03  0.47743056770E+03  0.00000000000E+00 0. -1.
         23    2    1    2    0    0 -0.94374666815E+02 -0.41678850990E+03 -0.47360895475E+02  0.43974579532E+03  0.92271720252E+02 0.  0.
        254    2    1    2    0    0  0.94374666815E+02  0.41678850990E+03  0.90261158087E+03  0.13703660255E+04  0.93839018439E+03 0.  0.
        -24    2    4    4    0    0  0.14840929061E+03  0.69509019362E+03  0.74830887434E+03  0.10355938666E+04  0.85514854806E+02 0.  0.
         24    2    4    4    0    0 -0.54034623798E+02 -0.27830168372E+03  0.15430270653E+03  0.33477215885E+03  0.88834145279E+02 0.  0.
         13    1    3    3    0    0 -0.11239195251E+03 -0.37918070114E+03 -0.42877291356E+02  0.39780449623E+03  0.00000000000E+00 0. -1.
        -13    1    3    3    0    0  0.18017285692E+02 -0.37607808759E+02 -0.44836041193E+01  0.41941299088E+02  0.00000000000E+00 0.  1.
          4    1    6    6  502    0 -0.33275629310E+02 -0.27339165706E+03  0.13884523263E+03  0.30842870210E+03  0.00000000000E+00 0. -1.
          3    1    5    5  503    0  0.14793494973E+03  0.61591607067E+03  0.63120190740E+03  0.89423330477E+03  0.00000000000E+00 0. -1.
         -4    1    5    5    0  503  0.47434088673E+00  0.79174122946E+02  0.11710696695E+03  0.14136056186E+03  0.00000000000E+00 0.  1.
         -3    1    6    6    0  502 -0.20758994487E+02 -0.49100266567E+01  0.15457473895E+02  0.26343456742E+02  0.00000000000E+00 0.  1.
<mgrwt>
<rscale>  0 0.15953216E+04</rscale>
<asrwt>0</asrwt>
<pdfrwt beam="1">  1        3 0.73450857E-01 0.15953216E+04</pdfrwt>
<pdfrwt beam="2">  1       -3 0.20502788E+00 0.15953216E+04</pdfrwt>
<totfact> 0.60096554E-01</totfact>
</mgrwt>
</event>
<event>
12    1  0.1536832E-007  0.1783702E+04  0.7818608E-02  0.8715015E-01
         -2   -1    0    0    0  501 -0.00000000000E+00  0.00000000000E+00  0.84123345563E+03  0.84123345563E+03  0.00000000000E+00 0.  1.
          2   -1    0    0  501    0  0.00000000000E+00 -0.00000000000E+00 -0.94551469374E+03  0.94551469374E+03  0.00000000000E+00 0. -1.
         23    2    1    2    0    0 -0.26118619565E+03 -0.31545891988E+02  0.56905962224E+03  0.63344351210E+03  0.90600536769E+02 0.  0.
        254    2    1    2    0    0  0.26118619565E+03  0.31545891988E+02 -0.67334086034E+03  0.11533046373E+04  0.89861576886E+03 0.  0.
        -24    2    4    4    0    0  0.48707663606E+03 -0.19070677197E+03 -0.17432264115E+03  0.55708658116E+03  0.79651449591E+02 0.  0.
         24    2    4    4    0    0 -0.22589044041E+03  0.22225266396E+03 -0.49901821920E+03  0.59621805612E+03  0.77679145478E+02 0.  0.
         11    1    3    3    0    0 -0.45199630699E+02 -0.94874735610E+00  0.19725176777E+03  0.20236641675E+03  0.00000000000E+00 0. -1.
        -11    1    3    3    0    0 -0.21598656495E+03 -0.30597144632E+02  0.37180785446E+03  0.43107709535E+03  0.00000000000E+00 0.  1.
          2    1    6    6  502    0 -0.51929591116E+02  0.83688116991E+02 -0.10642003790E+03  0.14500209594E+03  0.00000000000E+00 0. -1.
          1    1    5    5  503    0  0.34850744082E+03 -0.17355571170E+03 -0.13416247027E+03  0.41179921054E+03  0.00000000000E+00 0. -1.
         -2    1    5    5    0  503  0.13856919524E+03 -0.17151060273E+02 -0.40160170872E+02  0.14528737062E+03  0.00000000000E+00 0.  1.
         -1    1    6    6    0  502 -0.17396084930E+03  0.13856454697E+03 -0.39259818130E+03  0.45121596018E+03  0.00000000000E+00 0.  1.
<mgrwt>
<rscale>  0 0.17837024E+04</rscale>
<asrwt>0</asrwt>
<pdfrwt beam="1">  1        2 0.14546380E+00 0.17837024E+04</pdfrwt>
<pdfrwt beam="2">  1       -2 0.12942053E+00 0.17837024E+04</pdfrwt>
<totfact> 0.11349745E+01</totfact>
</mgrwt>
</event>
<event>
12    1  0.1536832E-007  0.1778787E+04  0.7818608E-02  0.8717662E-01
          1   -1    0    0  501    0  0.00000000000E+00  0.00000000000E+00  0.37867854046E+03  0.37867854046E+03  0.00000000000E+00 0. -1.
         -1   -1    0    0    0  501 -0.00000000000E+00 -0.00000000000E+00 -0.20888979076E+04  0.20888979076E+04  0.00000000000E+00 0.  1.
         23    2    1    2    0    0  0.62191219993E+03  0.15781782784E+03 -0.45222527095E+03  0.79060472272E+03  0.94164115753E+02 0.  0.
        254    2    1    2    0    0 -0.62191219993E+03 -0.15781782784E+03 -0.12579940961E+04  0.16769717253E+04  0.90443560872E+03 0.  0.
        -24    2    4    4    0    0 -0.47044334980E+03  0.64135847097E+02 -0.13048181389E+04  0.13907458636E+04  0.78697707580E+02 0.  0.
         24    2    4    4    0    0 -0.15146885012E+03 -0.22195367494E+03  0.46824042740E+02  0.28622586174E+03  0.86755441192E+02 0.  0.
         11    1    3    3    0    0  0.40531561889E+03  0.78028186221E+02 -0.24244922692E+03  0.47869695675E+03  0.00000000000E+00 0.  1.
        -11    1    3    3    0    0  0.21659658104E+03  0.79789641620E+02 -0.20977604403E+03  0.31190776597E+03  0.00000000000E+00 0. -1.
          4    1    6    6  502    0 -0.19343067505E+02  0.24076545827E+01 -0.63027336458E+01  0.20485983317E+02  0.00000000000E+00 0. -1.
          1    1    5    5  503    0 -0.17826054930E+02  0.10689581187E+02 -0.11014827284E+03  0.11209227177E+03  0.00000000000E+00 0. -1.
         -2    1    5    5    0  503 -0.45261729487E+03  0.53446265910E+02 -0.11946698660E+04  0.12786535918E+04  0.00000000000E+00 0.  1.
         -3    1    6    6    0  502 -0.13212578262E+03 -0.22436132952E+03  0.53126776386E+02  0.26573987843E+03  0.00000000000E+00 0.  1.
<mgrwt>
<rscale>  0 0.17787870E+04</rscale>
<asrwt>0</asrwt>
<pdfrwt beam="1">  1        1 0.58258238E-01 0.17787870E+04</pdfrwt>
<pdfrwt beam="2">  1       -1 0.32136891E+00 0.17787870E+04</pdfrwt>
<totfact> 0.14653831E+00</totfact>
</mgrwt>
</event>
<event>
12    1  0.1536832E-007  0.1819583E+04  0.7818608E-02  0.8695954E-01
         -2   -1    0    0    0  501 -0.00000000000E+00  0.00000000000E+00  0.61541095031E+03  0.61541095031E+03  0.00000000000E+00 0.  1.
          2   -1    0    0  501    0  0.00000000000E+00 -0.00000000000E+00 -0.13449880064E+04  0.13449880064E+04  0.00000000000E+00 0. -1.
         23    2    1    2    0    0 -0.21259473171E+02 -0.63904153352E+03 -0.27868947834E+02  0.64654269652E+03  0.91731856065E+02 0.  0.
        254    2    1    2    0    0  0.21259473171E+02  0.63904153352E+03 -0.70170810825E+03  0.13138562602E+04  0.90829398129E+03 0.  0.
        -24    2    4    4    0    0 -0.39690403540E+03  0.87980030607E+02 -0.26977919697E+03  0.49439716532E+03  0.79840108038E+02 0.  0.
         24    2    4    4    0    0  0.41816350857E+03  0.55106150291E+03 -0.43192891127E+03  0.81945909485E+03  0.80131915319E+02 0.  0.
         11    1    3    3    0    0  0.13068113983E+01 -0.35565909570E+03  0.28232737063E+02  0.35678030713E+03  0.00000000000E+00 0. -1.
        -11    1    3    3    0    0 -0.22566284569E+02 -0.28338243781E+03 -0.56101684897E+02  0.28976238940E+03  0.00000000000E+00 0.  1.
          2    1    6    6  502    0  0.16883199855E+03  0.26226551463E+03 -0.23187889775E+03  0.38865829095E+03  0.00000000000E+00 0. -1.
          3    1    5    5  503    0 -0.33585687698E+03  0.81090052591E+02 -0.25950528172E+03  0.43210927980E+03  0.00000000000E+00 0. -1.
         -4    1    5    5    0  503 -0.61047158417E+02  0.68899780159E+01 -0.10273915252E+02  0.62287885519E+02  0.00000000000E+00 0.  1.
         -1    1    6    6    0  502  0.24933151002E+03  0.28879598828E+03 -0.20005001352E+03  0.43080080390E+03  0.00000000000E+00 0.  1.
<mgrwt>
<rscale>  0 0.18195828E+04</rscale>
<asrwt>0</asrwt>
<pdfrwt beam="1">  1        2 0.20692123E+00 0.18195828E+04</pdfrwt>
<pdfrwt beam="2">  1       -2 0.94678609E-01 0.18195828E+04</pdfrwt>
<totfact> 0.13784884E+01</totfact>
</mgrwt>
</event>
<event>
12    1  0.1536832E-007  0.1915475E+04  0.7818608E-02  0.8647191E-01
         -2   -1    0    0    0  501 -0.00000000000E+00  0.00000000000E+00  0.25983842365E+03  0.25983842365E+03  0.00000000000E+00 0.  1.
          2   -1    0    0  501    0  0.00000000000E+00 -0.00000000000E+00 -0.35301225208E+04  0.35301225208E+04  0.00000000000E+00 0. -1.
         23    2    1    2    0    0  0.18197032352E+03  0.68200508582E+03 -0.87004491769E+03  0.11239433812E+04  0.89590343383E+02 0.  0.
        254    2    1    2    0    0 -0.18197032352E+03 -0.68200508582E+03 -0.24002391794E+04  0.26660175632E+04  0.92100889965E+03 0.  0.
        -24    2    4    4    0    0  0.36250534118E+03 -0.18264980452E+03 -0.96101657238E+03  0.10462438079E+04  0.79386268726E+02 0.  0.
         24    2    4    4    0    0 -0.54447566470E+03 -0.49935528130E+03 -0.14392226070E+04  0.16197737553E+04  0.80596894863E+02 0.  0.
         13    1    3    3    0    0  0.65618338173E+02  0.22953237671E+03 -0.36311934559E+03  0.43456476778E+03  0.00000000000E+00 0. -1.
        -13    1    3    3    0    0  0.11635198535E+03  0.45247270911E+03 -0.50692557211E+03  0.68937861342E+03  0.00000000000E+00 0.  1.
          2    1    6    6  502    0 -0.52213751066E+03 -0.49612505959E+03 -0.13863410442E+04  0.15622769107E+04  0.00000000000E+00 0. -1.
          3    1    5    5  503    0  0.34706773254E+03 -0.15344397360E+03 -0.86107888403E+03  0.94098773028E+03  0.00000000000E+00 0. -1.
         -4    1    5    5    0  503  0.15437608640E+02 -0.29205830914E+02 -0.99937688350E+02  0.10525607760E+03  0.00000000000E+00 0.  1.
         -1    1    6    6    0  502 -0.22338154034E+02 -0.32302217114E+01 -0.52881562855E+02  0.57496844678E+02  0.00000000000E+00 0.  1.
<mgrwt>
<rscale>  0 0.19154754E+04</rscale>
<asrwt>0</asrwt>
<pdfrwt beam="1">  1        2 0.54309574E+00 0.19154754E+04</pdfrwt>
<pdfrwt beam="2">  1       -2 0.39975145E-01 0.19154754E+04</pdfrwt>
<totfact> 0.43184700E+00</totfact>
</mgrwt>
</event>
<event>
12    1  0.1536832E-007  0.2413810E+04  0.7818608E-02  0.8434351E-01
          2   -1    0    0  501    0  0.00000000000E+00  0.00000000000E+00  0.26031598372E+04  0.26031598372E+04  0.00000000000E+00 0. -1.
         -2   -1    0    0    0  501 -0.00000000000E+00 -0.00000000000E+00 -0.55955832720E+03  0.55955832720E+03  0.00000000000E+00 0.  1.
         23    2    1    2    0    0  0.44824880440E+03  0.46343626338E+02  0.21128026207E+04  0.21621783634E+04  0.89474236949E+02 0.  0.
        254    2    1    2    0    0 -0.44824880440E+03 -0.46343626338E+02 -0.69201110655E+02  0.10005398010E+04  0.89062695742E+03 0.  0.
        -24    2    4    4    0    0 -0.91718557226E+02 -0.42644081613E+03 -0.14815366881E+03  0.46722644139E+03  0.78019065295E+02 0.  0.
         24    2    4    4    0    0 -0.35653024717E+03  0.38009718979E+03  0.78952558154E+02  0.53331335959E+03  0.81252336836E+02 0.  0.
         11    1    3    3    0    0  0.26374371203E+03  0.17450254479E+02  0.14338674097E+04  0.14580264077E+04  0.00000000000E+00 0. -1.
        -11    1    3    3    0    0  0.18450509237E+03  0.28893371859E+02  0.67893521097E+03  0.70415195572E+03  0.00000000000E+00 0.  1.
          2    1    6    6  502    0 -0.91959889563E+00  0.11559976649E+02  0.12229893161E+02  0.16853753558E+02  0.00000000000E+00 0. -1.
          3    1    5    5  503    0 -0.43462186675E+02 -0.24849147164E+03 -0.45938711325E+02  0.25641243797E+03  0.00000000000E+00 0. -1.
         -4    1    5    5    0  503 -0.48256370551E+02 -0.17794934449E+03 -0.10221495748E+03  0.21081400342E+03  0.00000000000E+00 0.  1.
         -1    1    6    6    0  502 -0.35561064828E+03  0.36853721314E+03  0.66722664993E+02  0.51645960603E+03  0.00000000000E+00 0.  1.
<mgrwt>
<rscale>  0 0.24138101E+04</rscale>
<asrwt>0</asrwt>
<pdfrwt beam="1">  1        2 0.40048612E+00 0.24138101E+04</pdfrwt>
<pdfrwt beam="2">  1       -2 0.86085898E-01 0.24138101E+04</pdfrwt>
<totfact> 0.31856357E+00</totfact>
</mgrwt>
</event>
<event>
12    1  0.1536832E-007  0.1074283E+04  0.7818608E-02  0.9230626E-01
         -2   -1    0    0    0  501 -0.00000000000E+00  0.00000000000E+00  0.14660763087E+03  0.14660763087E+03  0.00000000000E+00 0.  1.
          2   -1    0    0  501    0  0.00000000000E+00 -0.00000000000E+00 -0.19679816001E+04  0.19679816001E+04  0.00000000000E+00 0. -1.
         23    2    1    2    0    0 -0.18525166541E+02 -0.81574047737E+02 -0.75837714542E+02  0.14497256437E+03  0.90929524438E+02 0.  0.
        254    2    1    2    0    0  0.18525166541E+02  0.81574047737E+02 -0.17455362547E+04  0.19696166666E+04  0.90856782346E+03 0.  0.
        -24    2    4    4    0    0  0.43078048913E+03  0.16868786356E+03 -0.10849764216E+04  0.11820432612E+04  0.77620942857E+02 0.  0.
         24    2    4    4    0    0 -0.41225532259E+03 -0.87113815821E+02 -0.66055983312E+03  0.78757340543E+03  0.79933146456E+02 0.  0.
         13    1    3    3    0    0  0.51241037472E+01  0.62816944697E+01 -0.49633415723E+02  0.50291073572E+02  0.00000000000E+00 0. -1.
        -13    1    3    3    0    0 -0.23649270288E+02 -0.87855742207E+02 -0.26204298818E+02  0.94681490801E+02  0.00000000000E+00 0.  1.
          2    1    6    6  502    0 -0.27853596654E+03 -0.92597187161E+02 -0.48354345769E+03  0.56565961426E+03  0.00000000000E+00 0. -1.
          1    1    5    5  503    0  0.37202459953E+03  0.13333751327E+03 -0.85216223187E+03  0.93934107997E+03  0.00000000000E+00 0. -1.
         -2    1    5    5    0  503  0.58755889599E+02  0.35350350285E+02 -0.23281418970E+03  0.24270218119E+03  0.00000000000E+00 0.  1.
         -1    1    6    6    0  502 -0.13371935605E+03  0.54833713395E+01 -0.17701637543E+03  0.22191379117E+03  0.00000000000E+00 0.  1.
<mgrwt>
<rscale>  0 0.10742832E+04</rscale>
<asrwt>0</asrwt>
<pdfrwt beam="1">  1        2 0.30276639E+00 0.10742832E+04</pdfrwt>
<pdfrwt beam="2">  1       -2 0.22555021E-01 0.10742832E+04</pdfrwt>
<totfact> 0.11979226E+02</totfact>
</mgrwt>
</event>
<event>
12    1  0.2029600E-007  0.1983081E+04  0.7818608E-02  0.8614572E-01
          2   -1    0    0  501    0  0.00000000000E+00  0.00000000000E+00  0.21945654807E+04  0.21945654807E+04  0.00000000000E+00 0. -1.
         -2   -1    0    0    0  501 -0.00000000000E+00 -0.00000000000E+00 -0.44799432328E+03  0.44799432328E+03  0.00000000000E+00 0.  1.
         23    2    1    2    0    0 -0.44818579530E+03 -0.18188199717E+02  0.15517585708E+04  0.16173814076E+04  0.82259575410E+02 0.  0.
        254    2    1    2    0    0  0.44818579530E+03  0.18188199717E+02  0.19481258664E+03  0.10251783964E+04  0.90102024555E+03 0.  0.
        -24    2    4    4    0    0  0.17436818857E+03  0.41264147512E+03 -0.85881997725E+02  0.46333313841E+03  0.81391814343E+02 0.  0.
         24    2    4    4    0    0  0.27381760672E+03 -0.39445327540E+03  0.28069458436E+03  0.56184525802E+03  0.79442910613E+02 0.  0.
         11    1    3    3    0    0 -0.17165594015E+03 -0.35091791497E+02  0.50272966114E+03  0.53238548798E+03  0.00000000000E+00 0.  1.
        -11    1    3    3    0    0 -0.27652985515E+03  0.16903591780E+02  0.10490289097E+04  0.10849959196E+04  0.00000000000E+00 0. -1.
          4    1    6    6  502    0  0.23063025630E+03 -0.29754670491E+03  0.18722103205E+03  0.42044746588E+03  0.00000000000E+00 0. -1.
          1    1    5    5  503    0  0.45660631593E+02  0.20995224771E+03 -0.31585719928E+02  0.21716928259E+03  0.00000000000E+00 0. -1.
         -2    1    5    5    0  503  0.12870755698E+03  0.20268922741E+03 -0.54296277797E+02  0.24616385582E+03  0.00000000000E+00 0.  1.
         -3    1    6    6    0  502  0.43187350424E+02 -0.96906570495E+02  0.93473552311E+02  0.14139779215E+03  0.00000000000E+00 0.  1.
<mgrwt>
<rscale>  0 0.19830813E+04</rscale>
<asrwt>0</asrwt>
<pdfrwt beam="1">  1        2 0.33762545E+00 0.19830813E+04</pdfrwt>
<pdfrwt beam="2">  1       -2 0.68922205E-01 0.19830813E+04</pdfrwt>
<totfact> 0.93036909E+00</totfact>
</mgrwt>
</event>
<event>
12    1  0.1536832E-007  0.1822251E+04  0.7818608E-02  0.8694555E-01
          1   -1    0    0  501    0  0.00000000000E+00  0.00000000000E+00  0.13290142252E+04  0.13290142252E+04  0.00000000000E+00 0. -1.
         -1   -1    0    0    0  501 -0.00000000000E+00 -0.00000000000E+00 -0.62463559471E+03  0.62463559471E+03  0.00000000000E+00 0.  1.
         23    2    1    2    0    0  0.48369897302E+03 -0.18188473068E+03  0.71510663857E+03  0.88695051350E+03  0.90867800208E+02 0.  0.
        254    2    1    2    0    0 -0.48369897302E+03  0.18188473068E+03 -0.10728008108E+02  0.10666993064E+04  0.93310533613E+03 0.  0.
        -24    2    4    4    0    0 -0.38347121872E+03  0.45873525787E+03 -0.27514885870E+03  0.66304134271E+03  0.80179269742E+02 0.  0.
         24    2    4    4    0    0 -0.10022775430E+03 -0.27685052719E+03  0.26442085059E+03  0.40365796367E+03  0.79558458170E+02 0.  0.
         13    1    3    3    0    0  0.18382004431E+03 -0.97340903184E+02  0.34826942861E+03  0.40565583323E+03  0.00000000000E+00 0. -1.
        -13    1    3    3    0    0  0.29987892871E+03 -0.84543827501E+02  0.36683720996E+03  0.48129468027E+03  0.00000000000E+00 0.  1.
          4    1    6    6  502    0 -0.61202186865E+01 -0.83632903919E+02  0.39936823635E+02  0.92880943023E+02  0.00000000000E+00 0. -1.
          3    1    5    5  503    0 -0.37285880902E+03  0.41401310555E+03 -0.25050042143E+03  0.61088542639E+03  0.00000000000E+00 0. -1.
         -4    1    5    5    0  503 -0.10612409701E+02  0.44722152323E+02 -0.24648437272E+02  0.52155916327E+02  0.00000000000E+00 0.  1.
         -3    1    6    6    0  502 -0.94107535610E+02 -0.19321762327E+03  0.22448402696E+03  0.31077702064E+03  0.00000000000E+00 0.  1.
<mgrwt>
<rscale>  0 0.18222509E+04</rscale>
<asrwt>0</asrwt>
<pdfrwt beam="1">  1        1 0.20446373E+00 0.18222509E+04</pdfrwt>
<pdfrwt beam="2">  1       -1 0.96097784E-01 0.18222509E+04</pdfrwt>
<totfact> 0.84754480E+00</totfact>
</mgrwt>
</event>
<event>
12    1  0.1536832E-007  0.1379137E+04  0.7818608E-02  0.8969060E-01
          1   -1    0    0  501    0  0.00000000000E+00  0.00000000000E+00  0.17063657563E+04  0.17063657563E+04  0.00000000000E+00 0. -1.
         -1   -1    0    0    0  501 -0.00000000000E+00 -0.00000000000E+00 -0.27866525694E+03  0.27866525694E+03  0.00000000000E+00 0.  1.
         23    2    1    2    0    0  0.31030988300E+03 -0.17257174278E+03  0.21919108207E+03  0.42714605427E+03  0.91300554935E+02 0.  0.
        254    2    1    2    0    0 -0.31030988300E+03  0.17257174278E+03  0.12085094173E+04  0.15578849590E+04  0.91675367674E+03 0.  0.
        -24    2    4    4    0    0 -0.53890544936E+03  0.30379799736E+03  0.50601327826E+03  0.80358135752E+03  0.83553897716E+02 0.  0.
         24    2    4    4    0    0  0.22859556636E+03 -0.13122625458E+03  0.70249613906E+03  0.75430360148E+03  0.77439233957E+02 0.  0.
         13    1    3    3    0    0  0.10750779935E+03 -0.38689937055E+02  0.27210044505E+02  0.11745307434E+03  0.00000000000E+00 0.  1.
        -13    1    3    3    0    0  0.20280208365E+03 -0.13388180572E+03  0.19198103756E+03  0.30969297994E+03  0.00000000000E+00 0. -1.
          2    1    6    6  502    0  0.95346593852E+02 -0.97438219811E+02  0.38080601002E+03  0.40447298663E+03  0.00000000000E+00 0. -1.
          3    1    5    5  503    0 -0.26238601888E+03  0.18938176872E+03  0.23591300286E+03  0.40045826518E+03  0.00000000000E+00 0. -1.
         -2    1    5    5    0  503 -0.27651943048E+03  0.11441622864E+03  0.27010027540E+03  0.40312309234E+03  0.00000000000E+00 0.  1.
         -1    1    6    6    0  502  0.13324897251E+03 -0.33788034771E+02  0.32169012903E+03  0.34983061485E+03  0.00000000000E+00 0.  1.
<mgrwt>
<rscale>  0 0.13791372E+04</rscale>
<asrwt>0</asrwt>
<pdfrwt beam="1">  1        1 0.26251780E+00 0.13791372E+04</pdfrwt>
<pdfrwt beam="2">  1       -1 0.42871579E-01 0.13791372E+04</pdfrwt>
<totfact> 0.24704273E+01</totfact>
</mgrwt>
</event>
<event>
12    1  0.1536832E-007  0.1861702E+04  0.7818608E-02  0.8674158E-01
          2   -1    0    0  501    0  0.00000000000E+00  0.00000000000E+00  0.19068281141E+04  0.19068281141E+04  0.00000000000E+00 0. -1.
         -2   -1    0    0    0  501 -0.00000000000E+00 -0.00000000000E+00 -0.45441086057E+03  0.45441086057E+03  0.00000000000E+00 0.  1.
         23    2    1    2    0    0 -0.16765226451E+03 -0.68063330117E+03  0.40343015572E+03  0.81369031273E+03  0.89258400319E+02 0.  0.
        254    2    1    2    0    0  0.16765226451E+03  0.68063330117E+03  0.10489870979E+04  0.15475486620E+04  0.89619415155E+03 0.  0.
        -24    2    4    4    0    0  0.49645782622E+02  0.69132266735E+03  0.25967216132E+03  0.74539017145E+03  0.88233452901E+02 0.  0.
         24    2    4    4    0    0  0.11800648188E+03 -0.10689366178E+02  0.78931493654E+03  0.80215849053E+03  0.80002391015E+02 0.  0.
         11    1    3    3    0    0 -0.10147791450E+03 -0.49710014817E+03  0.32999040271E+03  0.60522722207E+03  0.00000000000E+00 0.  1.
        -11    1    3    3    0    0 -0.66174350002E+02 -0.18353315299E+03  0.73439753007E+02  0.20846309066E+03  0.00000000000E+00 0. -1.
          2    1    6    6  502    0 -0.11755751312E+02  0.25358524079E+01  0.50019708001E+02  0.51445110797E+02  0.00000000000E+00 0. -1.
          1    1    5    5  503    0  0.57523249244E+02  0.42450980948E+03  0.19530783857E+03  0.47081063535E+03  0.00000000000E+00 0. -1.
         -2    1    5    5    0  503 -0.78774666219E+01  0.26681285787E+03  0.64364322741E+02  0.27457953610E+03  0.00000000000E+00 0.  1.
         -1    1    6    6    0  502  0.12976223320E+03 -0.13225218586E+02  0.73929522854E+03  0.75071337973E+03  0.00000000000E+00 0.  1.
<mgrwt>
<rscale>  0 0.18617018E+04</rscale>
<asrwt>0</asrwt>
<pdfrwt beam="1">  1        2 0.29335817E+00 0.18617018E+04</pdfrwt>
<pdfrwt beam="2">  1       -2 0.69909364E-01 0.18617018E+04</pdfrwt>
<totfact> 0.13181446E+01</totfact>
</mgrwt>
</event>
<event>
12    1  0.1536832E-007  0.1841073E+04  0.7818608E-02  0.8684757E-01
         -2   -1    0    0    0  501 -0.00000000000E+00  0.00000000000E+00  0.54261374779E+03  0.54261374779E+03  0.00000000000E+00 0.  1.
          2   -1    0    0  501    0  0.00000000000E+00 -0.00000000000E+00 -0.15616770158E+04  0.15616770158E+04  0.00000000000E+00 0. -1.
         23    2    1    2    0    0 -0.37295322645E+03  0.26408306299E+03  0.21167190469E+03  0.51179299960E+03  0.91066491785E+02 0.  0.
        254    2    1    2    0    0  0.37295322645E+03 -0.26408306299E+03 -0.12307351727E+04  0.15924977640E+04  0.90139119683E+03 0.  0.
        -24    2    4    4    0    0  0.99609254387E+02 -0.44600970273E+03 -0.19550070527E+03  0.50342487176E+03  0.79808628969E+02 0.  0.
         24    2    4    4    0    0  0.27334397206E+03  0.18192663974E+03 -0.10352344675E+04  0.10890728923E+04  0.80963774064E+02 0.  0.
         13    1    3    3    0    0 -0.31901848362E+03  0.21355285805E+03  0.13940390281E+03  0.40842510230E+03  0.00000000000E+00 0.  1.
        -13    1    3    3    0    0 -0.53934742830E+02  0.50530204941E+02  0.72268001885E+02  0.10336789730E+03  0.00000000000E+00 0. -1.
          4    1    6    6  502    0  0.58838973301E+02  0.72857381043E+02 -0.22101833535E+03  0.24004026186E+03  0.00000000000E+00 0. -1.
          3    1    5    5  503    0  0.91424897681E+01 -0.56209522559E+02 -0.55394595383E+02  0.79445935976E+02  0.00000000000E+00 0. -1.
         -4    1    5    5    0  503  0.90466764618E+02 -0.38980018017E+03 -0.14010610989E+03  0.42397893579E+03  0.00000000000E+00 0.  1.
         -3    1    6    6    0  502  0.21450499876E+03  0.10906925869E+03 -0.81421613212E+03  0.84903263041E+03  0.00000000000E+00 0.  1.
<mgrwt>
<rscale>  0 0.18410730E+04</rscale>
<asrwt>0</asrwt>
<pdfrwt beam="1">  1        2 0.24025800E+00 0.18410730E+04</pdfrwt>
<pdfrwt beam="2">  1       -2 0.83479038E-01 0.18410730E+04</pdfrwt>
<totfact> 0.13842262E+01</totfact>
</mgrwt>
</event>
<event>
12    1  0.1536832E-007  0.1976604E+04  0.7818608E-02  0.8617638E-01
          2   -1    0    0  501    0  0.00000000000E+00  0.00000000000E+00  0.69423836563E+03  0.69423836563E+03  0.00000000000E+00 0. -1.
         -2   -1    0    0    0  501 -0.00000000000E+00 -0.00000000000E+00 -0.14069241300E+04  0.14069241300E+04  0.00000000000E+00 0.  1.
         23    2    1    2    0    0  0.46117646257E+03  0.53031501917E+03 -0.62934045339E+03  0.94820588542E+03  0.95431890222E+02 0.  0.
        254    2    1    2    0    0 -0.46117646257E+03 -0.53031501917E+03 -0.83345311011E+02  0.11529566102E+04  0.91018940614E+03 0.  0.
        -24    2    4    4    0    0 -0.51495886520E+03 -0.33676057326E+02  0.21589163281E+03  0.56518539561E+03  0.80676047297E+02 0.  0.
         24    2    4    4    0    0  0.53782402624E+02 -0.49663896185E+03 -0.29923694382E+03  0.58777121464E+03  0.79934016251E+02 0.  0.
         13    1    3    3    0    0  0.16052128014E+02  0.23714603720E+01 -0.42915477029E+01  0.16784278947E+02  0.00000000000E+00 0. -1.
        -13    1    3    3    0    0  0.44512433456E+03  0.52794355880E+03 -0.62504890569E+03  0.93142160647E+03  0.00000000000E+00 0.  1.
          2    1    6    6  502    0  0.37969079533E+02 -0.48058732253E+03 -0.29392234476E+03  0.56462037718E+03  0.00000000000E+00 0. -1.
          3    1    5    5  503    0 -0.31702677200E+03  0.12729526549E+02  0.10889702396E+03  0.33544981270E+03  0.00000000000E+00 0. -1.
         -4    1    5    5    0  503 -0.19793209320E+03 -0.46405583875E+02  0.10699460885E+03  0.22973558291E+03  0.00000000000E+00 0.  1.
         -1    1    6    6    0  502  0.15813323090E+02 -0.16051639319E+02 -0.53145990626E+01  0.23150837462E+02  0.00000000000E+00 0.  1.
<mgrwt>
<rscale>  0 0.19766039E+04</rscale>
<asrwt>0</asrwt>
<pdfrwt beam="1">  1        2 0.10680590E+00 0.19766039E+04</pdfrwt>
<pdfrwt beam="2">  1       -2 0.21644986E+00 0.19766039E+04</pdfrwt>
<totfact> 0.40099973E+00</totfact>
</mgrwt>
</event>
<event>
12    1  0.1854701E-007  0.1750375E+04  0.7818608E-02  0.8733144E-01
         -2   -1    0    0    0  501 -0.00000000000E+00  0.00000000000E+00  0.36746580209E+03  0.36746580209E+03  0.00000000000E+00 0.  1.
          2   -1    0    0  501    0  0.00000000000E+00 -0.00000000000E+00 -0.20844204942E+04  0.20844204942E+04  0.00000000000E+00 0. -1.
         23    2    1    2    0    0  0.40761088008E+03 -0.10547681551E+03  0.35293749677E+02  0.43942681853E+03  0.12074059760E+03 0.  0.
        254    2    1    2    0    0 -0.40761088008E+03  0.10547681551E+03 -0.17522484417E+04  0.20124594777E+04  0.89573799722E+03 0.  0.
        -24    2    4    4    0    0 -0.92197897056E+02 -0.24899528278E+03 -0.13706565161E+04  0.13984282153E+04  0.80019278596E+02 0.  0.
         24    2    4    4    0    0 -0.31541298303E+03  0.35447209830E+03 -0.38159192560E+03  0.61403126244E+03  0.79285403684E+02 0.  0.
         13    1    3    3    0    0  0.22129752731E+03 -0.11706178982E+03  0.56577694036E+01  0.25041579140E+03  0.00000000000E+00 0.  1.
        -13    1    3    3    0    0  0.18631335277E+03  0.11584974307E+02  0.29635980273E+02  0.18901102713E+03  0.00000000000E+00 0. -1.
          4    1    6    6  502    0 -0.29330662482E+03  0.28915304445E+03 -0.33343869964E+03  0.52992416976E+03  0.00000000000E+00 0. -1.
          3    1    5    5  503    0 -0.66101658565E+02 -0.23314695488E+03 -0.12808557722E+04  0.13035790889E+04  0.00000000000E+00 0. -1.
         -4    1    5    5    0  503 -0.26096238491E+02 -0.15848327899E+02 -0.89800743946E+02  0.94849126374E+02  0.00000000000E+00 0.  1.
         -3    1    6    6    0  502 -0.22106358203E+02  0.65319053845E+02 -0.48153225960E+02  0.84107092677E+02  0.00000000000E+00 0.  1.
<mgrwt>
<rscale>  0 0.17503751E+04</rscale>
<asrwt>0</asrwt>
<pdfrwt beam="1">  1        2 0.32068008E+00 0.17503751E+04</pdfrwt>
<pdfrwt beam="2">  1       -2 0.56533200E-01 0.17503751E+04</pdfrwt>
<totfact> 0.16682419E+01</totfact>
</mgrwt>
</event>
<event>
12    1  0.1536832E-007  0.1188941E+04  0.7818608E-02  0.9122592E-01
          2   -1    0    0  501    0  0.00000000000E+00  0.00000000000E+00  0.32837958705E+04  0.32837958705E+04  0.00000000000E+00 0. -1.
         -2   -1    0    0    0  501 -0.00000000000E+00 -0.00000000000E+00 -0.10761791920E+03  0.10761791920E+03  0.00000000000E+00 0.  1.
         23    2    1    2    0    0  0.10285377079E+03 -0.22119207626E+03  0.58221188923E+03  0.63812119915E+03  0.93397794805E+02 0.  0.
        254    2    1    2    0    0 -0.10285377079E+03  0.22119207626E+03  0.25939660621E+04  0.27532925906E+04  0.89019959856E+03 0.  0.
        -24    2    4    4    0    0  0.53721916555E+02  0.30336677740E+02 -0.37052641973E+02  0.10934596909E+03  0.82324263406E+02 0.  0.
         24    2    4    4    0    0 -0.15657568735E+03  0.19085539852E+03  0.26310187041E+04  0.26439466215E+04  0.85162122431E+02 0.  0.
         11    1    3    3    0    0  0.81135722156E+02 -0.11165372115E+03  0.22596953318E+03  0.26478630777E+03  0.00000000000E+00 0.  1.
        -11    1    3    3    0    0  0.21718048637E+02 -0.10953835511E+03  0.35624235604E+03  0.37333489137E+03  0.00000000000E+00 0. -1.
          4    1    6    6  502    0 -0.90228445443E+02  0.46828726888E+02  0.11373932607E+04  0.11419271131E+04  0.00000000000E+00 0. -1.
          1    1    5    5  503    0  0.27159810226E+02  0.32612269628E+02  0.19589505054E+02  0.46743599883E+02  0.00000000000E+00 0. -1.
         -2    1    5    5    0  503  0.26562106329E+02 -0.22755918879E+01 -0.56642147027E+02  0.62602369211E+02  0.00000000000E+00 0.  1.
         -3    1    6    6    0  502 -0.66347241904E+02  0.14402667164E+03  0.14936254433E+04  0.15020195084E+04  0.00000000000E+00 0.  1.
<mgrwt>
<rscale>  0 0.11889412E+04</rscale>
<asrwt>0</asrwt>
<pdfrwt beam="1">  1        2 0.50519929E+00 0.11889412E+04</pdfrwt>
<pdfrwt beam="2">  1       -2 0.16556605E-01 0.11889412E+04</pdfrwt>
<totfact> 0.34172792E+01</totfact>
</mgrwt>
</event>
<event>
12    1  0.1536832E-007  0.2153616E+04  0.7818608E-02  0.8537986E-01
         -1   -1    0    0    0  501 -0.00000000000E+00  0.00000000000E+00  0.49099605701E+03  0.49099605701E+03  0.00000000000E+00 0.  1.
          1   -1    0    0  501    0  0.00000000000E+00 -0.00000000000E+00 -0.23615566424E+04  0.23615566424E+04  0.00000000000E+00 0. -1.
         23    2    1    2    0    0 -0.13622286712E+03 -0.87196818371E+03 -0.89228428966E+03  0.12587565711E+04  0.97013755763E+02 0.  0.
        254    2    1    2    0    0  0.13622286712E+03  0.87196818371E+03 -0.97827629568E+03  0.15937961283E+04  0.89681458776E+03 0.  0.
        -24    2    4    4    0    0  0.51180285142E+03  0.46416593804E+03 -0.49486750160E+03  0.85367699222E+03  0.80488422468E+02 0.  0.
         24    2    4    4    0    0 -0.37557998430E+03  0.40780224567E+03 -0.48340879409E+03  0.74011913603E+03  0.82032171366E+02 0.  0.
         13    1    3    3    0    0 -0.14030378171E+03 -0.82173464643E+03 -0.81048478401E+03  0.11626773264E+04  0.00000000000E+00 0. -1.
        -13    1    3    3    0    0  0.40809145878E+01 -0.50233537274E+02 -0.81799505648E+02  0.96079244663E+02  0.00000000000E+00 0.  1.
          4    1    6    6  502    0 -0.19032011086E+03  0.15173681310E+03 -0.18873866515E+03  0.30800663754E+03  0.00000000000E+00 0. -1.
          3    1    5    5  503    0  0.12821596228E+03  0.16444749966E+03 -0.13723079428E+03  0.24962893267E+03  0.00000000000E+00 0. -1.
         -4    1    5    5    0  503  0.38358688915E+03  0.29971843839E+03 -0.35763670731E+03  0.60404805955E+03  0.00000000000E+00 0.  1.
         -3    1    6    6    0  502 -0.18525987345E+03  0.25606543256E+03 -0.29467012893E+03  0.43211249849E+03  0.00000000000E+00 0.  1.
<mgrwt>
<rscale>  0 0.21536156E+04</rscale>
<asrwt>0</asrwt>
<pdfrwt beam="1">  1        1 0.36331641E+00 0.21536156E+04</pdfrwt>
<pdfrwt beam="2">  1       -1 0.75537855E-01 0.21536156E+04</pdfrwt>
<totfact> 0.27224632E+00</totfact>
</mgrwt>
</event>
<event>
12    1  0.1536832E-007  0.1235433E+04  0.7818608E-02  0.9082396E-01
         -2   -1    0    0    0  501 -0.00000000000E+00  0.00000000000E+00  0.69829314075E+03  0.69829314075E+03  0.00000000000E+00 0.  1.
          2   -1    0    0  501    0  0.00000000000E+00 -0.00000000000E+00 -0.54643728676E+03  0.54643728676E+03  0.00000000000E+00 0. -1.
         23    2    1    2    0    0 -0.21426241649E+02  0.25103106625E+03  0.11268148525E+03  0.29051339542E+03  0.90693085460E+02 0.  0.
        254    2    1    2    0    0  0.21426241649E+02 -0.25103106625E+03  0.39174368742E+02  0.95421703209E+03  0.91952152401E+03 0.  0.
        -24    2    4    4    0    0 -0.80193879943E+02  0.29552408840E+03  0.19478357930E+03  0.37150448092E+03  0.79431677420E+02 0.  0.
         24    2    4    4    0    0  0.10162012159E+03 -0.54655515465E+03 -0.15560921055E+03  0.58271255117E+03  0.79312701957E+02 0.  0.
         11    1    3    3    0    0 -0.50203211682E+00  0.69228157251E+02  0.77930840813E+02  0.10424013499E+03  0.00000000000E+00 0.  1.
        -11    1    3    3    0    0 -0.20924209533E+02  0.18180290900E+03  0.34750644433E+02  0.18627326043E+03  0.00000000000E+00 0. -1.
          2    1    6    6  502    0  0.10469589691E+03 -0.52077980075E+03 -0.13138357451E+03  0.54720606297E+03  0.00000000000E+00 0. -1.
          1    1    5    5  503    0 -0.76116281772E+02  0.29542098477E+03  0.20007385054E+03  0.36482433070E+03  0.00000000000E+00 0. -1.
         -2    1    5    5    0  503 -0.40775981707E+01  0.10310362753E+00 -0.52902712484E+01  0.66801502290E+01  0.00000000000E+00 0.  1.
         -1    1    6    6    0  502 -0.30757753197E+01 -0.25775353899E+02 -0.24225636041E+02  0.35506488196E+02  0.00000000000E+00 0.  1.
<mgrwt>
<rscale>  0 0.12354326E+04</rscale>
<asrwt>0</asrwt>
<pdfrwt beam="1">  1        2 0.84067275E-01 0.12354326E+04</pdfrwt>
<pdfrwt beam="2">  1       -2 0.10742971E+00 0.12354326E+04</pdfrwt>
<totfact> 0.37997703E+01</totfact>
</mgrwt>
</event>
<event>
12    1  0.1536832E-007  0.1385240E+04  0.7818608E-02  0.8964572E-01
          2   -1    0    0  501    0  0.00000000000E+00  0.00000000000E+00  0.24786321998E+04  0.24786321998E+04  0.00000000000E+00 0. -1.
         -2   -1    0    0    0  501 -0.00000000000E+00 -0.00000000000E+00 -0.19354330317E+03  0.19354330317E+03  0.00000000000E+00 0.  1.
         23    2    1    2    0    0 -0.18711008985E+03 -0.32090266326E+03  0.90952610023E+03  0.98658148596E+03  0.90092155183E+02 0.  0.
        254    2    1    2    0    0  0.18711008985E+03  0.32090266326E+03  0.13755627964E+04  0.16855940170E+04  0.90059173789E+03 0.  0.
        -24    2    4    4    0    0 -0.12192877714E+03 -0.26452615640E+03  0.51102961704E+03  0.59414754381E+03  0.83781383432E+02 0.  0.
         24    2    4    4    0    0  0.30903886699E+03  0.58542881966E+03  0.86453317938E+03  0.10914464732E+04  0.74872301116E+02 0.  0.
         13    1    3    3    0    0 -0.26535419503E+02 -0.11769986075E+03  0.34477560234E+03  0.36527743111E+03  0.00000000000E+00 0. -1.
        -13    1    3    3    0    0 -0.16057467035E+03 -0.20320280251E+03  0.56475049789E+03  0.62130405485E+03  0.00000000000E+00 0.  1.
          4    1    6    6  502    0  0.25983156077E+03  0.49397194109E+03  0.77000151890E+03  0.95101159702E+03  0.00000000000E+00 0. -1.
          3    1    5    5  503    0 -0.66726061044E+02 -0.20271800736E+03  0.41956052584E+03  0.47072071610E+03  0.00000000000E+00 0. -1.
         -4    1    5    5    0  503 -0.55202716093E+02 -0.61808149037E+02  0.91469091204E+02  0.12342682770E+03  0.00000000000E+00 0.  1.
         -3    1    6    6    0  502  0.49207306217E+02  0.91456878564E+02  0.94531660484E+02  0.14043487621E+03  0.00000000000E+00 0.  1.
<mgrwt>
<rscale>  0 0.13852403E+04</rscale>
<asrwt>0</asrwt>
<pdfrwt beam="1">  1        2 0.38132801E+00 0.13852403E+04</pdfrwt>
<pdfrwt beam="2">  1       -2 0.29775895E-01 0.13852403E+04</pdfrwt>
<totfact> 0.36423443E+01</totfact>
</mgrwt>
</event>
<event>
12    1  0.1536832E-007  0.2037219E+04  0.7818608E-02  0.8589415E-01
         -2   -1    0    0    0  501 -0.00000000000E+00  0.00000000000E+00  0.56683160540E+03  0.56683160540E+03  0.00000000000E+00 0.  1.
          2   -1    0    0  501    0  0.00000000000E+00 -0.00000000000E+00 -0.18304643649E+04  0.18304643649E+04  0.00000000000E+00 0. -1.
         23    2    1    2    0    0 -0.19069013080E+03 -0.34669851034E+03 -0.13505226420E+04  0.14102979165E+04  0.92012084586E+02 0.  0.
        254    2    1    2    0    0  0.19069013080E+03  0.34669851034E+03  0.86889882518E+02  0.98699805378E+03  0.90002929031E+03 0.  0.
        -24    2    4    4    0    0  0.45450482894E+03  0.12489563214E+03 -0.21206592394E+03  0.52333758645E+03  0.82077492883E+02 0.  0.
         24    2    4    4    0    0 -0.26381469814E+03  0.22180287820E+03  0.29895580646E+03  0.46366046732E+03  0.82533284263E+02 0.  0.
         13    1    3    3    0    0 -0.14141519851E+03 -0.30781901817E+03 -0.12073412188E+04  0.12539631673E+04  0.00000000000E+00 0. -1.
        -13    1    3    3    0    0 -0.49274932290E+02 -0.38879492168E+02 -0.14318142319E+03  0.15633474920E+03  0.00000000000E+00 0.  1.
          4    1    6    6  502    0 -0.17203016110E+03  0.17140666965E+03  0.16483105048E+03  0.29350280736E+03  0.00000000000E+00 0. -1.
          1    1    5    5  503    0  0.27922301441E+03  0.74062361344E+02 -0.85584379065E+02  0.30128958011E+03  0.00000000000E+00 0. -1.
         -2    1    5    5    0  503  0.17528181453E+03  0.50833270798E+02 -0.12648154488E+03  0.22204800634E+03  0.00000000000E+00 0.  1.
         -3    1    6    6    0  502 -0.91784537042E+02  0.50396208547E+02  0.13412475598E+03  0.17015765996E+03  0.00000000000E+00 0.  1.
<mgrwt>
<rscale>  0 0.20372187E+04</rscale>
<asrwt>0</asrwt>
<pdfrwt beam="1">  1        2 0.28160990E+00 0.20372187E+04</pdfrwt>
<pdfrwt beam="2">  1       -2 0.87204863E-01 0.20372187E+04</pdfrwt>
<totfact> 0.87352977E+00</totfact>
</mgrwt>
</event>
<event>
12    1  0.1536832E-007  0.1298616E+04  0.7818608E-02  0.9030663E-01
         -2   -1    0    0    0  501 -0.00000000000E+00  0.00000000000E+00  0.22030952924E+03  0.22030952924E+03  0.00000000000E+00 0.  1.
          2   -1    0    0  501    0  0.00000000000E+00 -0.00000000000E+00 -0.19136765285E+04  0.19136765285E+04  0.00000000000E+00 0. -1.
         23    2    1    2    0    0  0.24837461977E+03  0.21524610318E+03 -0.50040795708E+03  0.60567548188E+03  0.91726927118E+02 0.  0.
        254    2    1    2    0    0 -0.24837461977E+03 -0.21524610318E+03 -0.11929590422E+04  0.15283105759E+04  0.89697330134E+03 0.  0.
        -24    2    4    4    0    0  0.33052197923E+03 -0.13107437030E+03 -0.48498062879E+03  0.60646817985E+03  0.78563182043E+02 0.  0.
         24    2    4    4    0    0 -0.57889659900E+03 -0.84171732885E+02 -0.70797841342E+03  0.92184239604E+03  0.79710829413E+02 0.  0.
         13    1    3    3    0    0  0.14609880478E+03  0.69411996677E+02 -0.21134048855E+03  0.26613471803E+03  0.00000000000E+00 0.  1.
        -13    1    3    3    0    0  0.10227581499E+03  0.14583410651E+03 -0.28906746852E+03  0.33954076384E+03  0.00000000000E+00 0. -1.
          2    1    6    6  502    0 -0.11560171975E+03 -0.31473180702E+02 -0.10281210515E+03  0.15787541822E+03  0.00000000000E+00 0. -1.
          3    1    5    5  503    0  0.12886275436E+03 -0.69309737407E+02 -0.14242065847E+03  0.20418886630E+03  0.00000000000E+00 0. -1.
         -4    1    5    5    0  503  0.20165922486E+03 -0.61764632891E+02 -0.34255997032E+03  0.40227931355E+03  0.00000000000E+00 0.  1.
         -1    1    6    6    0  502 -0.46329487925E+03 -0.52698552182E+02 -0.60516630827E+03  0.76396697783E+03  0.00000000000E+00 0.  1.
<mgrwt>
<rscale>  0 0.12986165E+04</rscale>
<asrwt>0</asrwt>
<pdfrwt beam="1">  1        2 0.29441176E+00 0.12986165E+04</pdfrwt>
<pdfrwt beam="2">  1       -2 0.33893775E-01 0.12986165E+04</pdfrwt>
<totfact> 0.59611471E+01</totfact>
</mgrwt>
</event>
<event>
12    1  0.1536832E-007  0.1452595E+04  0.7818608E-02  0.8916604E-01
         -1   -1    0    0    0  501 -0.00000000000E+00  0.00000000000E+00  0.10977683616E+04  0.10977683616E+04  0.00000000000E+00 0.  1.
          1   -1    0    0  501    0  0.00000000000E+00 -0.00000000000E+00 -0.48052750453E+03  0.48052750453E+03  0.00000000000E+00 0. -1.
         23    2    1    2    0    0 -0.31043973129E+03 -0.98596341557E+02  0.51698457768E+03  0.61771116470E+03  0.90553653203E+02 0.  0.
        254    2    1    2    0    0  0.31043973129E+03  0.98596341557E+02  0.10025627941E+03  0.96058470144E+03  0.89809664388E+03 0.  0.
        -24    2    4    4    0    0  0.18810949037E+03 -0.13083712712E+03  0.45352777312E+03  0.51457419566E+03  0.81213469578E+02 0.  0.
         24    2    4    4    0    0  0.12233024091E+03  0.22943346868E+03 -0.35327149371E+03  0.44601050579E+03  0.80747870613E+02 0.  0.
         11    1    3    3    0    0 -0.24281924572E+03 -0.39091549804E+02  0.34678220685E+03  0.42514378079E+03  0.00000000000E+00 0.  1.
        -11    1    3    3    0    0 -0.67620485568E+02 -0.59504791753E+02  0.17020237083E+03  0.19256738391E+03  0.00000000000E+00 0. -1.
          4    1    6    6  502    0  0.75779838490E+02  0.17204189802E+03 -0.19249022326E+03  0.26906037361E+03  0.00000000000E+00 0. -1.
          1    1    5    5  503    0  0.19025225626E+03 -0.13202304028E+03  0.40922091360E+03  0.47019970258E+03  0.00000000000E+00 0. -1.
         -2    1    5    5    0  503 -0.21427658829E+01  0.11859131527E+01  0.44306859517E+02  0.44374493077E+02  0.00000000000E+00 0.  1.
         -3    1    6    6    0  502  0.46550402423E+02  0.57391570659E+02 -0.16078127046E+03  0.17695013218E+03  0.00000000000E+00 0.  1.
<mgrwt>
<rscale>  0 0.14525948E+04</rscale>
<asrwt>0</asrwt>
<pdfrwt beam="1">  1        1 0.73927309E-01 0.14525948E+04</pdfrwt>
<pdfrwt beam="2">  1       -1 0.16888744E+00 0.14525948E+04</pdfrwt>
<totfact> 0.11398423E+01</totfact>
</mgrwt>
</event>
<event>
12    1  0.1536832E-007  0.1247275E+04  0.7818608E-02  0.9072454E-01
          2   -1    0    0  501    0  0.00000000000E+00  0.00000000000E+00  0.21270566190E+04  0.21270566190E+04  0.00000000000E+00 0. -1.
         -2   -1    0    0    0  501 -0.00000000000E+00 -0.00000000000E+00 -0.18284601205E+03  0.18284601205E+03  0.00000000000E+00 0.  1.
         23    2    1    2    0    0  0.53464306166E+02  0.14620233517E+02 -0.51619790059E+02  0.11738649403E+03  0.89681675906E+02 0.  0.
        254    2    1    2    0    0 -0.53464306166E+02 -0.14620233517E+02  0.19958303970E+04  0.21925161370E+04  0.90593369194E+03 0.  0.
        -24    2    4    4    0    0  0.39437470001E+03 -0.11772452147E+03  0.71062555559E+03  0.82513960712E+03  0.80474990054E+02 0.  0.
         24    2    4    4    0    0 -0.44783900618E+03  0.10310428795E+03  0.12852048414E+04  0.13673765299E+04  0.82321445843E+02 0.  0.
         13    1    3    3    0    0  0.30504786304E+02 -0.41053073938E+01  0.22129046575E+02  0.37908973061E+02  0.00000000000E+00 0. -1.
        -13    1    3    3    0    0  0.22959519862E+02  0.18725540911E+02 -0.73748836634E+02  0.79477520970E+02  0.00000000000E+00 0.  1.
          2    1    6    6  502    0 -0.29282072995E+03  0.95289334379E+02  0.93252032502E+03  0.98204795897E+03  0.00000000000E+00 0. -1.
          3    1    5    5  503    0  0.26705162116E+03 -0.51026663660E+02  0.51531188882E+03  0.58263765028E+03  0.00000000000E+00 0. -1.
         -4    1    5    5    0  503  0.12732307885E+03 -0.66697857812E+02  0.19531366677E+03  0.24250195684E+03  0.00000000000E+00 0.  1.
         -1    1    6    6    0  502 -0.15501827623E+03  0.78149535751E+01  0.35268451638E+03  0.38532857091E+03  0.00000000000E+00 0.  1.
<mgrwt>
<rscale>  0 0.12472751E+04</rscale>
<asrwt>0</asrwt>
<pdfrwt beam="1">  1        2 0.32723946E+00 0.12472751E+04</pdfrwt>
<pdfrwt beam="2">  1       -2 0.28130157E-01 0.12472751E+04</pdfrwt>
<totfact> 0.64638531E+01</totfact>
</mgrwt>
</event>
<event>
12    1  0.1536832E-007  0.4206272E+04  0.7818608E-02  0.7964180E-01
          1   -1    0    0  501    0  0.00000000000E+00  0.00000000000E+00  0.40863353598E+04  0.40863353598E+04  0.00000000000E+00 0. -1.
         -1   -1    0    0    0  501 -0.00000000000E+00 -0.00000000000E+00 -0.10824319675E+04  0.10824319675E+04  0.00000000000E+00 0.  1.
         23    2    1    2    0    0  0.66510941313E+03  0.15974663242E+04  0.26840508830E+04  0.31947696133E+04  0.90302555753E+02 0.  0.
        254    2    1    2    0    0 -0.66510941313E+03 -0.15974663242E+04  0.31985250934E+03  0.19739977139E+04  0.89447870772E+03 0.  0.
        -24    2    4    4    0    0 -0.76108617185E+02 -0.73772212524E+03 -0.24613513257E+03  0.78540461704E+03  0.79066132439E+02 0.  0.
         24    2    4    4    0    0 -0.58900079594E+03 -0.85974419891E+03  0.56598764190E+03  0.11885930969E+04  0.79558242653E+02 0.  0.
         11    1    3    3    0    0  0.12046418622E+03  0.37560439146E+03  0.64533594894E+03  0.75633905495E+03  0.00000000000E+00 0.  1.
        -11    1    3    3    0    0  0.54464522690E+03  0.12218619327E+04  0.20387149341E+04  0.24384305584E+04  0.00000000000E+00 0. -1.
          4    1    6    6  502    0 -0.11678289564E+03 -0.23020605537E+03  0.14654229257E+03  0.29682943950E+03  0.00000000000E+00 0. -1.
          1    1    5    5  503    0  0.36363303089E+01 -0.16773850825E+03 -0.83060654585E+02  0.18721245254E+03  0.00000000000E+00 0. -1.
         -2    1    5    5    0  503 -0.79744947494E+02 -0.56998361699E+03 -0.16307447798E+03  0.59819216449E+03  0.00000000000E+00 0.  1.
         -3    1    6    6    0  502 -0.47221790030E+03 -0.62953814354E+03  0.41944534934E+03  0.89176365738E+03  0.00000000000E+00 0.  1.
<mgrwt>
<rscale>  0 0.42062715E+04</rscale>
<asrwt>0</asrwt>
<pdfrwt beam="1">  1        1 0.62866697E+00 0.42062715E+04</pdfrwt>
<pdfrwt beam="2">  1       -1 0.16652800E+00 0.42062715E+04</pdfrwt>
<totfact> 0.16086575E-02</totfact>
</mgrwt>
</event>
<event>
12    1  0.1536832E-007  0.1869151E+04  0.7818608E-02  0.8670366E-01
          1   -1    0    0  501    0  0.00000000000E+00  0.00000000000E+00  0.18653633080E+04  0.18653633080E+04  0.00000000000E+00 0.  1.
         -1   -1    0    0    0  501 -0.00000000000E+00 -0.00000000000E+00 -0.46823659928E+03  0.46823659928E+03  0.00000000000E+00 0. -1.
         23    2    1    2    0    0 -0.35422548346E+02 -0.32562791337E+03 -0.25942816197E+03  0.42806906467E+03  0.93015364385E+02 0.  0.
        254    2    1    2    0    0  0.35422548346E+02  0.32562791337E+03  0.16565548707E+04  0.19055308426E+04  0.88294136703E+03 0.  0.
        -24    2    4    4    0    0 -0.86809020248E+02 -0.25091432117E+03  0.23124724231E+03  0.36109498355E+03  0.80128006974E+02 0.  0.
         24    2    4    4    0    0  0.12223156859E+03  0.57654223454E+03  0.14253076284E+04  0.15444358590E+04  0.80242025423E+02 0.  0.
         11    1    3    3    0    0 -0.26710677122E+01 -0.10459331352E+03 -0.32411765263E+02  0.10953272737E+03  0.00000000000E+00 0.  1.
        -11    1    3    3    0    0 -0.32751480634E+02 -0.22103459984E+03 -0.22701639671E+03  0.31853633731E+03  0.00000000000E+00 0. -1.
          2    1    6    6  502    0  0.71649885098E+02  0.18109436670E+03  0.41966443720E+03  0.46265226200E+03  0.00000000000E+00 0. -1.
          3    1    5    5  503    0 -0.35607735229E+02 -0.66004939942E+02  0.11330265474E+03  0.13587514296E+03  0.00000000000E+00 0. -1.
         -4    1    5    5    0  503 -0.51201285019E+02 -0.18490938123E+03  0.11794458757E+03  0.22521984058E+03  0.00000000000E+00 0.  1.
         -1    1    6    6    0  502  0.50581683496E+02  0.39544786784E+03  0.10056431912E+04  0.10817835970E+04  0.00000000000E+00 0.  1.
<mgrwt>
<rscale>  0 0.18691510E+04</rscale>
<asrwt>0</asrwt>
<pdfrwt beam="1">  1        1 0.28697897E+00 0.18691510E+04</pdfrwt>
<pdfrwt beam="2">  1       -1 0.72036401E-01 0.18691510E+04</pdfrwt>
<totfact> 0.67088838E+00</totfact>
</mgrwt>
</event>
<event>
12    1  0.1611962E-007  0.1975235E+04  0.7818608E-02  0.8618287E-01
         -2   -1    0    0    0  501 -0.00000000000E+00  0.00000000000E+00  0.50344712096E+03  0.50344712096E+03  0.00000000000E+00 0.  1.
          2   -1    0    0  501    0  0.00000000000E+00 -0.00000000000E+00 -0.19374204150E+04  0.19374204150E+04  0.00000000000E+00 0. -1.
         23    2    1    2    0    0  0.35776656379E+03  0.60316829358E+03 -0.13887211065E+03  0.72031294941E+03  0.88070298228E+02 0.  0.
        254    2    1    2    0    0 -0.35776656379E+03 -0.60316829358E+03 -0.12951011834E+04  0.17205545865E+04  0.88950104301E+03 0.  0.
        -24    2    4    4    0    0 -0.39902720855E+03  0.38461084444E+02 -0.82305234108E+03  0.91897627272E+03  0.80001659310E+02 0.  0.
         24    2    4    4    0    0  0.41260644757E+02 -0.64162937802E+03 -0.47204884231E+03  0.80157831383E+03  0.79416522963E+02 0.  0.
         13    1    3    3    0    0  0.22383438430E+03  0.33605842162E+03 -0.11852109646E+03  0.42081390738E+03  0.00000000000E+00 0. -1.
        -13    1    3    3    0    0  0.13393217949E+03  0.26710987196E+03 -0.20351014188E+02  0.29949904203E+03  0.00000000000E+00 0.  1.
          4    1    6    6  502    0 -0.21178403341E+02 -0.11964695197E+03 -0.10272199727E+03  0.15910916569E+03  0.00000000000E+00 0. -1.
          3    1    5    5  503    0 -0.83559114134E+02  0.36894991651E+02 -0.22463223276E+03  0.24249331117E+03  0.00000000000E+00 0. -1.
         -4    1    5    5    0  503 -0.31546809441E+03  0.15660927930E+01 -0.59842010831E+03  0.67648296155E+03  0.00000000000E+00 0.  1.
         -3    1    6    6    0  502  0.62439048098E+02 -0.52198242606E+03 -0.36932684504E+03  0.64246914814E+03  0.00000000000E+00 0.  1.
<mgrwt>
<rscale>  0 0.19752354E+04</rscale>
<asrwt>0</asrwt>
<pdfrwt beam="1">  1        2 0.29806468E+00 0.19752354E+04</pdfrwt>
<pdfrwt beam="2">  1       -2 0.77453403E-01 0.19752354E+04</pdfrwt>
<totfact> 0.10014881E+01</totfact>
</mgrwt>
</event>
<event>
12    1  0.1536832E-007  0.2881524E+04  0.7818608E-02  0.8278396E-01
          2   -1    0    0  501    0  0.00000000000E+00  0.00000000000E+00  0.59983214244E+03  0.59983214244E+03  0.00000000000E+00 0. -1.
         -2   -1    0    0    0  501 -0.00000000000E+00 -0.00000000000E+00 -0.34606268917E+04  0.34606268917E+04  0.00000000000E+00 0.  1.
         23    2    1    2    0    0 -0.17343274166E+03 -0.29821288326E+03  0.47198081847E+03  0.59172789627E+03  0.91466773235E+02 0.  0.
        254    2    1    2    0    0  0.17343274166E+03  0.29821288326E+03 -0.33327755678E+04  0.34687311379E+04  0.89760396743E+03 0.  0.
        -24    2    4    4    0    0 -0.91774175716E+01  0.57728401433E+03 -0.25221976096E+04  0.25887614354E+04  0.82848833098E+02 0.  0.
         24    2    4    4    0    0  0.18261015923E+03 -0.27907113108E+03 -0.81057795815E+03  0.87996970252E+03  0.77992850130E+02 0.  0.
         11    1    3    3    0    0 -0.11221671445E+03 -0.17621019756E+03  0.35524810812E+03  0.41212115094E+03  0.00000000000E+00 0. -1.
        -11    1    3    3    0    0 -0.61216027208E+02 -0.12200268570E+03  0.11673271034E+03  0.17960674533E+03  0.00000000000E+00 0.  1.
          4    1    6    6  502    0  0.32899661290E+00 -0.43141934843E+02 -0.12938922922E+03  0.13639247567E+03  0.00000000000E+00 0. -1.
          1    1    5    5  503    0 -0.11394845337E+01  0.58134407142E+01 -0.58498944253E+01  0.83256100514E+01  0.00000000000E+00 0. -1.
         -2    1    5    5    0  503 -0.80379330379E+01  0.57147057362E+03 -0.25163477152E+04  0.25804358253E+04  0.00000000000E+00 0.  1.
         -3    1    6    6    0  502  0.18228116262E+03 -0.23592919623E+03 -0.68118872892E+03  0.74357722685E+03  0.00000000000E+00 0.  1.
<mgrwt>
<rscale>  0 0.28815241E+04</rscale>
<asrwt>0</asrwt>
<pdfrwt beam="1">  1        2 0.92281868E-01 0.28815241E+04</pdfrwt>
<pdfrwt beam="2">  1       -2 0.53240414E+00 0.28815241E+04</pdfrwt>
<totfact> 0.45208286E-02</totfact>
</mgrwt>
</event>
<event>
12    1  0.1536832E-007  0.1607296E+04  0.7818608E-02  0.8816079E-01
          2   -1    0    0  501    0  0.00000000000E+00  0.00000000000E+00  0.27839783094E+04  0.27839783094E+04  0.00000000000E+00 0. -1.
         -2   -1    0    0    0  501 -0.00000000000E+00 -0.00000000000E+00 -0.23198808268E+03  0.23198808268E+03  0.00000000000E+00 0.  1.
         23    2    1    2    0    0  0.16185944246E+03  0.14385547183E+03 -0.69908552053E+02  0.24123010010E+03  0.80074213410E+02 0.  0.
        254    2    1    2    0    0 -0.16185944246E+03 -0.14385547183E+03  0.26218987787E+04  0.27747362919E+04  0.88199512925E+03 0.  0.
        -24    2    4    4    0    0 -0.48492956317E+03  0.37330853580E+01  0.10248845518E+04  0.11367131279E+04  0.80980079898E+02 0.  0.
         24    2    4    4    0    0  0.32307012071E+03 -0.14758855719E+03  0.15970142269E+04  0.16380231641E+04  0.80676886241E+02 0.  0.
         13    1    3    3    0    0  0.60525514248E+02  0.85626220256E+01 -0.10280687188E+02  0.61986683247E+02  0.00000000000E+00 0. -1.
        -13    1    3    3    0    0  0.10133392821E+03  0.13529284981E+03 -0.59627864865E+02  0.17924341685E+03  0.00000000000E+00 0.  1.
          2    1    6    6  502    0  0.31066992464E+03 -0.15727272022E+03  0.15135068237E+04  0.15530464951E+04  0.00000000000E+00 0. -1.
          3    1    5    5  503    0 -0.29530260322E+03  0.23654977307E+02  0.69831419836E+03  0.75855514305E+03  0.00000000000E+00 0. -1.
         -4    1    5    5    0  503 -0.18962695995E+03 -0.19921891949E+02  0.32657035345E+03  0.37815798481E+03  0.00000000000E+00 0.  1.
         -1    1    6    6    0  502  0.12400196076E+02  0.96841630310E+01  0.83507403224E+02  0.84976668972E+02  0.00000000000E+00 0.  1.
<mgrwt>
<rscale>  0 0.16072956E+04</rscale>
<asrwt>0</asrwt>
<pdfrwt beam="1">  1        2 0.42830433E+00 0.16072956E+04</pdfrwt>
<pdfrwt beam="2">  1       -2 0.35690476E-01 0.16072956E+04</pdfrwt>
<totfact> 0.16789610E+01</totfact>
</mgrwt>
</event>
<event>
12    1  0.1536832E-007  0.2475436E+04  0.7818608E-02  0.8411789E-01
          1   -1    0    0  501    0  0.00000000000E+00  0.00000000000E+00  0.10287028823E+04  0.10287028823E+04  0.00000000000E+00 0. -1.
         -1   -1    0    0    0  501 -0.00000000000E+00 -0.00000000000E+00 -0.14892019409E+04  0.14892019409E+04  0.00000000000E+00 0.  1.
         23    2    1    2    0    0  0.41072172604E+03 -0.31038197958E+03 -0.11441973788E+04  0.12579516960E+04  0.90694643630E+02 0.  0.
        254    2    1    2    0    0 -0.41072172604E+03  0.31038197958E+03  0.68369832009E+03  0.12599531272E+04  0.92466706459E+03 0.  0.
        -24    2    4    4    0    0  0.76838856639E+02  0.44307749720E+03  0.73391703802E+02  0.46359170166E+03  0.85492954358E+02 0.  0.
         24    2    4    4    0    0 -0.48756058268E+03 -0.13269551762E+03  0.61030661629E+03  0.79636142553E+03  0.79962066125E+02 0.  0.
         11    1    3    3    0    0  0.31538449900E+03 -0.18711828770E+03 -0.81838467506E+03  0.89679100809E+03  0.00000000000E+00 0. -1.
        -11    1    3    3    0    0  0.95337227032E+02 -0.12326369188E+03 -0.32581270371E+03  0.36116068792E+03  0.00000000000E+00 0.  1.
          2    1    6    6  502    0 -0.42236160085E+03 -0.90146120403E+02  0.54000540318E+03  0.69146328924E+03  0.00000000000E+00 0. -1.
          3    1    5    5  503    0  0.42855484295E+02  0.63327103273E+02  0.13536148819E+02  0.77653988101E+02  0.00000000000E+00 0. -1.
         -4    1    5    5    0  503  0.33983372344E+02  0.37975039393E+03  0.59855554984E+02  0.38593771356E+03  0.00000000000E+00 0.  1.
         -3    1    6    6    0  502 -0.65198981828E+02 -0.42549397215E+02  0.70301213105E+02  0.10489813630E+03  0.00000000000E+00 0.  1.
<mgrwt>
<rscale>  0 0.24754364E+04</rscale>
<asrwt>0</asrwt>
<pdfrwt beam="1">  1        1 0.15826198E+00 0.24754364E+04</pdfrwt>
<pdfrwt beam="2">  1       -1 0.22910799E+00 0.24754364E+04</pdfrwt>
<totfact> 0.12243400E+00</totfact>
</mgrwt>
</event>
<event>
12    1  0.1536832E-007  0.1705595E+04  0.7818608E-02  0.8758180E-01
          2   -1    0    0  501    0  0.00000000000E+00  0.00000000000E+00  0.35156459184E+04  0.35156459184E+04  0.00000000000E+00 0. -1.
         -2   -1    0    0    0  501 -0.00000000000E+00 -0.00000000000E+00 -0.20686483422E+03  0.20686483422E+03  0.00000000000E+00 0.  1.
         23    2    1    2    0    0  0.59615262993E+03 -0.12608702452E+03  0.10497470746E+04  0.12172218262E+04  0.91455767956E+02 0.  0.
        254    2    1    2    0    0 -0.59615262993E+03  0.12608702452E+03  0.22590340095E+04  0.25052889264E+04  0.89551217342E+03 0.  0.
        -24    2    4    4    0    0 -0.23257813201E+03  0.25628352020E+03  0.20052924549E+04  0.20365392407E+04  0.80749111384E+02 0.  0.
         24    2    4    4    0    0 -0.36357449793E+03 -0.13019649568E+03  0.25374155464E+03  0.46874968575E+03  0.78765146526E+02 0.  0.
         11    1    3    3    0    0  0.31544014461E+03 -0.94630132588E+02  0.49238141860E+03  0.59236543469E+03  0.00000000000E+00 0.  1.
        -11    1    3    3    0    0  0.28071248532E+03 -0.31456891936E+02  0.55736565601E+03  0.62485639147E+03  0.00000000000E+00 0. -1.
          4    1    6    6  502    0 -0.16515474740E+03 -0.74812278960E+02  0.16238694673E+03  0.24339779815E+03  0.00000000000E+00 0. -1.
          1    1    5    5  503    0  0.57396618424E+01  0.15098208531E+02  0.10479256948E+03  0.10603010062E+03  0.00000000000E+00 0. -1.
         -2    1    5    5    0  503 -0.23831779385E+03  0.24118531167E+03  0.19004998854E+04  0.19305091401E+04  0.00000000000E+00 0.  1.
         -3    1    6    6    0  502 -0.19841975053E+03 -0.55384216717E+02  0.91354607908E+02  0.22535188760E+03  0.00000000000E+00 0.  1.
<mgrwt>
<rscale>  0 0.17055949E+04</rscale>
<asrwt>0</asrwt>
<pdfrwt beam="1">  1        2 0.54086856E+00 0.17055949E+04</pdfrwt>
<pdfrwt beam="2">  1       -2 0.31825362E-01 0.17055949E+04</pdfrwt>
<totfact> 0.69897564E+00</totfact>
</mgrwt>
</event>
<event>
12    1  0.1536832E-007  0.2482869E+04  0.7818608E-02  0.8409114E-01
          2   -1    0    0  501    0  0.00000000000E+00  0.00000000000E+00  0.11809692792E+04  0.11809692792E+04  0.00000000000E+00 0. -1.
         -2   -1    0    0    0  501 -0.00000000000E+00 -0.00000000000E+00 -0.13049958414E+04  0.13049958414E+04  0.00000000000E+00 0.  1.
         23    2    1    2    0    0 -0.80802073220E+03 -0.37789332760E+03  0.48019185630E+03  0.10171434510E+04  0.91080790310E+02 0.  0.
        254    2    1    2    0    0  0.80802073220E+03  0.37789332760E+03 -0.60421841848E+03  0.14688216696E+04  0.99832676471E+03 0.  0.
        -24    2    4    4    0    0  0.37910317007E+03  0.18569042328E+03  0.24611552033E+03  0.49401261399E+03  0.72632407199E+02 0.  0.
         24    2    4    4    0    0  0.42891756213E+03  0.19220290432E+03 -0.85033393882E+03  0.97480905561E+03  0.79200100178E+02 0.  0.
         11    1    3    3    0    0 -0.60141099306E+03 -0.29822288785E+03  0.31888584415E+03  0.74318251797E+03  0.00000000000E+00 0.  1.
        -11    1    3    3    0    0 -0.20660973914E+03 -0.79670439742E+02  0.16130601215E+03  0.27396093304E+03  0.00000000000E+00 0. -1.
          2    1    6    6  502    0  0.12912094207E+03  0.45037990284E+02 -0.32114505203E+03  0.34904839591E+03  0.00000000000E+00 0. -1.
          3    1    5    5  503    0  0.37571940714E+03  0.19141942583E+03  0.24175815522E+03  0.48605912716E+03  0.00000000000E+00 0. -1.
         -4    1    5    5    0  503  0.33837629349E+01 -0.57290025573E+01  0.43573651151E+01  0.79534868232E+01  0.00000000000E+00 0.  1.
         -1    1    6    6    0  502  0.29979662006E+03  0.14716491404E+03 -0.52918888679E+03  0.62576065970E+03  0.00000000000E+00 0.  1.
<mgrwt>
<rscale>  0 0.24828693E+04</rscale>
<asrwt>0</asrwt>
<pdfrwt beam="1">  1        2 0.18168758E+00 0.24828693E+04</pdfrwt>
<pdfrwt beam="2">  1       -2 0.20076859E+00 0.24828693E+04</pdfrwt>
<totfact> 0.22830934E+00</totfact>
</mgrwt>
</event>
<event>
12    1  0.1536832E-007  0.2018247E+04  0.7818608E-02  0.8598137E-01
         -2   -1    0    0    0  501 -0.00000000000E+00  0.00000000000E+00  0.30531241202E+03  0.30531241202E+03  0.00000000000E+00 0.  1.
          2   -1    0    0  501    0  0.00000000000E+00 -0.00000000000E+00 -0.33353698251E+04  0.33353698251E+04  0.00000000000E+00 0. -1.
         23    2    1    2    0    0 -0.72386851720E+03  0.11275435859E+03 -0.59953071815E+03  0.94848789483E+03  0.59101853217E+02 0.  0.
        254    2    1    2    0    0  0.72386851720E+03 -0.11275435859E+03 -0.24305266949E+04  0.26921943422E+04  0.89652171547E+03 0.  0.
        -24    2    4    4    0    0  0.45040377014E+03 -0.49929821718E+03 -0.14038479634E+04  0.15586902742E+04  0.81018520525E+02 0.  0.
         24    2    4    4    0    0  0.27346474706E+03  0.38654385859E+03 -0.10266787315E+04  0.11335040680E+04  0.81013160240E+02 0.  0.
         11    1    3    3    0    0 -0.60954323541E+03  0.78723300097E+02 -0.52055330788E+03  0.80542911554E+03  0.00000000000E+00 0. -1.
        -11    1    3    3    0    0 -0.11432528179E+03  0.34031058497E+02 -0.78977410272E+02  0.14305877929E+03  0.00000000000E+00 0.  1.
          4    1    6    6  502    0 -0.36152679703E+00  0.16828201908E+01 -0.35439485491E+02  0.35481258677E+02  0.00000000000E+00 0. -1.
          1    1    5    5  503    0  0.15508242444E+03 -0.15466375309E+03 -0.37684260553E+03  0.43586899894E+03  0.00000000000E+00 0. -1.
         -2    1    5    5    0  503  0.29532134570E+03 -0.34463446409E+03 -0.10270053579E+04  0.11228212753E+04  0.00000000000E+00 0.  1.
         -3    1    6    6    0  502  0.27382627386E+03  0.38486103839E+03 -0.99123924597E+03  0.10980228094E+04  0.00000000000E+00 0.  1.
<mgrwt>
<rscale>  0 0.20182466E+04</rscale>
<asrwt>0</asrwt>
<pdfrwt beam="1">  1        2 0.51313383E+00 0.20182466E+04</pdfrwt>
<pdfrwt beam="2">  1       -2 0.46971140E-01 0.20182466E+04</pdfrwt>
<totfact> 0.42213901E+00</totfact>
</mgrwt>
</event>
<event>
12    1  0.1536832E-007  0.1996343E+04  0.7818608E-02  0.8608332E-01
          2   -1    0    0  501    0  0.00000000000E+00  0.00000000000E+00  0.80398251180E+03  0.80398251180E+03  0.00000000000E+00 0.  1.
         -2   -1    0    0    0  501 -0.00000000000E+00 -0.00000000000E+00 -0.12392638833E+04  0.12392638833E+04  0.00000000000E+00 0. -1.
         23    2    1    2    0    0  0.73526812887E+02 -0.53963682326E+03 -0.65418531651E+03  0.85661156131E+03  0.95973149333E+02 0.  0.
        254    2    1    2    0    0 -0.73526812887E+02  0.53963682326E+03  0.21890394502E+03  0.11866348338E+04  0.10312949134E+04 0.  0.
        -24    2    4    4    0    0  0.11478238888E+03  0.79565711548E+03  0.28312552518E+02  0.80837222577E+03  0.80117492212E+02 0.  0.
         24    2    4    4    0    0 -0.18830920177E+03 -0.25602029222E+03  0.19059139251E+03  0.37826260801E+03  0.75833872508E+02 0.  0.
         11    1    3    3    0    0  0.68854193542E+00 -0.59385472489E+02 -0.32621201372E+02  0.67758772212E+02  0.00000000000E+00 0.  1.
        -11    1    3    3    0    0  0.72838270951E+02 -0.48025135077E+03 -0.62156411514E+03  0.78885278910E+03  0.00000000000E+00 0. -1.
          2    1    6    6  502    0 -0.18136014644E+03 -0.19965008564E+03  0.16256781848E+03  0.31492849191E+03  0.00000000000E+00 0. -1.
          1    1    5    5  503    0 -0.82100157246E+01  0.13134610926E+03  0.16827816309E+02  0.13267396194E+03  0.00000000000E+00 0. -1.
         -4    1    5    5    0  503  0.12299240461E+03  0.66431100622E+03  0.11484736209E+02  0.67569826383E+03  0.00000000000E+00 0.  1.
         -1    1    6    6    0  502 -0.69490553236E+01 -0.56370206586E+02  0.28023574029E+02  0.63334116097E+02  0.00000000000E+00 0.  1.
<mgrwt>
<rscale>  0 0.19963431E+04</rscale>
<asrwt>0</asrwt>
<pdfrwt beam="1">  1        2 0.12368962E+00 0.19963431E+04</pdfrwt>
<pdfrwt beam="2">  1       -2 0.19065598E+00 0.19963431E+04</pdfrwt>
<totfact> 0.48768766E+00</totfact>
</mgrwt>
</event>
<event>
12    1  0.1536832E-007  0.1607750E+04  0.7818608E-02  0.8815801E-01
          2   -1    0    0  501    0  0.00000000000E+00  0.00000000000E+00  0.34840181290E+03  0.34840181290E+03  0.00000000000E+00 0. -1.
         -2   -1    0    0    0  501 -0.00000000000E+00 -0.00000000000E+00 -0.18547974702E+04  0.18547974702E+04  0.00000000000E+00 0.  1.
         23    2    1    2    0    0 -0.45506256275E+01 -0.40462452487E+03 -0.28217088427E+02  0.41575960346E+03  0.91203779897E+02 0.  0.
        254    2    1    2    0    0  0.45506256275E+01  0.40462452487E+03 -0.14781785689E+04  0.17874396796E+04  0.91988423866E+03 0.  0.
        -24    2    4    4    0    0 -0.35967569926E+03 -0.86277924892E+02 -0.45034845110E+03  0.58819278881E+03  0.79665177064E+02 0.  0.
         24    2    4    4    0    0  0.36422632489E+03  0.49090244976E+03 -0.10278301178E+04  0.11992468908E+04  0.90068436297E+02 0.  0.
         11    1    3    3    0    0  0.11430462933E+01 -0.14920546674E+03  0.33508834763E+02  0.15292619091E+03  0.00000000000E+00 0. -1.
        -11    1    3    3    0    0 -0.56936719208E+01 -0.25541905814E+03 -0.61725923190E+02  0.26283341255E+03  0.00000000000E+00 0.  1.
          2    1    6    6  502    0  0.31161515050E+03  0.41844014668E+03 -0.93198703353E+03  0.10680805162E+04  0.00000000000E+00 0. -1.
          3    1    5    5  503    0 -0.28717034932E+03 -0.53940935608E+02 -0.39537552133E+03  0.49162814904E+03  0.00000000000E+00 0. -1.
         -4    1    5    5    0  503 -0.72505349942E+02 -0.32336989284E+02 -0.54972929771E+02  0.96564639770E+02  0.00000000000E+00 0.  1.
         -1    1    6    6    0  502  0.52611174388E+02  0.72462303085E+02 -0.95843084226E+02  0.13116637463E+03  0.00000000000E+00 0.  1.
<mgrwt>
<rscale>  0 0.16077497E+04</rscale>
<asrwt>0</asrwt>
<pdfrwt beam="1">  1        2 0.53600278E-01 0.16077497E+04</pdfrwt>
<pdfrwt beam="2">  1       -2 0.28535346E+00 0.16077497E+04</pdfrwt>
<totfact> 0.34840793E+00</totfact>
</mgrwt>
</event>
<event>
12    1  0.1536832E-007  0.1863854E+04  0.7818608E-02  0.8673061E-01
         -1   -1    0    0    0  501 -0.00000000000E+00  0.00000000000E+00  0.13815658229E+04  0.13815658229E+04  0.00000000000E+00 0.  1.
          1   -1    0    0  501    0  0.00000000000E+00 -0.00000000000E+00 -0.62862554942E+03  0.62862554942E+03  0.00000000000E+00 0. -1.
         23    2    1    2    0    0  0.23037748567E+03 -0.54357435934E+03 -0.14130717555E+03  0.61385445749E+03  0.91119191660E+02 0.  0.
        254    2    1    2    0    0 -0.23037748567E+03  0.54357435934E+03  0.89424744900E+03  0.13963369148E+04  0.89528286567E+03 0.  0.
        -24    2    4    4    0    0 -0.44819970671E+03 -0.70656525907E+01  0.25735209375E+03  0.52298833185E+03  0.79710692810E+02 0.  0.
         24    2    4    4    0    0  0.21782222104E+03  0.55064001193E+03  0.63689535525E+03  0.87334858295E+03  0.80318809094E+02 0.  0.
         13    1    3    3    0    0  0.18600740513E+03 -0.39046121567E+03 -0.65856844805E+02  0.43748810237E+03  0.00000000000E+00 0.  1.
        -13    1    3    3    0    0  0.44370080541E+02 -0.15311314367E+03 -0.75450330740E+02  0.17636635512E+03  0.00000000000E+00 0. -1.
          2    1    6    6  502    0  0.10061895607E+03  0.21601827209E+03  0.31073942433E+03  0.39159552861E+03  0.00000000000E+00 0. -1.
          3    1    5    5  503    0 -0.23252619785E+03  0.28448666997E+02  0.10601179757E+03  0.25713082384E+03  0.00000000000E+00 0. -1.
         -4    1    5    5    0  503 -0.21567350886E+03 -0.35514319588E+02  0.15134029618E+03  0.26585750802E+03  0.00000000000E+00 0.  1.
         -1    1    6    6    0  502  0.11720326497E+03  0.33462173984E+03  0.32615593092E+03  0.48175305434E+03  0.00000000000E+00 0.  1.
<mgrwt>
<rscale>  0 0.18638536E+04</rscale>
<asrwt>0</asrwt>
<pdfrwt beam="1">  1        1 0.96711623E-01 0.18638536E+04</pdfrwt>
<pdfrwt beam="2">  1       -1 0.21254859E+00 0.18638536E+04</pdfrwt>
<totfact> 0.37092605E+00</totfact>
</mgrwt>
</event>
<event>
12    1  0.1662961E-007  0.1761330E+04  0.7818608E-02  0.8727138E-01
          1   -1    0    0  501    0  0.00000000000E+00  0.00000000000E+00  0.17027485546E+04  0.17027485546E+04  0.00000000000E+00 0.  1.
         -1   -1    0    0    0  501 -0.00000000000E+00 -0.00000000000E+00 -0.45548189723E+03  0.45548189723E+03  0.00000000000E+00 0. -1.
         23    2    1    2    0    0  0.10489237577E+03 -0.26593779899E+03  0.11666518218E+04  0.12046782173E+04  0.91911972400E+02 0.  0.
        254    2    1    2    0    0 -0.10489237577E+03  0.26593779899E+03  0.80614835589E+02  0.95355223448E+03  0.90611135559E+03 0.  0.
        -24    2    4    4    0    0 -0.18821253622E+02 -0.13404282169E+03 -0.33144719673E+03  0.36675003745E+03  0.79540103833E+02 0.  0.
         24    2    4    4    0    0 -0.86071122145E+02  0.39998062068E+03  0.41206203232E+03  0.58680219703E+03  0.84551552170E+02 0.  0.
         11    1    3    3    0    0  0.85540694937E+02 -0.96708768102E+02  0.54820555237E+03  0.56320433590E+03  0.00000000000E+00 0. -1.
        -11    1    3    3    0    0  0.19351680829E+02 -0.16922903089E+03  0.61844626940E+03  0.64147388145E+03  0.00000000000E+00 0.  1.
          4    1    6    6  502    0 -0.19398949172E+02  0.32399579642E+02  0.12446322064E+02  0.39761324461E+02  0.00000000000E+00 0. -1.
          1    1    5    5  503    0  0.16580473953E+02 -0.49898927258E+02 -0.57140788238E+02  0.77652332473E+02  0.00000000000E+00 0. -1.
         -2    1    5    5    0  503 -0.35401727575E+02 -0.84143894429E+02 -0.27430640849E+03  0.28909770498E+03  0.00000000000E+00 0.  1.
         -3    1    6    6    0  502 -0.66672172973E+02  0.36758104104E+03  0.39961571025E+03  0.54704087257E+03  0.00000000000E+00 0.  1.
<mgrwt>
<rscale>  0 0.17613303E+04</rscale>
<asrwt>0</asrwt>
<pdfrwt beam="1">  1        1 0.26196131E+00 0.17613303E+04</pdfrwt>
<pdfrwt beam="2">  1       -1 0.70074139E-01 0.17613303E+04</pdfrwt>
<totfact> 0.92485760E+00</totfact>
</mgrwt>
</event>
<event>
12    1  0.1536832E-007  0.1693244E+04  0.7818608E-02  0.8765227E-01
          2   -1    0    0  501    0  0.00000000000E+00  0.00000000000E+00  0.56203857502E+03  0.56203857502E+03  0.00000000000E+00 0. -1.
         -2   -1    0    0    0  501 -0.00000000000E+00 -0.00000000000E+00 -0.12753017047E+04  0.12753017047E+04  0.00000000000E+00 0.  1.
         23    2    1    2    0    0  0.67029089517E+02  0.58902631274E+03 -0.14712515256E+03  0.61776761978E+03  0.92445257262E+02 0.  0.
        254    2    1    2    0    0 -0.67029089517E+02 -0.58902631274E+03 -0.56613797716E+03  0.12195726600E+04  0.90299522027E+03 0.  0.
        -24    2    4    4    0    0 -0.43678620026E+02  0.12029191442E+03 -0.47613022215E+03  0.49959873122E+03  0.80752320513E+02 0.  0.
         24    2    4    4    0    0 -0.23350469491E+02 -0.70931822716E+03 -0.90007755005E+02  0.71997392875E+03  0.81138587114E+02 0.  0.
         11    1    3    3    0    0  0.42832273734E+02  0.55945414654E+03 -0.14486631219E+03  0.57949097850E+03  0.00000000000E+00 0. -1.
        -11    1    3    3    0    0  0.24196815783E+02  0.29572166198E+02 -0.22588403669E+01  0.38276641277E+02  0.00000000000E+00 0.  1.
          4    1    6    6  502    0 -0.16998580300E+02 -0.58881255958E+03 -0.43544949177E+02  0.59066517136E+03  0.00000000000E+00 0. -1.
          3    1    5    5  503    0 -0.29958519199E+02  0.87707903278E+02 -0.43759373460E+03  0.44730131425E+03  0.00000000000E+00 0. -1.
         -4    1    5    5    0  503 -0.13720100827E+02  0.32584011141E+02 -0.38536487554E+02  0.52297416970E+02  0.00000000000E+00 0.  1.
         -3    1    6    6    0  502 -0.63518891912E+01 -0.12050566758E+03 -0.46462805828E+02  0.12930875740E+03  0.00000000000E+00 0.  1.
<mgrwt>
<rscale>  0 0.16932439E+04</rscale>
<asrwt>0</asrwt>
<pdfrwt beam="1">  1        2 0.86467475E-01 0.16932439E+04</pdfrwt>
<pdfrwt beam="2">  1       -2 0.19620026E+00 0.16932439E+04</pdfrwt>
<totfact> 0.71906834E+00</totfact>
</mgrwt>
</event>
<event>
12    1  0.1536832E-007  0.1257399E+04  0.7818608E-02  0.9064048E-01
         -2   -1    0    0    0  501 -0.00000000000E+00  0.00000000000E+00  0.56155149567E+03  0.56155149567E+03  0.00000000000E+00 0.  1.
          2   -1    0    0  501    0  0.00000000000E+00 -0.00000000000E+00 -0.70387647706E+03  0.70387647706E+03  0.00000000000E+00 0. -1.
         23    2    1    2    0    0  0.26596384146E+03  0.10047781146E+03  0.75754177287E+02  0.30802479501E+03  0.91148359330E+02 0.  0.
        254    2    1    2    0    0 -0.26596384146E+03 -0.10047781146E+03 -0.21807915868E+03  0.95740317771E+03  0.88782305089E+03 0.  0.
        -24    2    4    4    0    0 -0.18565143886E+03 -0.41049369157E+03  0.13234232881E+03  0.47599094600E+03  0.77983082160E+02 0.  0.
         24    2    4    4    0    0 -0.80312402592E+02  0.31001588012E+03 -0.35042148749E+03  0.48141223171E+03  0.80016185936E+02 0.  0.
         13    1    3    3    0    0  0.38704553555E+02  0.30810573888E+02 -0.17804707960E+02  0.52577005951E+02  0.00000000000E+00 0. -1.
        -13    1    3    3    0    0  0.22725928790E+03  0.69667237569E+02  0.93558885246E+02  0.25544778906E+03  0.00000000000E+00 0.  1.
          2    1    6    6  502    0 -0.91729105345E+02  0.24507043703E+03 -0.30203140913E+03  0.39962072015E+03  0.00000000000E+00 0. -1.
          1    1    5    5  503    0 -0.74273201597E+02 -0.22995130472E+03  0.99492052682E+02  0.26132887243E+03  0.00000000000E+00 0. -1.
         -2    1    5    5    0  503 -0.11137823727E+03 -0.18054238686E+03  0.32850276129E+02  0.21466207357E+03  0.00000000000E+00 0.  1.
         -1    1    6    6    0  502  0.11416702753E+02  0.64945443086E+02 -0.48390078358E+02  0.81791511557E+02  0.00000000000E+00 0.  1.
<mgrwt>
<rscale>  0 0.12573987E+04</rscale>
<asrwt>0</asrwt>
<pdfrwt beam="1">  1        2 0.10828869E+00 0.12573987E+04</pdfrwt>
<pdfrwt beam="2">  1       -2 0.86392538E-01 0.12573987E+04</pdfrwt>
<totfact> 0.46455772E+01</totfact>
</mgrwt>
</event>
<event>
12    1  0.1536832E-007  0.1753642E+04  0.7818608E-02  0.8731348E-01
          1   -1    0    0  501    0  0.00000000000E+00  0.00000000000E+00  0.34936511600E+04  0.34936511600E+04  0.00000000000E+00 0. -1.
         -1   -1    0    0    0  501 -0.00000000000E+00 -0.00000000000E+00 -0.22006074336E+03  0.22006074336E+03  0.00000000000E+00 0.  1.
         23    2    1    2    0    0  0.18981352386E+03  0.58061243587E+03  0.16348089262E+04  0.17475298900E+04  0.90113910117E+02 0.  0.
        254    2    1    2    0    0 -0.18981352386E+03 -0.58061243587E+03  0.16387814905E+04  0.19661820134E+04  0.89840244973E+03 0.  0.
        -24    2    4    4    0    0 -0.18402003532E+03 -0.47985785563E+03  0.25997112498E+03  0.58134031418E+03  0.79023035026E+02 0.  0.
         24    2    4    4    0    0 -0.57934885395E+01 -0.10075458023E+03  0.13788103655E+04  0.13848416992E+04  0.80519922139E+02 0.  0.
         11    1    3    3    0    0  0.15848649029E+03  0.55279651797E+03  0.15048836345E+04  0.16110172908E+04  0.00000000000E+00 0.  1.
        -11    1    3    3    0    0  0.31327033571E+02  0.27815917897E+02  0.12992529165E+03  0.13651259916E+03  0.00000000000E+00 0. -1.
          4    1    6    6  502    0 -0.34779649878E+02 -0.92615860509E+02  0.10758114985E+04  0.10803507310E+04  0.00000000000E+00 0. -1.
          3    1    5    5  503    0 -0.10752077058E+03 -0.37227971218E+03  0.20458628436E+03  0.43818768576E+03  0.00000000000E+00 0. -1.
         -4    1    5    5    0  503 -0.76499264736E+02 -0.10757814345E+03  0.55384840622E+02  0.14315262843E+03  0.00000000000E+00 0.  1.
         -3    1    6    6    0  502  0.28986161339E+02 -0.81387197253E+01  0.30299886701E+03  0.30449096820E+03  0.00000000000E+00 0.  1.
<mgrwt>
<rscale>  0 0.17536425E+04</rscale>
<asrwt>0</asrwt>
<pdfrwt beam="1">  1        1 0.53748476E+00 0.17536425E+04</pdfrwt>
<pdfrwt beam="2">  1       -1 0.33855501E-01 0.17536425E+04</pdfrwt>
<totfact> 0.19864852E+00</totfact>
</mgrwt>
</event>
<event>
12    1  0.1536832E-007  0.1338828E+04  0.7818608E-02  0.8999329E-01
          4   -1    0    0  501    0  0.00000000000E+00  0.00000000000E+00  0.29277354747E+03  0.29277354747E+03  0.00000000000E+00 0. -1.
         -4   -1    0    0    0  501 -0.00000000000E+00 -0.00000000000E+00 -0.15305849383E+04  0.15305849383E+04  0.00000000000E+00 0.  1.
         23    2    1    2    0    0 -0.28453538450E+03  0.17987041346E+03 -0.17085658272E+03  0.38841523808E+03  0.91436724836E+02 0.  0.
        254    2    1    2    0    0  0.28453538450E+03 -0.17987041346E+03 -0.10669548081E+04  0.14349432476E+04  0.89852980519E+03 0.  0.
        -24    2    4    4    0    0  0.53709047001E+03  0.26447373644E+02 -0.91767027064E+03  0.10665666026E+04  0.79246171350E+02 0.  0.
         24    2    4    4    0    0 -0.25255508552E+03 -0.20631778710E+03 -0.14928453744E+03  0.36837664502E+03  0.84049860087E+02 0.  0.
         11    1    3    3    0    0 -0.10409255026E+03  0.74788007208E+02 -0.17550941636E+02  0.12936978239E+03  0.00000000000E+00 0. -1.
        -11    1    3    3    0    0 -0.18044283424E+03  0.10508240625E+03 -0.15330564108E+03  0.25904545570E+03  0.00000000000E+00 0.  1.
          4    1    6    6  502    0 -0.12984374111E+03 -0.14199776350E+03 -0.52740658079E+02  0.19951024776E+03  0.00000000000E+00 0. -1.
          3    1    5    5  503    0  0.39929105647E+03  0.52708576134E+02 -0.70051003925E+03  0.80803827686E+03  0.00000000000E+00 0. -1.
         -4    1    5    5    0  503  0.13779941354E+03 -0.26261202489E+02 -0.21716023139E+03  0.25852832577E+03  0.00000000000E+00 0.  1.
         -3    1    6    6    0  502 -0.12271134441E+03 -0.64320023598E+02 -0.96543879357E+02  0.16886639726E+03  0.00000000000E+00 0.  1.
<mgrwt>
<rscale>  0 0.13388275E+04</rscale>
<asrwt>0</asrwt>
<pdfrwt beam="1">  1        4 0.45042084E-01 0.13388275E+04</pdfrwt>
<pdfrwt beam="2">  1       -4 0.23547461E+00 0.13388275E+04</pdfrwt>
<totfact> 0.73033946E-01</totfact>
</mgrwt>
</event>
<event>
12    1  0.1536832E-007  0.1258810E+04  0.7818608E-02  0.9062882E-01
         -1   -1    0    0    0  501 -0.00000000000E+00  0.00000000000E+00  0.18304881342E+03  0.18304881342E+03  0.00000000000E+00 0. -1.
          1   -1    0    0  501    0  0.00000000000E+00 -0.00000000000E+00 -0.21641814436E+04  0.21641814436E+04  0.00000000000E+00 0.  1.
         23    2    1    2    0    0  0.61564918256E+02  0.26131169345E+03 -0.73709475703E+03  0.78935315075E+03  0.87724999090E+02 0.  0.
        254    2    1    2    0    0 -0.61564918256E+02 -0.26131169345E+03 -0.12440378732E+04  0.15578771063E+04  0.89848584192E+03 0.  0.
        -24    2    4    4    0    0 -0.23500195897E+03 -0.40618257223E+03 -0.25448312883E+03  0.53976031660E+03  0.79808106177E+02 0.  0.
         24    2    4    4    0    0  0.17343704072E+03  0.14487087878E+03 -0.98955474435E+03  0.10181167897E+04  0.79216329043E+02 0.  0.
         11    1    3    3    0    0 -0.12354354111E+02  0.58668415249E+01 -0.67778244692E+02  0.69144344299E+02  0.00000000000E+00 0. -1.
        -11    1    3    3    0    0  0.73919272367E+02  0.25544485193E+03 -0.66931651234E+03  0.72020880645E+03  0.00000000000E+00 0.  1.
          4    1    6    6  502    0  0.15153137107E+03  0.15349789757E+03 -0.87814861858E+03  0.90425016301E+03  0.00000000000E+00 0. -1.
          1    1    5    5  503    0 -0.15503666412E+03 -0.25759835574E+03 -0.20509000915E+03  0.36394394068E+03  0.00000000000E+00 0. -1.
         -2    1    5    5    0  503 -0.79965294852E+02 -0.14858421649E+03 -0.49393119678E+02  0.17581637592E+03  0.00000000000E+00 0.  1.
         -3    1    6    6    0  502  0.21905669649E+02 -0.86270187869E+01 -0.11140612577E+03  0.11386662669E+03  0.00000000000E+00 0.  1.
<mgrwt>
<rscale>  0 0.12588103E+04</rscale>
<asrwt>0</asrwt>
<pdfrwt beam="1">  1        1 0.33295099E+00 0.12588103E+04</pdfrwt>
<pdfrwt beam="2">  1       -1 0.28161356E-01 0.12588103E+04</pdfrwt>
<totfact> 0.25953212E+01</totfact>
</mgrwt>
</event>
<event>
12    1  0.1536832E-007  0.1734926E+04  0.7818608E-02  0.8741692E-01
         -1   -1    0    0    0  501 -0.00000000000E+00  0.00000000000E+00  0.11764894496E+04  0.11764894496E+04  0.00000000000E+00 0.  1.
          1   -1    0    0  501    0  0.00000000000E+00 -0.00000000000E+00 -0.63960775305E+03  0.63960775305E+03  0.00000000000E+00 0. -1.
         23    2    1    2    0    0  0.83534913642E+02 -0.37622997229E+03 -0.32239129955E+03  0.51074608775E+03  0.91642469872E+02 0.  0.
        254    2    1    2    0    0 -0.83534913642E+02  0.37622997229E+03  0.85927299613E+03  0.13053511149E+04  0.90391613413E+03 0.  0.
        -24    2    4    4    0    0  0.12715504625E+03  0.23419942303E+03  0.97524905467E+03  0.10141160902E+04  0.79391121289E+02 0.  0.
         24    2    4    4    0    0 -0.21068995990E+03  0.14203054926E+03 -0.11597605854E+03  0.29123502478E+03  0.82489134930E+02 0.  0.
         13    1    3    3    0    0  0.62398023406E+02 -0.13487727685E+03 -0.83323102000E+02  0.17037644339E+03  0.00000000000E+00 0.  1.
        -13    1    3    3    0    0  0.21136890237E+02 -0.24135269544E+03 -0.23906819755E+03  0.34036964436E+03  0.00000000000E+00 0. -1.
          2    1    6    6  502    0 -0.40746994599E+02  0.79364521382E+01  0.72539522494E+01  0.42141721187E+02  0.00000000000E+00 0. -1.
          1    1    5    5  503    0  0.32098648263E+02  0.10496954013E+03  0.28350116218E+03  0.30400959941E+03  0.00000000000E+00 0. -1.
         -2    1    5    5    0  503  0.95056397992E+02  0.12922988289E+03  0.69174789249E+03  0.71010649075E+03  0.00000000000E+00 0.  1.
         -1    1    6    6    0  502 -0.16994296530E+03  0.13409409712E+03 -0.12323001079E+03  0.24909330359E+03  0.00000000000E+00 0.  1.
<mgrwt>
<rscale>  0 0.17349257E+04</rscale>
<asrwt>0</asrwt>
<pdfrwt beam="1">  1        1 0.98401193E-01 0.17349257E+04</pdfrwt>
<pdfrwt beam="2">  1       -1 0.18099838E+00 0.17349257E+04</pdfrwt>
<totfact> 0.60576235E+00</totfact>
</mgrwt>
</event>
<event>
12    1  0.1536832E-007  0.1445041E+04  0.7818608E-02  0.8921846E-01
          1   -1    0    0  501    0  0.00000000000E+00  0.00000000000E+00  0.14759595060E+04  0.14759595060E+04  0.00000000000E+00 0. -1.
         -1   -1    0    0    0  501 -0.00000000000E+00 -0.00000000000E+00 -0.35369243548E+03  0.35369243548E+03  0.00000000000E+00 0.  1.
         23    2    1    2    0    0 -0.20177511954E+03  0.94077545777E+02 -0.13646906006E+03  0.27698048365E+03  0.92361249922E+02 0.  0.
        254    2    1    2    0    0  0.20177511954E+03 -0.94077545777E+02  0.12587361306E+04  0.15526714578E+04  0.88136724811E+03 0.  0.
        -24    2    4    4    0    0  0.33403049782E+03  0.23841725766E+03  0.26748087975E+03  0.49625671638E+03  0.79407463717E+02 0.  0.
         24    2    4    4    0    0 -0.13225537828E+03 -0.33249480344E+03  0.99125525081E+03  0.10564147414E+04  0.73354306323E+02 0.  0.
         13    1    3    3    0    0 -0.10227092309E+02  0.23732981232E+02 -0.48117535179E+02  0.54618174694E+02  0.00000000000E+00 0. -1.
        -13    1    3    3    0    0 -0.19154802723E+03  0.70344564545E+02 -0.88351524877E+02  0.22236230896E+03  0.00000000000E+00 0.  1.
          4    1    6    6  502    0 -0.10044279524E+03 -0.25671745564E+03  0.66296657888E+03  0.71799532858E+03  0.00000000000E+00 0. -1.
          1    1    5    5  503    0  0.12430340574E+03  0.50621987783E+02  0.11101601930E+03  0.17417944444E+03  0.00000000000E+00 0. -1.
         -2    1    5    5    0  503  0.20972709208E+03  0.18779526988E+03  0.15646486045E+03  0.32207727193E+03  0.00000000000E+00 0.  1.
         -3    1    6    6    0  502 -0.31812583047E+02 -0.75777347796E+02  0.32828867193E+03  0.33841941285E+03  0.00000000000E+00 0.  1.
<mgrwt>
<rscale>  0 0.14450408E+04</rscale>
<asrwt>0</asrwt>
<pdfrwt beam="1">  1        1 0.22707069E+00 0.14450408E+04</pdfrwt>
<pdfrwt beam="2">  1       -1 0.54414222E-01 0.14450408E+04</pdfrwt>
<totfact> 0.22530574E+01</totfact>
</mgrwt>
</event>
<event>
12    1  0.1897768E-007  0.1435205E+04  0.7818608E-02  0.8928722E-01
          1   -1    0    0  501    0  0.00000000000E+00  0.00000000000E+00  0.12949809272E+04  0.12949809272E+04  0.00000000000E+00 0. -1.
         -1   -1    0    0    0  501 -0.00000000000E+00 -0.00000000000E+00 -0.39765336317E+03  0.39765336317E+03  0.00000000000E+00 0.  1.
         23    2    1    2    0    0 -0.19068144384E+03 -0.31417612426E+03  0.53511930659E+03  0.65560332714E+03  0.91635147124E+02 0.  0.
        254    2    1    2    0    0  0.19068144384E+03  0.31417612426E+03  0.36220825747E+03  0.10370309633E+04  0.89954007521E+03 0.  0.
        -24    2    4    4    0    0  0.42123648780E+03  0.50179264966E+03  0.28585038850E+03  0.71932910508E+03  0.80547345707E+02 0.  0.
         24    2    4    4    0    0 -0.23055504396E+03 -0.18761652540E+03  0.76357868972E+02  0.31770185819E+03  0.82148387936E+02 0.  0.
         13    1    3    3    0    0 -0.16198923106E+03 -0.30880943193E+03  0.50460370902E+03  0.61337482781E+03  0.00000000000E+00 0. -1.
        -13    1    3    3    0    0 -0.28692212781E+02 -0.53666923299E+01  0.30515597571E+02  0.42228499333E+02  0.00000000000E+00 0.  1.
          4    1    6    6  502    0 -0.22775805194E+03 -0.19432364445E+03  0.79526844273E+02  0.30977399500E+03  0.00000000000E+00 0. -1.
          1    1    5    5  503    0  0.42424429857E+03  0.49993194451E+03  0.28681041645E+03  0.71566429909E+03  0.00000000000E+00 0. -1.
         -2    1    5    5    0  503 -0.30078107675E+01  0.18607051525E+01 -0.96002794976E+00  0.36648059897E+01  0.00000000000E+00 0.  1.
         -3    1    6    6    0  502 -0.27969920212E+01  0.67071190477E+01 -0.31689753014E+01  0.79278631893E+01  0.00000000000E+00 0.  1.
<mgrwt>
<rscale>  0 0.14352052E+04</rscale>
<asrwt>0</asrwt>
<pdfrwt beam="1">  1        1 0.19922783E+00 0.14352052E+04</pdfrwt>
<pdfrwt beam="2">  1       -1 0.61177441E-01 0.14352052E+04</pdfrwt>
<totfact> 0.24031955E+01</totfact>
</mgrwt>
</event>
<event>
12    1  0.1536832E-007  0.1467266E+04  0.7818608E-02  0.8906517E-01
          2   -1    0    0  501    0  0.00000000000E+00  0.00000000000E+00  0.16818860237E+04  0.16818860237E+04  0.00000000000E+00 0. -1.
         -2   -1    0    0    0  501 -0.00000000000E+00 -0.00000000000E+00 -0.32000837828E+03  0.32000837828E+03  0.00000000000E+00 0.  1.
         23    2    1    2    0    0 -0.41752868777E+02  0.38635302111E+03  0.12203302317E+03  0.41748819915E+03  0.91609926906E+02 0.  0.
        254    2    1    2    0    0  0.41752868777E+02 -0.38635302111E+03  0.12398446223E+04  0.15844062029E+04  0.90670633024E+03 0.  0.
        -24    2    4    4    0    0 -0.19394499266E+03 -0.28688847635E+03  0.12664897347E+04  0.13153606460E+04  0.79105771131E+02 0.  0.
         24    2    4    4    0    0  0.23569786144E+03 -0.99464544761E+02 -0.26645112379E+02  0.26904555686E+03  0.78923203818E+02 0.  0.
         11    1    3    3    0    0  0.11729289787E+02  0.22276599255E+03  0.98221570923E+02  0.24374113454E+03  0.00000000000E+00 0. -1.
        -11    1    3    3    0    0 -0.53482158564E+02  0.16358702857E+03  0.23811452250E+02  0.17374706460E+03  0.00000000000E+00 0.  1.
          2    1    6    6  502    0  0.16914940261E+03 -0.91797939711E+02  0.99542613482E+01  0.19271084416E+03  0.00000000000E+00 0. -1.
          3    1    5    5  503    0 -0.19822301007E+03 -0.25474774749E+03  0.11533225167E+04  0.11976400144E+04  0.00000000000E+00 0. -1.
         -4    1    5    5    0  503  0.42780174083E+01 -0.32140728862E+02  0.11316721792E+03  0.11772063157E+03  0.00000000000E+00 0.  1.
         -1    1    6    6    0  502  0.66548458823E+02 -0.76666050500E+01 -0.36599373727E+02  0.76334712693E+02  0.00000000000E+00 0.  1.
<mgrwt>
<rscale>  0 0.14672663E+04</rscale>
<asrwt>0</asrwt>
<pdfrwt beam="1">  1        2 0.25875169E+00 0.14672663E+04</pdfrwt>
<pdfrwt beam="2">  1       -2 0.49232059E-01 0.14672663E+04</pdfrwt>
<totfact> 0.37964282E+01</totfact>
</mgrwt>
</event>
<event>
12    1  0.1536832E-007  0.1907881E+04  0.7818608E-02  0.8650944E-01
         -2   -1    0    0    0  501 -0.00000000000E+00  0.00000000000E+00  0.34267205038E+03  0.34267205038E+03  0.00000000000E+00 0.  1.
          2   -1    0    0  501    0  0.00000000000E+00 -0.00000000000E+00 -0.26556066234E+04  0.26556066234E+04  0.00000000000E+00 0. -1.
         23    2    1    2    0    0  0.67507612290E+03  0.79018204389E+02 -0.44833488549E+03  0.81862335163E+03  0.84666250344E+02 0.  0.
        254    2    1    2    0    0 -0.67507612290E+03 -0.79018204389E+02 -0.18645996875E+04  0.21796553221E+04  0.90121788723E+03 0.  0.
        -24    2    4    4    0    0 -0.40670959978E+03 -0.29152862580E+03 -0.17299865462E+04  0.18027224600E+04  0.80951710470E+02 0.  0.
         24    2    4    4    0    0 -0.26836652312E+03  0.21251042141E+03 -0.13461314127E+03  0.37693286211E+03  0.82318982011E+02 0.  0.
         13    1    3    3    0    0  0.50235955864E+03  0.78239119392E+02 -0.37097437310E+03  0.62937148923E+03  0.00000000000E+00 0.  1.
        -13    1    3    3    0    0  0.17271656426E+03  0.77908499710E+00 -0.77360512390E+02  0.18925186239E+03  0.00000000000E+00 0. -1.
          2    1    6    6  502    0 -0.29491075326E+02  0.59586274061E+02 -0.10397443245E+02  0.67293048723E+02  0.00000000000E+00 0. -1.
          3    1    5    5  503    0 -0.27221068762E+02 -0.22415545589E+02 -0.64847963862E+02  0.73815321483E+02  0.00000000000E+00 0. -1.
         -4    1    5    5    0  503 -0.37948853102E+03 -0.26911308021E+03 -0.16651385824E+04  0.17289071385E+04  0.00000000000E+00 0.  1.
         -1    1    6    6    0  502 -0.23887544780E+03  0.15292414735E+03 -0.12421569802E+03  0.30963981339E+03  0.00000000000E+00 0.  1.
<mgrwt>
<rscale>  0 0.19078807E+04</rscale>
<asrwt>0</asrwt>
<pdfrwt beam="1">  1        2 0.40855487E+00 0.19078807E+04</pdfrwt>
<pdfrwt beam="2">  1       -2 0.52718777E-01 0.19078807E+04</pdfrwt>
<totfact> 0.89769726E+00</totfact>
</mgrwt>
</event>
<event>
12    1  0.1536832E-007  0.2563227E+04  0.7818608E-02  0.8380800E-01
         -2   -1    0    0    0  501 -0.00000000000E+00  0.00000000000E+00  0.13550670618E+04  0.13550670618E+04  0.00000000000E+00 0.  1.
          2   -1    0    0  501    0  0.00000000000E+00 -0.00000000000E+00 -0.12121416381E+04  0.12121416381E+04  0.00000000000E+00 0. -1.
         23    2    1    2    0    0  0.23416371780E+03 -0.10918364074E+04  0.16379138082E+03  0.11322055984E+04  0.90124987135E+02 0.  0.
        254    2    1    2    0    0 -0.23416371780E+03  0.10918364074E+04 -0.20865957103E+02  0.14350031016E+04  0.90103225580E+03 0.  0.
        -24    2    4    4    0    0  0.21518148343E+03  0.71255373651E+03 -0.26390433038E+03  0.79378912712E+03  0.80123557840E+02 0.  0.
         24    2    4    4    0    0 -0.44934520123E+03  0.37928267093E+03  0.24303837327E+03  0.64121397444E+03  0.79506325545E+02 0.  0.
         13    1    3    3    0    0  0.20145223522E+03 -0.81070205895E+03  0.93472379536E+02  0.84056999542E+03  0.00000000000E+00 0. -1.
        -13    1    3    3    0    0  0.32711482574E+02 -0.28113434849E+03  0.70319001283E+02  0.29163560299E+03  0.00000000000E+00 0.  1.
          2    1    6    6  502    0 -0.44358434032E+03  0.35657688817E+03  0.22654923110E+03  0.61256730101E+03  0.00000000000E+00 0. -1.
          3    1    5    5  503    0  0.15445055669E+03  0.37401081211E+03 -0.13845913611E+03  0.42767978022E+03  0.00000000000E+00 0. -1.
         -4    1    5    5    0  503  0.60730926736E+02  0.33854292440E+03 -0.12544519427E+03  0.36610934690E+03  0.00000000000E+00 0.  1.
         -1    1    6    6    0  502 -0.57608609074E+01  0.22705782754E+02  0.16489142176E+02  0.28646673429E+02  0.00000000000E+00 0.  1.
<mgrwt>
<rscale>  0 0.25632270E+04</rscale>
<asrwt>0</asrwt>
<pdfrwt beam="1">  1        2 0.18648333E+00 0.25632270E+04</pdfrwt>
<pdfrwt beam="2">  1       -2 0.20847186E+00 0.25632270E+04</pdfrwt>
<totfact> 0.19358315E+00</totfact>
</mgrwt>
</event>
<event>
12    1  0.1536832E-007  0.1700849E+04  0.7818608E-02  0.8760880E-01
         -2   -1    0    0    0  501 -0.00000000000E+00  0.00000000000E+00  0.37340707703E+03  0.37340707703E+03  0.00000000000E+00 0.  1.
          2   -1    0    0  501    0  0.00000000000E+00 -0.00000000000E+00 -0.19368183632E+04  0.19368183632E+04  0.00000000000E+00 0. -1.
         23    2    1    2    0    0 -0.50852512322E+03 -0.23519634575E+03 -0.94737001979E+03  0.11045613208E+04  0.92901211027E+02 0.  0.
        254    2    1    2    0    0  0.50852512322E+03  0.23519634575E+03 -0.61604126638E+03  0.12056641194E+04  0.87189678574E+03 0.  0.
        -24    2    4    4    0    0 -0.11300376348E+03  0.65153132414E+02  0.14181667251E+03  0.20803871700E+03  0.78443342264E+02 0.  0.
         24    2    4    4    0    0  0.62152888670E+03  0.17004321334E+03 -0.75785793889E+03  0.99762540243E+03  0.75464803873E+02 0.  0.
         13    1    3    3    0    0 -0.21335061768E+03 -0.80066027032E+02 -0.30419304195E+03  0.38008217732E+03  0.00000000000E+00 0.  1.
        -13    1    3    3    0    0 -0.29517450554E+03 -0.15513031872E+03 -0.64317697784E+03  0.72447914347E+03  0.00000000000E+00 0. -1.
          2    1    6    6  502    0  0.29677482869E+03  0.42969731307E+02 -0.36192524543E+03  0.47001231902E+03  0.00000000000E+00 0. -1.
          1    1    5    5  503    0 -0.12232965736E+03  0.46359413226E+02  0.11665127977E+03  0.17527481661E+03  0.00000000000E+00 0. -1.
         -2    1    5    5    0  503  0.93258938758E+01  0.18793719188E+02  0.25165392736E+02  0.32763900394E+02  0.00000000000E+00 0.  1.
         -1    1    6    6    0  502  0.32475405801E+03  0.12707348203E+03 -0.39593269346E+03  0.52761308341E+03  0.00000000000E+00 0.  1.
<mgrwt>
<rscale>  0 0.17008488E+04</rscale>
<asrwt>0</asrwt>
<pdfrwt beam="1">  1        2 0.29797205E+00 0.17008488E+04</pdfrwt>
<pdfrwt beam="2">  1       -2 0.57447244E-01 0.17008488E+04</pdfrwt>
<totfact> 0.19565572E+01</totfact>
</mgrwt>
</event>
<event>
12    1  0.1536832E-007  0.2709184E+04  0.7818608E-02  0.8332031E-01
         -2   -1    0    0    0  501 -0.00000000000E+00  0.00000000000E+00  0.14659406966E+04  0.14659406966E+04  0.00000000000E+00 0.  1.
          2   -1    0    0  501    0  0.00000000000E+00 -0.00000000000E+00 -0.12517012240E+04  0.12517012240E+04  0.00000000000E+00 0. -1.
         23    2    1    2    0    0  0.78425785668E+03  0.43912734895E+03  0.89921802379E+03  0.12747547894E+04  0.92268653890E+02 0.  0.
        254    2    1    2    0    0 -0.78425785668E+03 -0.43912734895E+03 -0.68497855115E+03  0.14428871312E+04  0.89712565649E+03 0.  0.
        -24    2    4    4    0    0 -0.26017968183E+03 -0.29969292569E+03  0.15962241130E+03  0.43591962769E+03  0.83888563411E+02 0.  0.
         24    2    4    4    0    0 -0.52407817485E+03 -0.13943442326E+03 -0.84460096245E+03  0.10069675035E+04  0.80826206364E+02 0.  0.
         11    1    3    3    0    0  0.27028404690E+03  0.16508672908E+03  0.37786969283E+03  0.49304421595E+03  0.00000000000E+00 0. -1.
        -11    1    3    3    0    0  0.51397380978E+03  0.27404061987E+03  0.52134833096E+03  0.78171057347E+03  0.00000000000E+00 0.  1.
          2    1    6    6  502    0 -0.31982971524E+02 -0.71585010039E+01 -0.95636352515E+02  0.10109632301E+03  0.00000000000E+00 0. -1.
          1    1    5    5  503    0 -0.12990382332E+03 -0.91553804788E+02  0.46650294050E+02  0.16563016760E+03  0.00000000000E+00 0. -1.
         -2    1    5    5    0  503 -0.13027585851E+03 -0.20813912090E+03  0.11297211725E+03  0.27028946009E+03  0.00000000000E+00 0.  1.
         -1    1    6    6    0  502 -0.49209520333E+03 -0.13227592226E+03 -0.74896460993E+03  0.90587118051E+03  0.00000000000E+00 0.  1.
<mgrwt>
<rscale>  0 0.27091842E+04</rscale>
<asrwt>0</asrwt>
<pdfrwt beam="1">  1        2 0.19256942E+00 0.27091842E+04</pdfrwt>
<pdfrwt beam="2">  1       -2 0.22552934E+00 0.27091842E+04</pdfrwt>
<totfact> 0.14108856E+00</totfact>
</mgrwt>
</event>
<event>
12    1  0.1536832E-007  0.1599386E+04  0.7818608E-02  0.8820926E-01
         -2   -1    0    0    0  501 -0.00000000000E+00  0.00000000000E+00  0.58431633159E+03  0.58431633159E+03  0.00000000000E+00 0.  1.
          2   -1    0    0  501    0  0.00000000000E+00 -0.00000000000E+00 -0.10944561358E+04  0.10944561358E+04  0.00000000000E+00 0. -1.
         23    2    1    2    0    0  0.20403201874E+03  0.47911554828E+03 -0.42911295166E+02  0.53161943779E+03  0.97964657451E+02 0.  0.
        254    2    1    2    0    0 -0.20403201874E+03 -0.47911554828E+03 -0.46722850902E+03  0.11471530296E+04  0.90910770559E+03 0.  0.
        -24    2    4    4    0    0 -0.10251070793E+03  0.52028651557E+02  0.22502948634E+03  0.26487693365E+03  0.79410921372E+02 0.  0.
         24    2    4    4    0    0 -0.10152131080E+03 -0.53114419983E+03 -0.69225799536E+03  0.88227609592E+03  0.82275389585E+02 0.  0.
         11    1    3    3    0    0  0.17414032121E+03  0.39572875598E+03 -0.72166352392E+02  0.43833101897E+03  0.00000000000E+00 0.  1.
        -11    1    3    3    0    0  0.29891697526E+02  0.83386792301E+02  0.29255057226E+02  0.93288418812E+02  0.00000000000E+00 0. -1.
          2    1    6    6  502    0 -0.14643141038E+02 -0.20177940402E+03 -0.20745512484E+03  0.28977056146E+03  0.00000000000E+00 0. -1.
          3    1    5    5  503    0  0.91166148790E+01  0.11405295666E+02  0.61560816252E+01  0.15845844157E+02  0.00000000000E+00 0. -1.
         -4    1    5    5    0  503 -0.11162732281E+03  0.40623355891E+02  0.21887340472E+03  0.24903108949E+03  0.00000000000E+00 0.  1.
         -1    1    6    6    0  502 -0.86878169766E+02 -0.32936479581E+03 -0.48480287053E+03  0.59250553446E+03  0.00000000000E+00 0.  1.
<mgrwt>
<rscale>  0 0.15993856E+04</rscale>
<asrwt>0</asrwt>
<pdfrwt beam="1">  1        2 0.16837786E+00 0.15993856E+04</pdfrwt>
<pdfrwt beam="2">  1       -2 0.89894822E-01 0.15993856E+04</pdfrwt>
<totfact> 0.22318951E+01</totfact>
</mgrwt>
</event>
<event>
12    1  0.1536832E-007  0.1404939E+04  0.7818608E-02  0.8950251E-01
         -1   -1    0    0    0  501 -0.00000000000E+00  0.00000000000E+00  0.30305955446E+03  0.30305955446E+03  0.00000000000E+00 0.  1.
          1   -1    0    0  501    0  0.00000000000E+00 -0.00000000000E+00 -0.16282715884E+04  0.16282715884E+04  0.00000000000E+00 0. -1.
         23    2    1    2    0    0 -0.21130370994E+03  0.25398117508E+03 -0.65704567414E+02  0.34992107752E+03  0.94720510884E+02 0.  0.
        254    2    1    2    0    0  0.21130370994E+03 -0.25398117508E+03 -0.12595074666E+04  0.15814100654E+04  0.89740907139E+03 0.  0.
        -24    2    4    4    0    0 -0.19974841822E+03  0.87464418470E+02 -0.90781930906E+03  0.93708253738E+03  0.80239197985E+02 0.  0.
         24    2    4    4    0    0  0.41105212817E+03 -0.34144559355E+03 -0.35168815749E+03  0.64432752798E+03  0.76970499355E+02 0.  0.
         13    1    3    3    0    0 -0.18816458683E+02 -0.49168865511E+01 -0.12042916711E+02  0.22875024233E+02  0.00000000000E+00 0. -1.
        -13    1    3    3    0    0 -0.19248725126E+03  0.25889806163E+03 -0.53661650703E+02  0.32704605328E+03  0.00000000000E+00 0.  1.
          4    1    6    6  502    0  0.36435515245E+03 -0.28540497455E+03 -0.32930279398E+03  0.56802377304E+03  0.00000000000E+00 0. -1.
          3    1    5    5  503    0 -0.18985724480E+03  0.89368461047E+02 -0.90051444183E+03  0.92463979753E+03  0.00000000000E+00 0. -1.
         -4    1    5    5    0  503 -0.98911734282E+01 -0.19040425769E+01 -0.73048672298E+01  0.12442739858E+02  0.00000000000E+00 0.  1.
         -3    1    6    6    0  502  0.46696975716E+02 -0.56040619002E+02 -0.22385363517E+02  0.76303754946E+02  0.00000000000E+00 0.  1.
<mgrwt>
<rscale>  0 0.14049388E+04</rscale>
<asrwt>0</asrwt>
<pdfrwt beam="1">  1        1 0.25050332E+00 0.14049388E+04</pdfrwt>
<pdfrwt beam="2">  1       -1 0.46624548E-01 0.14049388E+04</pdfrwt>
<totfact> 0.23833104E+01</totfact>
</mgrwt>
</event>
<event>
12    1  0.1536832E-007  0.2555028E+04  0.7818608E-02  0.8383640E-01
         -3   -1    0    0    0  501 -0.00000000000E+00  0.00000000000E+00  0.62227297232E+03  0.62227297232E+03  0.00000000000E+00 0.  1.
          3   -1    0    0  501    0  0.00000000000E+00 -0.00000000000E+00 -0.26227109974E+04  0.26227109974E+04  0.00000000000E+00 0. -1.
         23    2    1    2    0    0 -0.51714967971E+03 -0.24190580314E+03  0.34258595051E+03  0.67195729629E+03  0.90549796922E+02 0.  0.
        254    2    1    2    0    0  0.51714967971E+03  0.24190580314E+03 -0.23430239756E+04  0.25730266734E+04  0.89707452490E+03 0.  0.
        -24    2    4    4    0    0  0.38846184763E+03 -0.13868858876E+03 -0.19867223876E+04  0.20306804744E+04  0.80375441802E+02 0.  0.
         24    2    4    4    0    0  0.12868783208E+03  0.38059439189E+03 -0.35630158794E+03  0.54234619908E+03  0.75999531702E+02 0.  0.
         13    1    3    3    0    0 -0.21643278106E+03 -0.10503253181E+03  0.93165942079E+02  0.25798231377E+03  0.00000000000E+00 0. -1.
        -13    1    3    3    0    0 -0.30071689865E+03 -0.13687327133E+03  0.24942000843E+03  0.41397498251E+03  0.00000000000E+00 0.  1.
          2    1    6    6  502    0  0.41380571008E+02  0.17465355606E+03 -0.11424928436E+03  0.21276539963E+03  0.00000000000E+00 0. -1.
          3    1    5    5  503    0  0.49423958200E+02 -0.71076332905E+01 -0.14393734512E+03  0.15235224125E+03  0.00000000000E+00 0. -1.
         -4    1    5    5    0  503  0.33903788943E+03 -0.13158095546E+03 -0.18427850425E+04  0.18783282331E+04  0.00000000000E+00 0.  1.
         -1    1    6    6    0  502  0.87307261070E+02  0.20594083584E+03 -0.24205230357E+03  0.32958079945E+03  0.00000000000E+00 0.  1.
<mgrwt>
<rscale>  0 0.25550281E+04</rscale>
<asrwt>0</asrwt>
<pdfrwt beam="1">  1        3 0.40349399E+00 0.25550281E+04</pdfrwt>
<pdfrwt beam="2">  1       -3 0.95734305E-01 0.25550281E+04</pdfrwt>
<totfact> 0.23855201E-02</totfact>
</mgrwt>
</event>
<event>
12    1  0.1536832E-007  0.1922092E+04  0.7818608E-02  0.8643937E-01
          1   -1    0    0  501    0  0.00000000000E+00  0.00000000000E+00  0.10567841194E+04  0.10567841194E+04  0.00000000000E+00 0. -1.
         -1   -1    0    0    0  501 -0.00000000000E+00 -0.00000000000E+00 -0.87398136551E+03  0.87398136551E+03  0.00000000000E+00 0.  1.
         23    2    1    2    0    0  0.39684870886E+02  0.42874612784E+03  0.68359233061E+03  0.81314185227E+03  0.92212072610E+02 0.  0.
        254    2    1    2    0    0 -0.39684870886E+02 -0.42874612784E+03 -0.50078957676E+03  0.11176236326E+04  0.90160648446E+03 0.  0.
        -24    2    4    4    0    0 -0.11296483091E+02 -0.48089820338E+03  0.10891684565E+03  0.49983489810E+03  0.81125541914E+02 0.  0.
         24    2    4    4    0    0 -0.28388387796E+02  0.52152075535E+02 -0.60970642241E+03  0.61778873449E+03  0.79970365692E+02 0.  0.
         13    1    3    3    0    0  0.40519978352E+02  0.12379996437E+03  0.26460038637E+03  0.29492654050E+03  0.00000000000E+00 0.  1.
        -13    1    3    3    0    0 -0.83510746570E+00  0.30494616347E+03  0.41899194424E+03  0.51821531177E+03  0.00000000000E+00 0. -1.
          2    1    6    6  502    0  0.16949297783E+02 -0.87555456979E+01 -0.21505259441E+03  0.21589709734E+03  0.00000000000E+00 0. -1.
          1    1    5    5  503    0 -0.15874817956E+02 -0.66597900924E+02  0.41501878972E+02  0.80060578382E+02  0.00000000000E+00 0. -1.
         -2    1    5    5    0  503  0.45783348652E+01 -0.41430030245E+03  0.67414966681E+02  0.41977431972E+03  0.00000000000E+00 0.  1.
         -1    1    6    6    0  502 -0.45337685579E+02  0.60907621233E+02 -0.39465382800E+03  0.40189163715E+03  0.00000000000E+00 0.  1.
<mgrwt>
<rscale>  0 0.19220922E+04</rscale>
<asrwt>0</asrwt>
<pdfrwt beam="1">  1        1 0.16258217E+00 0.19220922E+04</pdfrwt>
<pdfrwt beam="2">  1       -1 0.13445867E+00 0.19220922E+04</pdfrwt>
<totfact> 0.59440511E+00</totfact>
</mgrwt>
</event>
<event>
12    1  0.1536832E-007  0.2946546E+04  0.7818608E-02  0.8259162E-01
          2   -1    0    0  501    0  0.00000000000E+00  0.00000000000E+00  0.24315247002E+04  0.24315247002E+04  0.00000000000E+00 0. -1.
         -2   -1    0    0    0  501 -0.00000000000E+00 -0.00000000000E+00 -0.89266366147E+03  0.89266366147E+03  0.00000000000E+00 0.  1.
         23    2    1    2    0    0 -0.63094752170E+03 -0.37103687614E+03  0.19603105231E+04  0.20945075338E+04  0.91549569243E+02 0.  0.
        254    2    1    2    0    0  0.63094752170E+03  0.37103687614E+03 -0.42144948436E+03  0.12296808279E+04  0.89371815019E+03 0.  0.
        -24    2    4    4    0    0  0.62794537205E+03  0.36160916191E+02  0.60920162701E+02  0.63684309707E+03  0.78961141866E+02 0.  0.
         24    2    4    4    0    0  0.30021496500E+01  0.33487595995E+03 -0.48236964706E+03  0.59283773080E+03  0.81395191541E+02 0.  0.
         11    1    3    3    0    0 -0.24519710511E+03 -0.14753193524E+03  0.89626643220E+03  0.94084048050E+03  0.00000000000E+00 0.  1.
        -11    1    3    3    0    0 -0.38575041660E+03 -0.22350494090E+03  0.10640440909E+04  0.11536670533E+04  0.00000000000E+00 0. -1.
          4    1    6    6  502    0  0.39802582690E+02  0.23000536531E+03 -0.33252897325E+03  0.40627851495E+03  0.00000000000E+00 0. -1.
          3    1    5    5  503    0  0.47096834373E+03  0.24524305136E+02  0.11091682424E+02  0.47173684164E+03  0.00000000000E+00 0. -1.
         -4    1    5    5    0  503  0.15697702832E+03  0.11636611055E+02  0.49828480276E+02  0.16510625544E+03  0.00000000000E+00 0.  1.
         -3    1    6    6    0  502 -0.36800433040E+02  0.10487059464E+03 -0.14984067381E+03  0.18655921585E+03  0.00000000000E+00 0.  1.
<mgrwt>
<rscale>  0 0.29465463E+04</rscale>
<asrwt>0</asrwt>
<pdfrwt beam="1">  1        2 0.37408072E+00 0.29465463E+04</pdfrwt>
<pdfrwt beam="2">  1       -2 0.13733287E+00 0.29465463E+04</pdfrwt>
<totfact> 0.12375141E+00</totfact>
</mgrwt>
</event>
<event>
12    1  0.1536832E-007  0.1199945E+04  0.7818608E-02  0.9112905E-01
          4   -1    0    0  501    0  0.00000000000E+00  0.00000000000E+00  0.20554162670E+03  0.20554162670E+03  0.00000000000E+00 0.  1.
         -4   -1    0    0    0  501 -0.00000000000E+00 -0.00000000000E+00 -0.17513082833E+04  0.17513082833E+04  0.00000000000E+00 0. -1.
         23    2    1    2    0    0 -0.71296072145E+02 -0.21732099244E+03 -0.49755717506E+03  0.55555670518E+03  0.93640624524E+02 0.  0.
        254    2    1    2    0    0  0.71296072145E+02  0.21732099244E+03 -0.10482094815E+04  0.14012932048E+04  0.90142552936E+03 0.  0.
        -24    2    4    4    0    0 -0.36910447718E+03  0.11274161169E+03 -0.21287255990E+03  0.44780670012E+03  0.79166456539E+02 0.  0.
         24    2    4    4    0    0  0.44040054932E+03  0.10457938075E+03 -0.83533692160E+03  0.95348650465E+03  0.80369467062E+02 0.  0.
         11    1    3    3    0    0 -0.35982931463E+02 -0.25616622639E+02 -0.15766195158E+03  0.16373232328E+03  0.00000000000E+00 0. -1.
        -11    1    3    3    0    0 -0.35313140681E+02 -0.19170436980E+03 -0.33989522349E+03  0.39182438190E+03  0.00000000000E+00 0.  1.
          4    1    6    6  502    0  0.20334731479E+03  0.75017476135E+01 -0.36095974169E+03  0.41436498618E+03  0.00000000000E+00 0. -1.
          3    1    5    5  503    0 -0.52720464470E+02  0.44139316323E+02 -0.52591838887E+02  0.86565744593E+02  0.00000000000E+00 0. -1.
         -4    1    5    5    0  503 -0.31638401271E+03  0.68602295363E+02 -0.16028072101E+03  0.36124095553E+03  0.00000000000E+00 0.  1.
         -3    1    6    6    0  502  0.23705323454E+03  0.97077633139E+02 -0.47437717991E+03  0.53912151847E+03  0.00000000000E+00 0.  1.
<mgrwt>
<rscale>  0 0.11999446E+04</rscale>
<asrwt>0</asrwt>
<pdfrwt beam="1">  1        4 0.31621787E-01 0.11999446E+04</pdfrwt>
<pdfrwt beam="2">  1       -4 0.26943206E+00 0.11999446E+04</pdfrwt>
<totfact> 0.92304295E-01</totfact>
</mgrwt>
</event>
<event>
12    1  0.1536832E-007  0.1135803E+04  0.7818608E-02  0.9170982E-01
          2   -1    0    0  501    0  0.00000000000E+00  0.00000000000E+00  0.92638379999E+03  0.92638379999E+03  0.00000000000E+00 0. -1.
         -2   -1    0    0    0  501 -0.00000000000E+00 -0.00000000000E+00 -0.34814095730E+03  0.34814095730E+03  0.00000000000E+00 0.  1.
         23    2    1    2    0    0 -0.24264236592E+02 -0.24008583137E+03 -0.30629187620E+02  0.25948906027E+03  0.90368499295E+02 0.  0.
        254    2    1    2    0    0  0.24264236592E+02  0.24008583137E+03  0.60887203031E+03  0.10150356970E+04  0.77546267306E+03 0.  0.
        -24    2    4    4    0    0 -0.33988438204E+03 -0.20334828979E+02  0.33095050114E+03  0.48141516383E+03  0.79356331445E+02 0.  0.
         24    2    4    4    0    0  0.36414861863E+03  0.26042066035E+03  0.27792152918E+03  0.53362053318E+03  0.84186461258E+02 0.  0.
         11    1    3    3    0    0 -0.23596491370E+02 -0.10501063758E+03  0.29551744573E+02  0.11161242770E+03  0.00000000000E+00 0. -1.
        -11    1    3    3    0    0 -0.66774522165E+00 -0.13507519379E+03 -0.60180932193E+02  0.14787663257E+03  0.00000000000E+00 0.  1.
          2    1    6    6  502    0  0.30943016553E+03  0.25313349163E+03  0.23535678409E+03  0.46391422456E+03  0.00000000000E+00 0. -1.
          1    1    5    5  503    0 -0.32986630440E+03 -0.16377418931E+02  0.29147694680E+03  0.44049836452E+03  0.00000000000E+00 0. -1.
         -2    1    5    5    0  503 -0.10018077639E+02 -0.39574100477E+01  0.39473554336E+02  0.40916799310E+02  0.00000000000E+00 0.  1.
         -1    1    6    6    0  502  0.54718453101E+02  0.72871687192E+01  0.42564745080E+02  0.69706308620E+02  0.00000000000E+00 0.  1.
<mgrwt>
<rscale>  0 0.11358031E+04</rscale>
<asrwt>0</asrwt>
<pdfrwt beam="1">  1        2 0.14252058E+00 0.11358031E+04</pdfrwt>
<pdfrwt beam="2">  1       -2 0.53560148E-01 0.11358031E+04</pdfrwt>
<totfact> 0.91608941E+01</totfact>
</mgrwt>
</event>
<event>
12    1  0.1536832E-007  0.1728895E+04  0.7818608E-02  0.8745054E-01
         -1   -1    0    0    0  501 -0.00000000000E+00  0.00000000000E+00  0.12945885183E+04  0.12945885183E+04  0.00000000000E+00 0.  1.
          1   -1    0    0  501    0  0.00000000000E+00 -0.00000000000E+00 -0.57722515222E+03  0.57722515222E+03  0.00000000000E+00 0. -1.
         23    2    1    2    0    0  0.17277483115E+03  0.29550127915E+03  0.83325356095E+03  0.90522465283E+03  0.89151707838E+02 0.  0.
        254    2    1    2    0    0 -0.17277483115E+03 -0.29550127915E+03 -0.11589019490E+03  0.96658901764E+03  0.89648850717E+03 0.  0.
        -24    2    4    4    0    0  0.48204571685E+02 -0.22194505572E+03  0.35881479722E+03  0.43207037608E+03  0.79708611140E+02 0.  0.
         24    2    4    4    0    0 -0.22097940283E+03 -0.73556223421E+02 -0.47470499212E+03  0.53451864156E+03  0.78249179880E+02 0.  0.
         13    1    3    3    0    0 -0.38840603014E+01  0.52858497937E+02  0.14459435811E+03  0.15400206208E+03  0.00000000000E+00 0. -1.
        -13    1    3    3    0    0  0.17665889145E+03  0.24264278121E+03  0.68865920284E+03  0.75122259075E+03  0.00000000000E+00 0.  1.
          4    1    6    6  502    0 -0.16727757761E+02  0.14873261981E+02 -0.56535928744E+02  0.60805781309E+02  0.00000000000E+00 0. -1.
          1    1    5    5  503    0  0.12536469514E+02 -0.10180642381E+03  0.23256455960E+03  0.25418100909E+03  0.00000000000E+00 0. -1.
         -2    1    5    5    0  503  0.35668102171E+02 -0.12013863192E+03  0.12625023761E+03  0.17788936699E+03  0.00000000000E+00 0.  1.
         -3    1    6    6    0  502 -0.20425164507E+03 -0.88429485402E+02 -0.41816906338E+03  0.47371286025E+03  0.00000000000E+00 0.  1.
<mgrwt>
<rscale>  0 0.17288945E+04</rscale>
<asrwt>0</asrwt>
<pdfrwt beam="1">  1        1 0.88803870E-01 0.17288945E+04</pdfrwt>
<pdfrwt beam="2">  1       -1 0.19916746E+00 0.17288945E+04</pdfrwt>
<totfact> 0.52417978E+00</totfact>
</mgrwt>
</event>
<event>
12    1  0.1536832E-007  0.2707939E+04  0.7818608E-02  0.8332434E-01
         -2   -1    0    0    0  501 -0.00000000000E+00  0.00000000000E+00  0.11298896160E+04  0.11298896160E+04  0.00000000000E+00 0.  1.
          2   -1    0    0  501    0  0.00000000000E+00 -0.00000000000E+00 -0.16224890126E+04  0.16224890126E+04  0.00000000000E+00 0. -1.
         23    2    1    2    0    0 -0.41897035106E+03 -0.10735445475E+04  0.12744575070E+03  0.11626845376E+04  0.86941728194E+02 0.  0.
        254    2    1    2    0    0  0.41897035106E+03  0.10735445475E+04 -0.62004514729E+03  0.15896940910E+04  0.90257258309E+03 0.  0.
        -24    2    4    4    0    0  0.47940423558E+03  0.18544190881E+03 -0.35249493799E+02  0.52155337428E+03  0.80983163546E+02 0.  0.
         24    2    4    4    0    0 -0.60433884512E+02  0.88810263871E+03 -0.58479565349E+03  0.10681407167E+04  0.80994340057E+02 0.  0.
         11    1    3    3    0    0 -0.27517861114E+03 -0.60264135456E+03  0.94697692245E+02  0.66922905135E+03  0.00000000000E+00 0.  1.
        -11    1    3    3    0    0 -0.14379173992E+03 -0.47090319296E+03  0.32748058457E+02  0.49345548629E+03  0.00000000000E+00 0. -1.
          4    1    6    6  502    0 -0.49944564521E+02  0.23546093580E+03 -0.17199339502E+03  0.29583448031E+03  0.00000000000E+00 0. -1.
          1    1    5    5  503    0  0.40329016410E+02  0.24150496792E+02  0.18904889830E+02  0.50666270036E+02  0.00000000000E+00 0. -1.
         -4    1    5    5    0  503  0.43907521917E+03  0.16129141202E+03 -0.54154383629E+02  0.47088710424E+03  0.00000000000E+00 0.  1.
         -3    1    6    6    0  502 -0.10489319990E+02  0.65264170292E+03 -0.41280225847E+03  0.77230623642E+03  0.00000000000E+00 0.  1.
<mgrwt>
<rscale>  0 0.27079391E+04</rscale>
<asrwt>0</asrwt>
<pdfrwt beam="1">  1        2 0.24961369E+00 0.27079391E+04</pdfrwt>
<pdfrwt beam="2">  1       -2 0.17382917E+00 0.27079391E+04</pdfrwt>
<totfact> 0.19022152E+00</totfact>
</mgrwt>
</event>
<event>
12    1  0.1536832E-007  0.1828185E+04  0.7818608E-02  0.8691453E-01
         -2   -1    0    0    0  501 -0.00000000000E+00  0.00000000000E+00  0.54777938882E+03  0.54777938882E+03  0.00000000000E+00 0.  1.
          2   -1    0    0  501    0  0.00000000000E+00 -0.00000000000E+00 -0.15253677253E+04  0.15253677253E+04  0.00000000000E+00 0. -1.
         23    2    1    2    0    0  0.38915626863E+03 -0.55132751703E+03 -0.16831706562E+03  0.70141392138E+03  0.90808711450E+02 0.  0.
        254    2    1    2    0    0 -0.38915626863E+03  0.55132751703E+03 -0.80927127081E+03  0.13717331927E+04  0.87825242940E+03 0.  0.
        -24    2    4    4    0    0 -0.22562268111E+01 -0.10009868536E+02  0.16291965612E+03  0.18174037730E+03  0.79884055770E+02 0.  0.
         24    2    4    4    0    0 -0.38690004182E+03  0.56133738557E+03 -0.97219092693E+03  0.11899928154E+04  0.78335174129E+02 0.  0.
         13    1    3    3    0    0  0.95661074582E+02 -0.13700187245E+03 -0.82919256256E+02  0.18653728126E+03  0.00000000000E+00 0.  1.
        -13    1    3    3    0    0  0.29349519405E+03 -0.41432564458E+03 -0.85397809365E+02  0.51487664011E+03  0.00000000000E+00 0. -1.
          4    1    6    6  502    0 -0.81065405860E+02  0.71015646758E+02 -0.17127754882E+03  0.20236309160E+03  0.00000000000E+00 0. -1.
          3    1    5    5  503    0  0.11023266357E+01 -0.43396156539E+02  0.64412060875E+02  0.77674674846E+02  0.00000000000E+00 0. -1.
         -2    1    5    5    0  503 -0.33585534467E+01  0.33386288003E+02  0.98507595241E+02  0.10406570246E+03  0.00000000000E+00 0.  1.
         -3    1    6    6    0  502 -0.30583463596E+03  0.49032173881E+03 -0.80091337810E+03  0.98762972380E+03  0.00000000000E+00 0.  1.
<mgrwt>
<rscale>  0 0.18281849E+04</rscale>
<asrwt>0</asrwt>
<pdfrwt beam="1">  1        2 0.23467196E+00 0.18281849E+04</pdfrwt>
<pdfrwt beam="2">  1       -2 0.84273753E-01 0.18281849E+04</pdfrwt>
<totfact> 0.14214851E+01</totfact>
</mgrwt>
</event>
<event>
12    1  0.1536832E-007  0.2999550E+04  0.7818608E-02  0.8243859E-01
          2   -1    0    0  501    0  0.00000000000E+00  0.00000000000E+00  0.25407111023E+04  0.25407111023E+04  0.00000000000E+00 0. -1.
         -2   -1    0    0    0  501 -0.00000000000E+00 -0.00000000000E+00 -0.88531333712E+03  0.88531333712E+03  0.00000000000E+00 0.  1.
         23    2    1    2    0    0 -0.73793931632E+03  0.78654012257E+03  0.17037443118E+04  0.20184810921E+04  0.91221929894E+02 0.  0.
        254    2    1    2    0    0  0.73793931632E+03 -0.78654012257E+03 -0.48346546536E+02  0.14075433473E+04  0.90312849975E+03 0.  0.
        -24    2    4    4    0    0  0.37430991147E+03 -0.85332541815E+03  0.19810555521E+03  0.95624986047E+03  0.83040987243E+02 0.  0.
         24    2    4    4    0    0  0.36362940485E+03  0.66785295572E+02 -0.24645210175E+03  0.45129348686E+03  0.78997171160E+02 0.  0.
         11    1    3    3    0    0 -0.49297902921E+03  0.51286519234E+03  0.10427271615E+04  0.12622753115E+04  0.00000000000E+00 0.  1.
        -11    1    3    3    0    0 -0.24496028711E+03  0.27367493024E+03  0.66101715030E+03  0.75620578065E+03  0.00000000000E+00 0. -1.
          2    1    6    6  502    0  0.22124237321E+03  0.16470098666E+02 -0.10940844900E+03  0.24736543931E+03  0.00000000000E+00 0. -1.
          1    1    5    5  503    0  0.15791075164E+03 -0.40445897069E+03  0.54083413520E+02  0.43754757463E+03  0.00000000000E+00 0. -1.
         -2    1    5    5    0  503  0.21639915984E+03 -0.44886644746E+03  0.14402214169E+03  0.51870228584E+03  0.00000000000E+00 0.  1.
         -1    1    6    6    0  502  0.14238703164E+03  0.50315196905E+02 -0.13704365275E+03  0.20392804755E+03  0.00000000000E+00 0.  1.
<mgrwt>
<rscale>  0 0.29995502E+04</rscale>
<asrwt>0</asrwt>
<pdfrwt beam="1">  1        2 0.39087863E+00 0.29995502E+04</pdfrwt>
<pdfrwt beam="2">  1       -2 0.13620205E+00 0.29995502E+04</pdfrwt>
<totfact> 0.10880252E+00</totfact>
</mgrwt>
</event>
<event>
12    1  0.1536832E-007  0.1212164E+04  0.7818608E-02  0.9102275E-01
          1   -1    0    0  501    0  0.00000000000E+00  0.00000000000E+00  0.30191230880E+04  0.30191230880E+04  0.00000000000E+00 0. -1.
         -1   -1    0    0    0  501 -0.00000000000E+00 -0.00000000000E+00 -0.12166960352E+03  0.12166960352E+03  0.00000000000E+00 0.  1.
         23    2    1    2    0    0 -0.95891090084E+02  0.12956219504E+03  0.12589845192E+04  0.12725194026E+04  0.91006301001E+02 0.  0.
        254    2    1    2    0    0  0.95891090084E+02 -0.12956219504E+03  0.16384689653E+04  0.18682732889E+04  0.88310988467E+03 0.  0.
        -24    2    4    4    0    0  0.36676173844E+03 -0.36543330588E+03  0.10728892171E+04  0.11940287074E+04  0.80979058812E+02 0.  0.
         24    2    4    4    0    0 -0.27087064836E+03  0.23587111083E+03  0.56557974816E+03  0.67424458157E+03  0.75625492915E+02 0.  0.
         11    1    3    3    0    0 -0.50315986289E+02  0.12994073887E+03  0.97258545405E+03  0.98251654415E+03  0.00000000000E+00 0. -1.
        -11    1    3    3    0    0 -0.45575103795E+02 -0.37854382997E+00  0.28639906513E+03  0.29000285842E+03  0.00000000000E+00 0.  1.
          2    1    6    6  502    0 -0.46191335252E+02  0.27424738411E+02  0.44682541634E+02  0.69873351546E+02  0.00000000000E+00 0. -1.
          3    1    5    5  503    0  0.10812638155E+01 -0.10080812617E+02  0.50892857655E+02  0.51892917385E+02  0.00000000000E+00 0. -1.
         -4    1    5    5    0  503  0.36568047463E+03 -0.35535249326E+03  0.10219963595E+04  0.11421357900E+04  0.00000000000E+00 0.  1.
         -1    1    6    6    0  502 -0.22467931311E+03  0.20844637242E+03  0.52089720653E+03  0.60437123002E+03  0.00000000000E+00 0.  1.
<mgrwt>
<rscale>  0 0.12121642E+04</rscale>
<asrwt>0</asrwt>
<pdfrwt beam="1">  1        1 0.46448042E+00 0.12121642E+04</pdfrwt>
<pdfrwt beam="2">  1       -1 0.18718403E-01 0.12121642E+04</pdfrwt>
<totfact> 0.13248765E+01</totfact>
</mgrwt>
</event>
<event>
12    1  0.1536832E-007  0.2962508E+04  0.7818608E-02  0.8254519E-01
         -1   -1    0    0    0  501 -0.00000000000E+00  0.00000000000E+00  0.93789376985E+03  0.93789376985E+03  0.00000000000E+00 0.  1.
          1   -1    0    0  501    0  0.00000000000E+00 -0.00000000000E+00 -0.23394047564E+04  0.23394047564E+04  0.00000000000E+00 0. -1.
         23    2    1    2    0    0 -0.71839691727E+03 -0.10264724411E+04 -0.12736752271E+03  0.12626787220E+04  0.91625684515E+02 0.  0.
        254    2    1    2    0    0  0.71839691727E+03  0.10264724411E+04 -0.12741434639E+04  0.20146198043E+04  0.93032875166E+03 0.  0.
        -24    2    4    4    0    0  0.21598369547E+03  0.50829527804E+02  0.98831720612E+02  0.25519904694E+03  0.78270345322E+02 0.  0.
         24    2    4    4    0    0  0.50241322180E+03  0.97564291330E+03 -0.13729751845E+04  0.17594207573E+04  0.78755345243E+02 0.  0.
         11    1    3    3    0    0 -0.32339624747E+03 -0.40326079832E+03 -0.82587428624E+02  0.52347405638E+03  0.00000000000E+00 0. -1.
        -11    1    3    3    0    0 -0.39500066980E+03 -0.62321164279E+03 -0.44780094085E+02  0.73920466562E+03  0.00000000000E+00 0.  1.
          4    1    6    6  502    0  0.49223436716E+03  0.96395399212E+03 -0.13366222894E+04  0.17199014843E+04  0.00000000000E+00 0. -1.
          3    1    5    5  503    0  0.20357594911E+03  0.61521851775E+02  0.10563978257E+03  0.23746129993E+03  0.00000000000E+00 0. -1.
         -4    1    5    5    0  503  0.12407746351E+02 -0.10692323972E+02 -0.68080619552E+01  0.17737747010E+02  0.00000000000E+00 0.  1.
         -3    1    6    6    0  502  0.10178854646E+02  0.11688921179E+02 -0.36352895139E+02  0.39519273085E+02  0.00000000000E+00 0.  1.
<mgrwt>
<rscale>  0 0.29625078E+04</rscale>
<asrwt>0</asrwt>
<pdfrwt beam="1">  1        1 0.35990842E+00 0.29625078E+04</pdfrwt>
<pdfrwt beam="2">  1       -1 0.14429135E+00 0.29625078E+04</pdfrwt>
<totfact> 0.57780456E-01</totfact>
</mgrwt>
</event>
<event>
12    1  0.1536832E-007  0.1829218E+04  0.7818608E-02  0.8690914E-01
          2   -1    0    0  501    0  0.00000000000E+00  0.00000000000E+00  0.71180261735E+03  0.71180261735E+03  0.00000000000E+00 0. -1.
         -2   -1    0    0    0  501 -0.00000000000E+00 -0.00000000000E+00 -0.11751992451E+04  0.11751992451E+04  0.00000000000E+00 0.  1.
         23    2    1    2    0    0 -0.14722599780E+03 -0.63853881645E+03  0.76544388223E+02  0.66643627445E+03  0.94185720805E+02 0.  0.
        254    2    1    2    0    0  0.14722599780E+03  0.63853881645E+03 -0.53994101601E+03  0.12205655880E+04  0.87683335894E+03 0.  0.
        -24    2    4    4    0    0 -0.14091195592E+03  0.71095212908E+03 -0.18844243724E+03  0.75316677097E+03  0.80252872622E+02 0.  0.
         24    2    4    4    0    0  0.28813795373E+03 -0.72413312637E+02 -0.35149857876E+03  0.46739881705E+03  0.81506043242E+02 0.  0.
         11    1    3    3    0    0 -0.15153163771E+03 -0.61187251523E+03  0.89146805318E+02  0.63662937807E+03  0.00000000000E+00 0. -1.
        -11    1    3    3    0    0  0.43056399085E+01 -0.26666301212E+02 -0.12602417094E+02  0.29806896382E+02  0.00000000000E+00 0.  1.
          4    1    6    6  502    0  0.27493510365E+03 -0.58988331958E+02 -0.34933421555E+03  0.44844545787E+03  0.00000000000E+00 0. -1.
          3    1    5    5  503    0 -0.75714083236E+02  0.36464457951E+03 -0.55511739964E+02  0.37653664502E+03  0.00000000000E+00 0. -1.
         -4    1    5    5    0  503 -0.65197872689E+02  0.34630754957E+03 -0.13293069728E+03  0.37663012595E+03  0.00000000000E+00 0.  1.
         -3    1    6    6    0  502  0.13202850078E+02 -0.13424980678E+02 -0.21643632131E+01  0.18953359188E+02  0.00000000000E+00 0.  1.
<mgrwt>
<rscale>  0 0.18292183E+04</rscale>
<asrwt>0</asrwt>
<pdfrwt beam="1">  1        2 0.10950810E+00 0.18292183E+04</pdfrwt>
<pdfrwt beam="2">  1       -2 0.18079988E+00 0.18292183E+04</pdfrwt>
<totfact> 0.67590889E+00</totfact>
</mgrwt>
</event>
<event>
12    1  0.1536832E-007  0.2608061E+04  0.7818608E-02  0.8365468E-01
         -1   -1    0    0    0  501 -0.00000000000E+00  0.00000000000E+00  0.10183031566E+04  0.10183031566E+04  0.00000000000E+00 0.  1.
          1   -1    0    0  501    0  0.00000000000E+00 -0.00000000000E+00 -0.16699301221E+04  0.16699301221E+04  0.00000000000E+00 0. -1.
         23    2    1    2    0    0 -0.19811401720E+03 -0.96750792320E+03  0.27545497814E+03  0.10294234975E+04  0.92285139223E+02 0.  0.
        254    2    1    2    0    0  0.19811401720E+03  0.96750792320E+03 -0.92708194364E+03  0.16588097812E+04  0.95752191344E+03 0.  0.
        -24    2    4    4    0    0 -0.10922972517E+03  0.17058218587E+03 -0.75178728430E+03  0.78318407931E+03  0.84639034981E+02 0.  0.
         24    2    4    4    0    0  0.30734374238E+03  0.79692573733E+03 -0.17529465934E+03  0.87562570190E+03  0.80257992949E+02 0.  0.
         11    1    3    3    0    0 -0.10913083604E+02 -0.16277823583E+03  0.73189997637E+02  0.17880890696E+03  0.00000000000E+00 0. -1.
        -11    1    3    3    0    0 -0.18720093360E+03 -0.80472968738E+03  0.20226498050E+03  0.85061459053E+03  0.00000000000E+00 0.  1.
          2    1    6    6  502    0  0.22518164241E+03  0.66468220581E+03 -0.15399146508E+03  0.71848631032E+03  0.00000000000E+00 0. -1.
          1    1    5    5  503    0 -0.61547672217E+02  0.12848435793E+03 -0.62863042526E+03  0.64457160794E+03  0.00000000000E+00 0. -1.
         -2    1    5    5    0  503 -0.47682052956E+02  0.42097827945E+02 -0.12315685904E+03  0.13861247137E+03  0.00000000000E+00 0.  1.
         -1    1    6    6    0  502  0.82162099963E+02  0.13224353152E+03 -0.21303194261E+02  0.15713939157E+03  0.00000000000E+00 0.  1.
<mgrwt>
<rscale>  0 0.26080607E+04</rscale>
<asrwt>0</asrwt>
<pdfrwt beam="1">  1        1 0.25691232E+00 0.26080607E+04</pdfrwt>
<pdfrwt beam="2">  1       -1 0.15666203E+00 0.26080607E+04</pdfrwt>
<totfact> 0.13628369E+00</totfact>
</mgrwt>
</event>
<event>
12    1  0.1536832E-007  0.1525068E+04  0.7818608E-02  0.8867952E-01
         -2   -1    0    0    0  501 -0.00000000000E+00  0.00000000000E+00  0.10142829640E+04  0.10142829640E+04  0.00000000000E+00 0.  1.
          2   -1    0    0  501    0  0.00000000000E+00 -0.00000000000E+00 -0.57327044687E+03  0.57327044687E+03  0.00000000000E+00 0. -1.
         23    2    1    2    0    0 -0.16525495863E+03 -0.28396765057E+03 -0.22593215962E+03  0.40794397706E+03  0.86174936863E+02 0.  0.
        254    2    1    2    0    0  0.16525495863E+03  0.28396765057E+03  0.66694467676E+03  0.11796094338E+04  0.91581460274E+03 0.  0.
        -24    2    4    4    0    0  0.19920618595E+03 -0.90721525914E+02  0.74905163912E+03  0.78438173730E+03  0.79138182610E+02 0.  0.
         24    2    4    4    0    0 -0.33951227325E+02  0.37468917649E+03 -0.82106962363E+02  0.39522769653E+03  0.88987156514E+02 0.  0.
         11    1    3    3    0    0 -0.47409697396E+02 -0.12341094951E+03 -0.13517350710E+03  0.18907622508E+03  0.00000000000E+00 0. -1.
        -11    1    3    3    0    0 -0.11784526123E+03 -0.16055670106E+03 -0.90758652517E+02  0.21886775198E+03  0.00000000000E+00 0.  1.
          4    1    6    6  502    0  0.10163441155E+02  0.68344921087E+01  0.70892060716E+01  0.14151419053E+02  0.00000000000E+00 0. -1.
          1    1    5    5  503    0  0.95259278488E+02 -0.17433415487E+01  0.27893769287E+03  0.29476025153E+03  0.00000000000E+00 0. -1.
         -2    1    5    5    0  503  0.10394690746E+03 -0.88978184365E+02  0.47011394625E+03  0.48962148576E+03  0.00000000000E+00 0.  1.
         -3    1    6    6    0  502 -0.44114668479E+02  0.36785468438E+03 -0.89196168434E+02  0.38107627748E+03  0.00000000000E+00 0.  1.
<mgrwt>
<rscale>  0 0.15250685E+04</rscale>
<asrwt>0</asrwt>
<pdfrwt beam="1">  1        2 0.88195454E-01 0.15250685E+04</pdfrwt>
<pdfrwt beam="2">  1       -2 0.15604353E+00 0.15250685E+04</pdfrwt>
<totfact> 0.13611525E+01</totfact>
</mgrwt>
</event>
<event>
12    1  0.1536832E-007  0.1306465E+04  0.7818608E-02  0.9024454E-01
         -2   -1    0    0    0  501 -0.00000000000E+00  0.00000000000E+00  0.22048338041E+03  0.22048338041E+03  0.00000000000E+00 0. -1.
          2   -1    0    0  501    0  0.00000000000E+00 -0.00000000000E+00 -0.19353511889E+04  0.19353511889E+04  0.00000000000E+00 0.  1.
         23    2    1    2    0    0 -0.36615003700E+01  0.13661101492E+02  0.96398993566E+02  0.13216058399E+03  0.89295138278E+02 0.  0.
        254    2    1    2    0    0  0.36615003700E+01 -0.13661101492E+02 -0.18112668020E+04  0.20236739853E+04  0.90242392388E+03 0.  0.
        -24    2    4    4    0    0 -0.41977477783E+03  0.70045825478E+02 -0.63899218359E+03  0.77194405684E+03  0.80432172893E+02 0.  0.
         24    2    4    4    0    0  0.42343627820E+03 -0.83706926970E+02 -0.11722746185E+04  0.12517299285E+04  0.79340415007E+02 0.  0.
         13    1    3    3    0    0  0.25435730974E+02  0.42393233007E+02  0.50029575207E+02  0.70335773333E+02  0.00000000000E+00 0.  1.
        -13    1    3    3    0    0 -0.29097231344E+02 -0.28732131515E+02  0.46369418358E+02  0.61824810653E+02  0.00000000000E+00 0. -1.
          4    1    6    6  502    0  0.16340294327E+03 -0.44287630011E+02 -0.35753572894E+03  0.39559286332E+03  0.00000000000E+00 0. -1.
          1    1    5    5  503    0 -0.54048218289E+02  0.37817434876E+02 -0.98515750901E+02  0.11856104527E+03  0.00000000000E+00 0. -1.
         -2    1    5    5    0  503 -0.36572655954E+03  0.32228390602E+02 -0.54047643269E+03  0.65338301157E+03  0.00000000000E+00 0.  1.
         -3    1    6    6    0  502  0.26003333493E+03 -0.39419296959E+02 -0.81473888952E+03  0.85613706516E+03  0.00000000000E+00 0.  1.
<mgrwt>
<rscale>  0 0.13064651E+04</rscale>
<asrwt>0</asrwt>
<pdfrwt beam="1">  1        2 0.29774634E+00 0.13064651E+04</pdfrwt>
<pdfrwt beam="2">  1       -2 0.33920519E-01 0.13064651E+04</pdfrwt>
<totfact> 0.57867596E+01</totfact>
</mgrwt>
</event>
<event>
12    1  0.1536832E-007  0.1950149E+04  0.7818608E-02  0.8630289E-01
         -1   -1    0    0    0  501 -0.00000000000E+00  0.00000000000E+00  0.44695399057E+03  0.44695399057E+03  0.00000000000E+00 0.  1.
          1   -1    0    0  501    0  0.00000000000E+00 -0.00000000000E+00 -0.21272220063E+04  0.21272220063E+04  0.00000000000E+00 0. -1.
         23    2    1    2    0    0 -0.73171189412E+02 -0.46543422954E+03 -0.14515451562E+04  0.15287898667E+04  0.90730761011E+02 0.  0.
        254    2    1    2    0    0  0.73171189412E+02  0.46543422954E+03 -0.22872285956E+03  0.10453861302E+04  0.90472922457E+03 0.  0.
        -24    2    4    4    0    0 -0.20117613690E+03  0.52789606884E+03  0.12655729555E+03  0.58539330788E+03  0.86732221793E+02 0.  0.
         24    2    4    4    0    0  0.27434732631E+03 -0.62461839301E+02 -0.35528015511E+03  0.45999282234E+03  0.78749420145E+02 0.  0.
         11    1    3    3    0    0 -0.17111044976E+02 -0.56381423358E+02 -0.10540158679E+03  0.12075242133E+03  0.00000000000E+00 0.  1.
        -11    1    3    3    0    0 -0.56060144437E+02 -0.40905280618E+03 -0.13461435694E+04  0.14080374453E+04  0.00000000000E+00 0. -1.
          2    1    6    6  502    0  0.11806393962E+03  0.12450168621E+02 -0.15175420918E+03  0.19267444185E+03  0.00000000000E+00 0. -1.
          1    1    5    5  503    0 -0.68183520308E+01  0.27827083334E+02  0.27698882547E+02  0.39850528047E+02  0.00000000000E+00 0. -1.
         -2    1    5    5    0  503 -0.19435778487E+03  0.50006898551E+03  0.98858413000E+02  0.54554277983E+03  0.00000000000E+00 0.  1.
         -1    1    6    6    0  502  0.15628338668E+03 -0.74912007922E+02 -0.20352594593E+03  0.26731838050E+03  0.00000000000E+00 0.  1.
<mgrwt>
<rscale>  0 0.19501491E+04</rscale>
<asrwt>0</asrwt>
<pdfrwt beam="1">  1        1 0.32726492E+00 0.19501491E+04</pdfrwt>
<pdfrwt beam="2">  1       -1 0.68762153E-01 0.19501491E+04</pdfrwt>
<totfact> 0.48694107E+00</totfact>
</mgrwt>
</event>
<event>
12    1  0.1536832E-007  0.1185719E+04  0.7818608E-02  0.9125450E-01
          1   -1    0    0  501    0  0.00000000000E+00  0.00000000000E+00  0.88063642781E+03  0.88063642781E+03  0.00000000000E+00 0. -1.
         -1   -1    0    0    0  501 -0.00000000000E+00 -0.00000000000E+00 -0.39912293693E+03  0.39912293693E+03  0.00000000000E+00 0.  1.
         23    2    1    2    0    0 -0.11767861925E+03 -0.17505423049E+03  0.20929770543E+03  0.31044157746E+03  0.89867694289E+02 0.  0.
        254    2    1    2    0    0  0.11767861925E+03  0.17505423049E+03  0.27221578545E+03  0.96931778728E+03  0.90608128655E+03 0.  0.
        -24    2    4    4    0    0 -0.34242907122E+02 -0.28364856193E+03  0.36622339785E+03  0.47125707984E+03  0.79590042072E+02 0.  0.
         24    2    4    4    0    0  0.15192152637E+03  0.45870279242E+03 -0.94007612395E+02  0.49806070744E+03  0.75753779824E+02 0.  0.
         11    1    3    3    0    0 -0.73628267988E+02 -0.12005998717E+03  0.76908984230E+02  0.16046966760E+03  0.00000000000E+00 0.  1.
        -11    1    3    3    0    0 -0.44050351263E+02 -0.54994243321E+02  0.13238872120E+03  0.14997190986E+03  0.00000000000E+00 0. -1.
          2    1    6    6  502    0  0.41164450939E+02  0.11678103263E+03  0.90795675668E+01  0.12415619256E+03  0.00000000000E+00 0. -1.
          3    1    5    5  503    0  0.39141681397E+01 -0.15720650427E+03  0.14665859587E+03  0.21503011287E+03  0.00000000000E+00 0. -1.
         -4    1    5    5    0  503 -0.38157075262E+02 -0.12644205766E+03  0.21956480198E+03  0.25622696697E+03  0.00000000000E+00 0.  1.
         -1    1    6    6    0  502  0.11075707543E+03  0.34192175979E+03 -0.10308717996E+03  0.37390451488E+03  0.00000000000E+00 0.  1.
<mgrwt>
<rscale>  0 0.11857187E+04</rscale>
<asrwt>0</asrwt>
<pdfrwt beam="1">  1        1 0.13548253E+00 0.11857187E+04</pdfrwt>
<pdfrwt beam="2">  1       -1 0.61403529E-01 0.11857187E+04</pdfrwt>
<totfact> 0.50317267E+01</totfact>
</mgrwt>
</event>
<event>
12    1  0.1536832E-007  0.1700263E+04  0.7818608E-02  0.8761214E-01
         -1   -1    0    0    0  501 -0.00000000000E+00  0.00000000000E+00  0.35149975002E+03  0.35149975002E+03  0.00000000000E+00 0.  1.
          1   -1    0    0  501    0  0.00000000000E+00 -0.00000000000E+00 -0.20561144799E+04  0.20561144799E+04  0.00000000000E+00 0. -1.
         23    2    1    2    0    0  0.25543427838E+03  0.18733932339E+03 -0.13105813988E+04  0.13515906611E+04  0.93973503716E+02 0.  0.
        254    2    1    2    0    0 -0.25543427838E+03 -0.18733932339E+03 -0.39403333105E+03  0.10560235689E+04  0.92713581497E+03 0.  0.
        -24    2    4    4    0    0 -0.45140490370E+03 -0.43141511624E+03 -0.14254330015E+03  0.64549759479E+03  0.80393798604E+02 0.  0.
         24    2    4    4    0    0  0.19597062532E+03  0.24407579285E+03 -0.25149003090E+03  0.41052597410E+03  0.85480179721E+02 0.  0.
         11    1    3    3    0    0  0.19417318194E+03  0.15761923628E+03 -0.11549264157E+04  0.11816945772E+04  0.00000000000E+00 0. -1.
        -11    1    3    3    0    0  0.61261096439E+02  0.29720087106E+02 -0.15565498318E+03  0.16989608384E+03  0.00000000000E+00 0.  1.
          2    1    6    6  502    0  0.14381507742E+03  0.20518674186E+03 -0.15661339707E+03  0.29548626308E+03  0.00000000000E+00 0. -1.
          3    1    5    5  503    0 -0.35937461253E+03 -0.30083564197E+03 -0.89264958261E+02  0.47709582726E+03  0.00000000000E+00 0. -1.
         -4    1    5    5    0  503 -0.92030291164E+02 -0.13057947427E+03 -0.53278341891E+02  0.16840176753E+03  0.00000000000E+00 0.  1.
         -1    1    6    6    0  502  0.52155547893E+02  0.38889050987E+02 -0.94876633833E+02  0.11503971101E+03  0.00000000000E+00 0.  1.
<mgrwt>
<rscale>  0 0.17002632E+04</rscale>
<asrwt>0</asrwt>
<pdfrwt beam="1">  1        1 0.31632531E+00 0.17002632E+04</pdfrwt>
<pdfrwt beam="2">  1       -1 0.54076883E-01 0.17002632E+04</pdfrwt>
<totfact> 0.89714367E+00</totfact>
</mgrwt>
</event>
<event>
12    1  0.1536832E-007  0.2513992E+04  0.7818608E-02  0.8398018E-01
          2   -1    0    0  501    0  0.00000000000E+00  0.00000000000E+00  0.11491642140E+04  0.11491642140E+04  0.00000000000E+00 0. -1.
         -2   -1    0    0    0  501 -0.00000000000E+00 -0.00000000000E+00 -0.13749463270E+04  0.13749463270E+04  0.00000000000E+00 0.  1.
         23    2    1    2    0    0  0.10668127069E+04 -0.20732248468E+03  0.84465797754E+01  0.10906788339E+04  0.91853195794E+02 0.  0.
        254    2    1    2    0    0 -0.10668127069E+04  0.20732248468E+03 -0.23422869274E+03  0.14334317071E+04  0.90487093779E+03 0.  0.
        -24    2    4    4    0    0  0.15832529226E+02 -0.10851502454E+03 -0.26958376701E+03  0.30198886850E+03  0.80595841879E+02 0.  0.
         24    2    4    4    0    0 -0.10826452362E+04  0.31583750922E+03  0.35355074268E+02  0.11314428386E+04  0.83898010270E+02 0.  0.
         11    1    3    3    0    0  0.95834795774E+03 -0.17590320651E+03 -0.18703529319E+02  0.97453710456E+03  0.00000000000E+00 0.  1.
        -11    1    3    3    0    0  0.10846474920E+03 -0.31419278171E+02  0.27150109094E+02  0.11614172929E+03  0.00000000000E+00 0. -1.
          2    1    6    6  502    0 -0.36492724172E+03  0.94449003413E+02  0.49731878878E+02  0.38021805030E+03  0.00000000000E+00 0. -1.
          1    1    5    5  503    0 -0.20345895147E+02 -0.19022292987E+02 -0.12553565323E+03  0.12858850381E+03  0.00000000000E+00 0. -1.
         -2    1    5    5    0  503  0.36178424373E+02 -0.89492731549E+02 -0.14404811378E+03  0.17340036469E+03  0.00000000000E+00 0.  1.
         -1    1    6    6    0  502 -0.71771799444E+03  0.22138850580E+03 -0.14376804610E+02  0.75122478830E+03  0.00000000000E+00 0.  1.
<mgrwt>
<rscale>  0 0.25139921E+04</rscale>
<asrwt>0</asrwt>
<pdfrwt beam="1">  1        2 0.17679449E+00 0.25139921E+04</pdfrwt>
<pdfrwt beam="2">  1       -2 0.21153020E+00 0.25139921E+04</pdfrwt>
<totfact> 0.20268357E+00</totfact>
</mgrwt>
</event>
<event>
12    1  0.1536832E-007  0.1674384E+04  0.7818608E-02  0.8776110E-01
         -1   -1    0    0    0  501 -0.00000000000E+00  0.00000000000E+00  0.10657821442E+04  0.10657821442E+04  0.00000000000E+00 0.  1.
          1   -1    0    0  501    0  0.00000000000E+00 -0.00000000000E+00 -0.65763007540E+03  0.65763007540E+03  0.00000000000E+00 0. -1.
         23    2    1    2    0    0  0.31644476847E+03  0.24161042298E+03 -0.28791196105E+03  0.49975069286E+03  0.91348616363E+02 0.  0.
        254    2    1    2    0    0 -0.31644476847E+03 -0.24161042298E+03  0.69606402982E+03  0.12236615267E+04  0.92429947005E+03 0.  0.
        -24    2    4    4    0    0 -0.41534951536E+03 -0.47885831934E+03  0.21848141075E+03  0.67515364050E+03  0.79232578688E+02 0.  0.
         24    2    4    4    0    0  0.98904746886E+02  0.23724789635E+03  0.47758261907E+03  0.54850788621E+03  0.81896458495E+02 0.  0.
         13    1    3    3    0    0  0.28361848966E+03  0.24527854201E+03 -0.27096557337E+03  0.46262658030E+03  0.00000000000E+00 0. -1.
        -13    1    3    3    0    0  0.32826278817E+02 -0.36681190299E+01 -0.16946387681E+02  0.37124112564E+02  0.00000000000E+00 0.  1.
          4    1    6    6  502    0  0.24947305890E+02  0.70502626174E+01  0.69459965617E+02  0.74140144980E+02  0.00000000000E+00 0. -1.
          1    1    5    5  503    0  0.34416211663E+01 -0.70593937026E+01  0.13062075708E+01  0.79615308778E+01  0.00000000000E+00 0. -1.
         -2    1    5    5    0  503 -0.41879113653E+03 -0.47179892563E+03  0.21717520318E+03  0.66719210962E+03  0.00000000000E+00 0.  1.
         -3    1    6    6    0  502  0.73957440997E+02  0.23019763374E+03  0.40812265345E+03  0.47436774123E+03  0.00000000000E+00 0.  1.
<mgrwt>
<rscale>  0 0.16743839E+04</rscale>
<asrwt>0</asrwt>
<pdfrwt beam="1">  1        1 0.10117386E+00 0.16743839E+04</pdfrwt>
<pdfrwt beam="2">  1       -1 0.16396648E+00 0.16743839E+04</pdfrwt>
<totfact> 0.77867944E+00</totfact>
</mgrwt>
</event>
<event>
12    1  0.1536832E-007  0.2975508E+04  0.7818608E-02  0.8250760E-01
          2   -1    0    0  501    0  0.00000000000E+00  0.00000000000E+00  0.97440425487E+03  0.97440425487E+03  0.00000000000E+00 0. -1.
         -2   -1    0    0    0  501 -0.00000000000E+00 -0.00000000000E+00 -0.22715535243E+04  0.22715535243E+04  0.00000000000E+00 0.  1.
         23    2    1    2    0    0  0.31704669164E+03  0.10696070207E+04  0.24084034125E+03  0.11450657157E+04  0.92701887359E+02 0.  0.
        254    2    1    2    0    0 -0.31704669164E+03 -0.10696070207E+04 -0.15379896106E+04  0.21008920634E+04  0.89652531265E+03 0.  0.
        -24    2    4    4    0    0 -0.33971108742E+03 -0.84528597366E+03 -0.16087623531E+04  0.18505058742E+04  0.79647232647E+02 0.  0.
         24    2    4    4    0    0  0.22664395788E+02 -0.22432104706E+03  0.70772742422E+02  0.25038618920E+03  0.82769895997E+02 0.  0.
         11    1    3    3    0    0  0.12983006203E+03  0.48139153606E+03  0.15311787448E+03  0.52157333088E+03  0.00000000000E+00 0.  1.
        -11    1    3    3    0    0  0.18721662961E+03  0.58821548465E+03  0.87722466765E+02  0.62349238485E+03  0.00000000000E+00 0. -1.
          4    1    6    6  502    0 -0.31568084905E+02 -0.84538243391E+02  0.26984256118E+02  0.94188155617E+02  0.00000000000E+00 0. -1.
          3    1    5    5  503    0 -0.99356339723E+02 -0.21666060146E+03 -0.49039010704E+03  0.54524852641E+03  0.00000000000E+00 0. -1.
         -4    1    5    5    0  503 -0.24035474770E+03 -0.62862537220E+03 -0.11183722460E+04  0.13052573478E+04  0.00000000000E+00 0.  1.
         -3    1    6    6    0  502  0.54232480692E+02 -0.13978280367E+03  0.43788486304E+02  0.15619803358E+03  0.00000000000E+00 0.  1.
<mgrwt>
<rscale>  0 0.29755076E+04</rscale>
<asrwt>0</asrwt>
<pdfrwt beam="1">  1        2 0.14990835E+00 0.29755076E+04</pdfrwt>
<pdfrwt beam="2">  1       -2 0.34946978E+00 0.29755076E+04</pdfrwt>
<totfact> 0.35182720E-01</totfact>
</mgrwt>
</event>
<event>
12    1  0.1536832E-007  0.2437991E+04  0.7818608E-02  0.8425416E-01
         -2   -1    0    0    0  501 -0.00000000000E+00  0.00000000000E+00  0.11143580416E+04  0.11143580416E+04  0.00000000000E+00 0.  1.
          2   -1    0    0  501    0  0.00000000000E+00 -0.00000000000E+00 -0.13334588504E+04  0.13334588504E+04  0.00000000000E+00 0. -1.
         23    2    1    2    0    0  0.10459939897E+04  0.13539956755E+02 -0.18702609719E+03  0.10666629140E+04  0.92218513589E+02 0.  0.
        254    2    1    2    0    0 -0.10459939897E+04 -0.13539956755E+02 -0.32074711614E+02  0.13811539780E+04  0.90126065423E+03 0.  0.
        -24    2    4    4    0    0 -0.11358230911E+04 -0.17325415091E+03 -0.12924587256E+03  0.11588862398E+04  0.78751039021E+02 0.  0.
         24    2    4    4    0    0  0.89829101413E+02  0.15971419416E+03  0.97171160948E+02  0.22226773817E+03  0.79892563080E+02 0.  0.
         11    1    3    3    0    0  0.87671789684E+03 -0.69534408056E+01 -0.18544692275E+03  0.89614350533E+03  0.00000000000E+00 0. -1.
        -11    1    3    3    0    0  0.16927609284E+03  0.20493397560E+02 -0.15791744329E+01  0.17051940870E+03  0.00000000000E+00 0.  1.
          2    1    6    6  502    0  0.80373596771E+01  0.10395797075E+02 -0.13789822156E+02  0.19048121758E+02  0.00000000000E+00 0. -1.
          1    1    5    5  503    0 -0.41576757868E+03 -0.30352270566E+02 -0.27639863502E+02  0.41778930319E+03  0.00000000000E+00 0. -1.
         -2    1    5    5    0  503 -0.72005551242E+03 -0.14290188035E+03 -0.10160600906E+03  0.74109693661E+03  0.00000000000E+00 0.  1.
         -1    1    6    6    0  502  0.81791741736E+02  0.14931839708E+03  0.11096098310E+03  0.20321961641E+03  0.00000000000E+00 0.  1.
<mgrwt>
<rscale>  0 0.24379915E+04</rscale>
<asrwt>0</asrwt>
<pdfrwt beam="1">  1        2 0.20514751E+00 0.24379915E+04</pdfrwt>
<pdfrwt beam="2">  1       -2 0.17143970E+00 0.24379915E+04</pdfrwt>
<totfact> 0.29500387E+00</totfact>
</mgrwt>
</event>
<event>
12    1  0.1536832E-007  0.1538853E+04  0.7818608E-02  0.8859020E-01
          1   -1    0    0  501    0  0.00000000000E+00  0.00000000000E+00  0.19059730403E+04  0.19059730403E+04  0.00000000000E+00 0. -1.
         -1   -1    0    0    0  501 -0.00000000000E+00 -0.00000000000E+00 -0.31061132140E+03  0.31061132140E+03  0.00000000000E+00 0.  1.
         23    2    1    2    0    0  0.34352727616E+03 -0.13224545492E+03  0.40759942581E+02  0.38110435588E+03  0.89884967277E+02 0.  0.
        254    2    1    2    0    0 -0.34352727616E+03  0.13224545492E+03  0.15546017763E+04  0.18354800058E+04  0.90371473317E+03 0.  0.
        -24    2    4    4    0    0 -0.44889742771E+03  0.27755251880E+03  0.40728611700E+03  0.67147342256E+03  0.80313602815E+02 0.  0.
         24    2    4    4    0    0  0.10537015155E+03 -0.14530706388E+03  0.11473156593E+04  0.11640065832E+04  0.79756454888E+02 0.  0.
         11    1    3    3    0    0  0.60305406936E+02 -0.73695468033E-01  0.32377821250E+02  0.68447577354E+02  0.00000000000E+00 0. -1.
        -11    1    3    3    0    0  0.28322186922E+03 -0.13217175945E+03  0.83821213317E+01  0.31265677853E+03  0.00000000000E+00 0.  1.
          4    1    6    6  502    0 -0.59245214584E+01 -0.37050191975E+02  0.32529262004E+03  0.32744939355E+03  0.00000000000E+00 0. -1.
          3    1    5    5  503    0 -0.93021701647E+02  0.95095291589E+02  0.11887358745E+03  0.17840146090E+03  0.00000000000E+00 0. -1.
         -4    1    5    5    0  503 -0.35587572606E+03  0.18245722721E+03  0.28841252956E+03  0.49307196165E+03  0.00000000000E+00 0.  1.
         -3    1    6    6    0  502  0.11129467301E+03 -0.10825687190E+03  0.82202303922E+03  0.83655718966E+03  0.00000000000E+00 0.  1.
<mgrwt>
<rscale>  0 0.15388526E+04</rscale>
<asrwt>0</asrwt>
<pdfrwt beam="1">  1        1 0.29322661E+00 0.15388526E+04</pdfrwt>
<pdfrwt beam="2">  1       -1 0.47786358E-01 0.15388526E+04</pdfrwt>
<totfact> 0.14564851E+01</totfact>
</mgrwt>
</event>
<event>
12    1  0.1536832E-007  0.1266206E+04  0.7818608E-02  0.9056802E-01
         -2   -1    0    0    0  501 -0.00000000000E+00  0.00000000000E+00  0.49983489766E+03  0.49983489766E+03  0.00000000000E+00 0.  1.
          2   -1    0    0  501    0  0.00000000000E+00 -0.00000000000E+00 -0.80190333485E+03  0.80190333485E+03  0.00000000000E+00 0. -1.
         23    2    1    2    0    0  0.25924705263E+03 -0.61328366147E+02 -0.22794789973E+03  0.36214917662E+03  0.90672919578E+02 0.  0.
        254    2    1    2    0    0 -0.25924705263E+03  0.61328366147E+02 -0.74120537468E+02  0.93958905589E+03  0.89797747025E+03 0.  0.
        -24    2    4    4    0    0  0.27984133696E+03  0.10408007244E+03  0.15619452133E+03  0.34635795041E+03  0.80145280392E+02 0.  0.
         24    2    4    4    0    0 -0.53908838959E+03 -0.42751706293E+02 -0.23031505880E+03  0.59323110548E+03  0.80212954219E+02 0.  0.
         13    1    3    3    0    0  0.98306276250E+02  0.19847426029E+01 -0.13128061080E+03  0.16402030949E+03  0.00000000000E+00 0.  1.
        -13    1    3    3    0    0  0.16094077638E+03 -0.63313108750E+02 -0.96667288927E+02  0.19812886713E+03  0.00000000000E+00 0. -1.
          4    1    6    6  502    0 -0.22973436124E+03 -0.57983333477E+02 -0.10290502636E+03  0.25832032081E+03  0.00000000000E+00 0. -1.
          3    1    5    5  503    0  0.40954176591E+02  0.47733171086E+02  0.42163269431E+02  0.75719492149E+02  0.00000000000E+00 0. -1.
         -4    1    5    5    0  503  0.23888716036E+03  0.56346901354E+02  0.11403125190E+03  0.27063845826E+03  0.00000000000E+00 0.  1.
         -3    1    6    6    0  502 -0.30935402835E+03  0.15231627185E+02 -0.12741003244E+03  0.33491078467E+03  0.00000000000E+00 0.  1.
<mgrwt>
<rscale>  0 0.12662058E+04</rscale>
<asrwt>0</asrwt>
<pdfrwt beam="1">  1        2 0.12336974E+00 0.12662058E+04</pdfrwt>
<pdfrwt beam="2">  1       -2 0.76897677E-01 0.12662058E+04</pdfrwt>
<totfact> 0.50974843E+01</totfact>
</mgrwt>
</event>
<event>
12    1  0.1536832E-007  0.1701275E+04  0.7818608E-02  0.8760638E-01
         -2   -1    0    0    0  501 -0.00000000000E+00  0.00000000000E+00  0.27128451095E+03  0.27128451095E+03  0.00000000000E+00 0.  1.
          2   -1    0    0  501    0  0.00000000000E+00 -0.00000000000E+00 -0.26672504739E+04  0.26672504739E+04  0.00000000000E+00 0. -1.
         23    2    1    2    0    0 -0.49198590812E+03  0.74742698443E+02 -0.26182933038E+03  0.56918441856E+03  0.88202603858E+02 0.  0.
        254    2    1    2    0    0  0.49198590812E+03 -0.74742698443E+02 -0.21341366326E+04  0.23693505663E+04  0.90091416611E+03 0.  0.
        -24    2    4    4    0    0  0.70439719835E+03 -0.13725652721E+02 -0.19326287987E+04  0.20587303732E+04  0.83383867797E+02 0.  0.
         24    2    4    4    0    0 -0.21241129023E+03 -0.61017045722E+02 -0.20150783385E+03  0.31062019306E+03  0.83891961162E+02 0.  0.
         13    1    3    3    0    0 -0.15105548965E+03 -0.95470422395E+01 -0.51791335878E+02  0.15997265217E+03  0.00000000000E+00 0.  1.
        -13    1    3    3    0    0 -0.34093041846E+03  0.84289740683E+02 -0.21003799450E+03  0.40921176639E+03  0.00000000000E+00 0. -1.
          4    1    6    6  502    0 -0.18834019491E+03 -0.53875699939E+02 -0.13070207374E+03  0.23549448431E+03  0.00000000000E+00 0. -1.
          1    1    5    5  503    0  0.62410719196E+03 -0.27323172416E+02 -0.17667059325E+04  0.18739013301E+04  0.00000000000E+00 0. -1.
         -2    1    5    5    0  503  0.80290006386E+02  0.13597519695E+02 -0.16592286617E+03  0.18482904313E+03  0.00000000000E+00 0.  1.
         -3    1    6    6    0  502 -0.24071095318E+02 -0.71413457834E+01 -0.70805760112E+02  0.75125708745E+02  0.00000000000E+00 0.  1.
<mgrwt>
<rscale>  0 0.17012745E+04</rscale>
<asrwt>0</asrwt>
<pdfrwt beam="1">  1        2 0.41034623E+00 0.17012745E+04</pdfrwt>
<pdfrwt beam="2">  1       -2 0.41736079E-01 0.17012745E+04</pdfrwt>
<totfact> 0.14410860E+01</totfact>
</mgrwt>
</event>
<event>
12    1  0.1536832E-007  0.2009213E+04  0.7818608E-02  0.8602325E-01
         -1   -1    0    0    0  501 -0.00000000000E+00  0.00000000000E+00  0.11564553048E+04  0.11564553048E+04  0.00000000000E+00 0.  1.
          1   -1    0    0  501    0  0.00000000000E+00 -0.00000000000E+00 -0.87269623765E+03  0.87269623765E+03  0.00000000000E+00 0. -1.
         23    2    1    2    0    0  0.20307728753E+03  0.74943399169E+03  0.29896810099E+03  0.83641129443E+03  0.85499914808E+02 0.  0.
        254    2    1    2    0    0 -0.20307728753E+03 -0.74943399169E+03 -0.15209033799E+02  0.11927402481E+04  0.90526586814E+03 0.  0.
        -24    2    4    4    0    0  0.29108453647E+03 -0.55666369018E+03 -0.12567158154E+03  0.64518389404E+03  0.76578321934E+02 0.  0.
         24    2    4    4    0    0 -0.49416182400E+03 -0.19277030150E+03  0.11046254775E+03  0.54755635401E+03  0.79118195938E+02 0.  0.
         11    1    3    3    0    0  0.10942322152E+03  0.33065499387E+03  0.93432289799E+02  0.36060471317E+03  0.00000000000E+00 0. -1.
        -11    1    3    3    0    0  0.93654066013E+02  0.41877899781E+03  0.20553581119E+03  0.47580658126E+03  0.00000000000E+00 0.  1.
          4    1    6    6  502    0 -0.40386699807E+01  0.45930322458E+01 -0.34871342084E+01  0.70403767947E+01  0.00000000000E+00 0. -1.
          3    1    5    5  503    0  0.40899801780E+02 -0.10207693779E+03  0.50648970653E+01  0.11008246090E+03  0.00000000000E+00 0. -1.
         -4    1    5    5    0  503  0.25018473469E+03 -0.45458675239E+03 -0.13073647861E+03  0.53510143315E+03  0.00000000000E+00 0.  1.
         -3    1    6    6    0  502 -0.49012315402E+03 -0.19736333375E+03  0.11394968195E+03  0.54051597722E+03  0.00000000000E+00 0.  1.
<mgrwt>
<rscale>  0 0.20092130E+04</rscale>
<asrwt>0</asrwt>
<pdfrwt beam="1">  1        1 0.13426096E+00 0.20092130E+04</pdfrwt>
<pdfrwt beam="2">  1       -1 0.17791620E+00 0.20092130E+04</pdfrwt>
<totfact> 0.38275992E+00</totfact>
</mgrwt>
</event>
<event>
12    1  0.1536832E-007  0.1030231E+04  0.7818608E-02  0.9275996E-01
         -2   -1    0    0    0  501 -0.00000000000E+00  0.00000000000E+00  0.30471696329E+03  0.30471696329E+03  0.00000000000E+00 0.  1.
          2   -1    0    0  501    0  0.00000000000E+00 -0.00000000000E+00 -0.87078805525E+03  0.87078805525E+03  0.00000000000E+00 0. -1.
         23    2    1    2    0    0  0.39282749508E+02 -0.22827066002E+02 -0.17195806699E+03  0.20010812522E+03  0.91703193097E+02 0.  0.
        254    2    1    2    0    0 -0.39282749508E+02  0.22827066002E+02 -0.39411302496E+03  0.97539689331E+03  0.89107228309E+03 0.  0.
        -24    2    4    4    0    0 -0.19793763793E+03 -0.13813076008E+03  0.20730760646E+03  0.32802496950E+03  0.79777951417E+02 0.  0.
         24    2    4    4    0    0  0.15865488842E+03  0.16095782608E+03 -0.60142063142E+03  0.64737192381E+03  0.79403000222E+02 0.  0.
         11    1    3    3    0    0 -0.14284133832E+02 -0.19024603824E+02 -0.44504865360E+01  0.24202868847E+02  0.00000000000E+00 0.  1.
        -11    1    3    3    0    0  0.53566883341E+02 -0.38024621781E+01 -0.16750758046E+03  0.17590525638E+03  0.00000000000E+00 0. -1.
          4    1    6    6  502    0  0.10022615074E+03  0.60695967680E+02 -0.22815762673E+03  0.25648622657E+03  0.00000000000E+00 0. -1.
          3    1    5    5  503    0 -0.60816384412E+02 -0.24652404069E+02  0.17704301173E+02  0.67969227739E+02  0.00000000000E+00 0. -1.
         -4    1    5    5    0  503 -0.13712125352E+03 -0.11347835601E+03  0.18960330529E+03  0.26005574176E+03  0.00000000000E+00 0.  1.
         -3    1    6    6    0  502  0.58428737676E+02  0.10026185840E+03 -0.37326300469E+03  0.39088569724E+03  0.00000000000E+00 0.  1.
<mgrwt>
<rscale>  0 0.10302308E+04</rscale>
<asrwt>0</asrwt>
<pdfrwt beam="1">  1        2 0.13396739E+00 0.10302308E+04</pdfrwt>
<pdfrwt beam="2">  1       -2 0.46879533E-01 0.10302308E+04</pdfrwt>
<totfact> 0.13196417E+02</totfact>
</mgrwt>
</event>
<event>
12    1  0.1536832E-007  0.1415410E+04  0.7818608E-02  0.8942739E-01
         -2   -1    0    0    0  501 -0.00000000000E+00  0.00000000000E+00  0.49399730985E+03  0.49399730985E+03  0.00000000000E+00 0.  1.
          2   -1    0    0  501    0  0.00000000000E+00 -0.00000000000E+00 -0.10138650448E+04  0.10138650448E+04  0.00000000000E+00 0. -1.
         23    2    1    2    0    0 -0.29463763407E+03  0.27751082257E+03 -0.37677199006E+02  0.41583600859E+03  0.87615196502E+02 0.  0.
        254    2    1    2    0    0  0.29463763407E+03 -0.27751082257E+03 -0.48219053593E+03  0.10920263460E+04  0.89229492627E+03 0.  0.
        -24    2    4    4    0    0 -0.18320835187E+02  0.28007434261E+02 -0.62066404545E+03  0.62616746541E+03  0.75774455171E+02 0.  0.
         24    2    4    4    0    0  0.31295846926E+03 -0.30551825683E+03  0.13847350952E+03  0.46585888063E+03  0.81025768003E+02 0.  0.
         13    1    3    3    0    0 -0.23980406265E+02  0.12306857439E+02 -0.24892047370E+02  0.36689680388E+02  0.00000000000E+00 0. -1.
        -13    1    3    3    0    0 -0.27065722781E+03  0.26520396513E+03 -0.12785151636E+02  0.37914632820E+03  0.00000000000E+00 0.  1.
          4    1    6    6  502    0  0.20842629811E+03 -0.20153018255E+03  0.50875217563E+02  0.29435390941E+03  0.00000000000E+00 0. -1.
          3    1    5    5  503    0  0.49284389696E+01  0.47324825904E+02 -0.47643193419E+03  0.47880195966E+03  0.00000000000E+00 0. -1.
         -4    1    5    5    0  503 -0.23249274157E+02 -0.19317391643E+02 -0.14423211125E+03  0.14736550575E+03  0.00000000000E+00 0.  1.
         -3    1    6    6    0  502  0.10453217115E+03 -0.10398807428E+03  0.87598291956E+02  0.17150497121E+03  0.00000000000E+00 0.  1.
<mgrwt>
<rscale>  0 0.14154103E+04</rscale>
<asrwt>0</asrwt>
<pdfrwt beam="1">  1        2 0.15597924E+00 0.14154103E+04</pdfrwt>
<pdfrwt beam="2">  1       -2 0.75999586E-01 0.14154103E+04</pdfrwt>
<totfact> 0.37209272E+01</totfact>
</mgrwt>
</event>
<event>
12    1  0.1536832E-007  0.1325533E+04  0.7818608E-02  0.9009559E-01
         -3   -1    0    0    0  501 -0.00000000000E+00  0.00000000000E+00  0.70174286557E+03  0.70174286557E+03  0.00000000000E+00 0.  1.
          3   -1    0    0  501    0  0.00000000000E+00 -0.00000000000E+00 -0.62595466647E+03  0.62595466647E+03  0.00000000000E+00 0. -1.
         23    2    1    2    0    0  0.10703774160E+03  0.78693856167E+02 -0.33491986620E+03  0.37152250457E+03  0.90597204716E+02 0.  0.
        254    2    1    2    0    0 -0.10703774160E+03 -0.78693856167E+02  0.41070806531E+03  0.95617502746E+03  0.85319386256E+03 0.  0.
        -24    2    4    4    0    0 -0.40765094849E+03 -0.64252274640E+02  0.47940492852E+03  0.63754871501E+03  0.79571527108E+02 0.  0.
         24    2    4    4    0    0  0.30061320689E+03 -0.14441581526E+02 -0.68696863203E+02  0.31862631245E+03  0.78908862238E+02 0.  0.
         13    1    3    3    0    0  0.15288308289E+02  0.33665678027E+02 -0.23620768972E+02  0.43875402838E+02  0.00000000000E+00 0.  1.
        -13    1    3    3    0    0  0.91749433308E+02  0.45028178140E+02 -0.31129909723E+03  0.32764710174E+03  0.00000000000E+00 0. -1.
          4    1    6    6  502    0  0.17696139832E+03  0.29556092719E+02 -0.48339733256E+02  0.18581073415E+03  0.00000000000E+00 0. -1.
          3    1    5    5  503    0 -0.23818688266E+03 -0.68170988600E+02  0.32151457814E+03  0.40589641378E+03  0.00000000000E+00 0. -1.
         -4    1    5    5    0  503 -0.16946406583E+03  0.39187139593E+01  0.15789035037E+03  0.23165230123E+03  0.00000000000E+00 0.  1.
         -3    1    6    6    0  502  0.12365180857E+03 -0.43997674245E+02 -0.20357129948E+02  0.13281557831E+03  0.00000000000E+00 0.  1.
<mgrwt>
<rscale>  0 0.13255327E+04</rscale>
<asrwt>0</asrwt>
<pdfrwt beam="1">  1        3 0.96300718E-01 0.13255327E+04</pdfrwt>
<pdfrwt beam="2">  1       -3 0.10796044E+00 0.13255327E+04</pdfrwt>
<totfact> 0.17855820E+00</totfact>
</mgrwt>
</event>
<event>
12    1  0.1536832E-007  0.1872744E+04  0.7818608E-02  0.8668544E-01
         -2   -1    0    0    0  501 -0.00000000000E+00  0.00000000000E+00  0.39740331622E+03  0.39740331622E+03  0.00000000000E+00 0.  1.
          2   -1    0    0  501    0  0.00000000000E+00 -0.00000000000E+00 -0.22063038521E+04  0.22063038521E+04  0.00000000000E+00 0. -1.
         23    2    1    2    0    0  0.28412793817E+02 -0.24656350746E+03 -0.16208525382E+04  0.16422544197E+04  0.90751189076E+02 0.  0.
        254    2    1    2    0    0 -0.28412793817E+02  0.24656350746E+03 -0.18804799775E+03  0.96145274870E+03  0.90963096279E+03 0.  0.
        -24    2    4    4    0    0 -0.40327492829E+03  0.31334372719E+03 -0.23763610547E+03  0.56888672433E+03  0.79663211971E+02 0.  0.
         24    2    4    4    0    0  0.37486213447E+03 -0.66780219729E+02  0.49588107724E+02  0.39256602437E+03  0.81657121263E+02 0.  0.
         11    1    3    3    0    0  0.48940503406E+02 -0.73300661736E+02 -0.46060939477E+03  0.46896606960E+03  0.00000000000E+00 0.  1.
        -11    1    3    3    0    0 -0.20527709589E+02 -0.17326284572E+03 -0.11602431434E+04  0.11732883501E+04  0.00000000000E+00 0. -1.
          2    1    6    6  502    0  0.25754812315E+03 -0.27992217251E+02  0.67500767225E+02  0.26771431329E+03  0.00000000000E+00 0. -1.
          1    1    5    5  503    0 -0.40231281585E+03  0.30030448375E+03 -0.23845384092E+03  0.55578648689E+03  0.00000000000E+00 0. -1.
         -2    1    5    5    0  503 -0.96211243314E+00  0.13039243438E+02  0.81773544212E+00  0.13100237441E+02  0.00000000000E+00 0.  1.
         -1    1    6    6    0  502  0.11731401132E+03 -0.38788002478E+02 -0.17912659501E+02  0.12485171107E+03  0.00000000000E+00 0.  1.
<mgrwt>
<rscale>  0 0.18727439E+04</rscale>
<asrwt>0</asrwt>
<pdfrwt beam="1">  1        2 0.33943136E+00 0.18727439E+04</pdfrwt>
<pdfrwt beam="2">  1       -2 0.61138973E-01 0.18727439E+04</pdfrwt>
<totfact> 0.11965976E+01</totfact>
</mgrwt>
</event>
<event>
12    1  0.1536832E-007  0.1299278E+04  0.7818608E-02  0.9030138E-01
          1   -1    0    0  501    0  0.00000000000E+00  0.00000000000E+00  0.17034729296E+04  0.17034729296E+04  0.00000000000E+00 0. -1.
         -1   -1    0    0    0  501 -0.00000000000E+00 -0.00000000000E+00 -0.24774714581E+03  0.24774714581E+03  0.00000000000E+00 0.  1.
         23    2    1    2    0    0 -0.86746307012E+02 -0.69845137094E+02 -0.83265403151E+02  0.16543088003E+03  0.89615756138E+02 0.  0.
        254    2    1    2    0    0  0.86746307012E+02  0.69845137094E+02  0.15389911869E+04  0.17857891954E+04  0.89896936094E+03 0.  0.
        -24    2    4    4    0    0 -0.34123549978E+03  0.10159987593E+03  0.30002383334E+03  0.47213373281E+03  0.78305555280E+02 0.  0.
         24    2    4    4    0    0  0.42798180679E+03 -0.31754738839E+02  0.12389673536E+04  0.13136554625E+04  0.80459807717E+02 0.  0.
         11    1    3    3    0    0  0.12045634882E+02 -0.14015836099E+02 -0.39861871153E+02  0.43937566536E+02  0.00000000000E+00 0. -1.
        -11    1    3    3    0    0 -0.98791941894E+02 -0.55829300996E+02 -0.43403531998E+02  0.12149331349E+03  0.00000000000E+00 0.  1.
          2    1    6    6  502    0  0.39521677917E+03 -0.37854862049E+02  0.10666319320E+04  0.11381269575E+04  0.00000000000E+00 0. -1.
          1    1    5    5  503    0 -0.31359035811E+03  0.94552424442E+02  0.29915566279E+03  0.44359123554E+03  0.00000000000E+00 0. -1.
         -2    1    5    5    0  503 -0.27645141673E+02  0.70474514913E+01  0.86817054948E+00  0.28542497276E+02  0.00000000000E+00 0.  1.
         -3    1    6    6    0  502  0.32765027621E+02  0.61001232102E+01  0.17233542159E+03  0.17552850502E+03  0.00000000000E+00 0.  1.
<mgrwt>
<rscale>  0 0.12992776E+04</rscale>
<asrwt>0</asrwt>
<pdfrwt beam="1">  1        1 0.26207275E+00 0.12992776E+04</pdfrwt>
<pdfrwt beam="2">  1       -1 0.38114947E-01 0.12992776E+04</pdfrwt>
<totfact> 0.30988111E+01</totfact>
</mgrwt>
</event>
<event>
12    1  0.1536832E-007  0.1729217E+04  0.7818608E-02  0.8744874E-01
         -1   -1    0    0    0  501 -0.00000000000E+00  0.00000000000E+00  0.29591276103E+03  0.29591276103E+03  0.00000000000E+00 0.  1.
          1   -1    0    0  501    0  0.00000000000E+00 -0.00000000000E+00 -0.25262438912E+04  0.25262438912E+04  0.00000000000E+00 0. -1.
         23    2    1    2    0    0  0.77906052194E+02 -0.16045774265E+03 -0.17893450082E+04  0.18004115100E+04  0.88938217666E+02 0.  0.
        254    2    1    2    0    0 -0.77906052194E+02  0.16045774265E+03 -0.44098612192E+03  0.10217451423E+04  0.90425568057E+03 0.  0.
        -24    2    4    4    0    0 -0.28226288496E+03 -0.17990912707E+03  0.88119218106E+02  0.35521433166E+03  0.79828532437E+02 0.  0.
         24    2    4    4    0    0  0.20435683277E+03  0.34036686971E+03 -0.52910534003E+03  0.66653081059E+03  0.81850714852E+02 0.  0.
         13    1    3    3    0    0  0.17627182524E+02  0.71891579857E+01 -0.10912991077E+03  0.11077788128E+03  0.00000000000E+00 0.  1.
        -13    1    3    3    0    0  0.60278869669E+02 -0.16764690063E+03 -0.16802150975E+04  0.16896336287E+04  0.00000000000E+00 0. -1.
          4    1    6    6  502    0  0.17100748525E+03  0.27901317788E+03 -0.37738375787E+03  0.49951017421E+03  0.00000000000E+00 0. -1.
          3    1    5    5  503    0 -0.25853037768E+03 -0.18451458359E+03  0.92118663041E+02  0.33071050153E+03  0.00000000000E+00 0. -1.
         -4    1    5    5    0  503 -0.23732507279E+02  0.46054565199E+01 -0.39994449350E+01  0.24503830135E+02  0.00000000000E+00 0.  1.
         -3    1    6    6    0  502  0.33349347515E+02  0.61353691832E+02 -0.15172158216E+03  0.16702063637E+03  0.00000000000E+00 0.  1.
<mgrwt>
<rscale>  0 0.17292169E+04</rscale>
<asrwt>0</asrwt>
<pdfrwt beam="1">  1        1 0.38865291E+00 0.17292169E+04</pdfrwt>
<pdfrwt beam="2">  1       -1 0.45525040E-01 0.17292169E+04</pdfrwt>
<totfact> 0.59182707E+00</totfact>
</mgrwt>
</event>
<event>
12    1  0.1536832E-007  0.2027758E+04  0.7818608E-02  0.8593752E-01
          1   -1    0    0  501    0  0.00000000000E+00  0.00000000000E+00  0.79110963716E+03  0.79110963716E+03  0.00000000000E+00 0. -1.
         -1   -1    0    0    0  501 -0.00000000000E+00 -0.00000000000E+00 -0.12993785036E+04  0.12993785036E+04  0.00000000000E+00 0.  1.
         23    2    1    2    0    0 -0.34949013493E+03 -0.69399213614E+03 -0.44175044245E+03  0.89880589043E+03  0.94552291547E+02 0.  0.
        254    2    1    2    0    0  0.34949013493E+03  0.69399213614E+03 -0.66518424029E+02  0.11916822504E+04  0.90106239831E+03 0.  0.
        -24    2    4    4    0    0  0.55462456737E+02  0.16539619308E+03 -0.43738649945E+03  0.47752275591E+03  0.79303516427E+02 0.  0.
         24    2    4    4    0    0  0.29402767819E+03  0.52859594306E+03  0.37086807542E+03  0.71415949445E+03  0.81330852565E+02 0.  0.
         13    1    3    3    0    0 -0.34266269334E+03 -0.62072621691E+03 -0.40523497675E+03  0.81666036034E+03  0.00000000000E+00 0.  1.
        -13    1    3    3    0    0 -0.68274415867E+01 -0.73265919226E+02 -0.36515465694E+02  0.82145530088E+02  0.00000000000E+00 0. -1.
          2    1    6    6  502    0  0.86400350711E+02  0.11191056654E+03  0.11928615465E+03  0.18498157259E+03  0.00000000000E+00 0. -1.
          1    1    5    5  503    0 -0.55570711598E+01  0.47904923802E+01 -0.86722226591E+02  0.87032031126E+02  0.00000000000E+00 0. -1.
         -2    1    5    5    0  503  0.61019527897E+02  0.16060570070E+03 -0.35066427286E+03  0.39049072478E+03  0.00000000000E+00 0.  1.
         -1    1    6    6    0  502  0.20762732748E+03  0.41668537652E+03  0.25158192077E+03  0.52917792186E+03  0.00000000000E+00 0.  1.
<mgrwt>
<rscale>  0 0.20277582E+04</rscale>
<asrwt>0</asrwt>
<pdfrwt beam="1">  1        1 0.12170918E+00 0.20277582E+04</pdfrwt>
<pdfrwt beam="2">  1       -1 0.19990438E+00 0.20277582E+04</pdfrwt>
<totfact> 0.31396085E+00</totfact>
</mgrwt>
</event>
<event>
12    1  0.1536832E-007  0.1675115E+04  0.7818608E-02  0.8775686E-01
          2   -1    0    0  501    0  0.00000000000E+00  0.00000000000E+00  0.14843203383E+04  0.14843203383E+04  0.00000000000E+00 0. -1.
         -2   -1    0    0    0  501 -0.00000000000E+00 -0.00000000000E+00 -0.47260881121E+03  0.47260881121E+03  0.00000000000E+00 0.  1.
         23    2    1    2    0    0 -0.54341826442E+03 -0.15199516858E+03  0.15045051538E+03  0.59193605235E+03  0.96679838191E+02 0.  0.
        254    2    1    2    0    0  0.54341826442E+03  0.15199516858E+03  0.86126101175E+03  0.13649930972E+04  0.89611923520E+03 0.  0.
        -24    2    4    4    0    0 -0.18812927399E+03  0.19127940456E+03  0.42455945889E+03  0.50867726197E+03  0.80755113623E+02 0.  0.
         24    2    4    4    0    0  0.73154753841E+03 -0.39284235977E+02  0.43670155287E+03  0.85631583524E+03  0.76573567674E+02 0.  0.
         11    1    3    3    0    0 -0.26898090777E+03 -0.74555702903E+02  0.24470163044E+02  0.28019291651E+03  0.00000000000E+00 0.  1.
        -11    1    3    3    0    0 -0.27443735665E+03 -0.77439465681E+02  0.12598035234E+03  0.31174313584E+03  0.00000000000E+00 0. -1.
          2    1    6    6  502    0  0.17869697248E+03  0.23241195239E+02  0.10445462951E+03  0.20828713536E+03  0.00000000000E+00 0. -1.
          1    1    5    5  503    0 -0.37509637750E+02  0.31814602709E+02  0.14635804632E+03  0.15440148831E+03  0.00000000000E+00 0. -1.
         -2    1    5    5    0  503 -0.15061963624E+03  0.15946480185E+03  0.27820141257E+03  0.35427577367E+03  0.00000000000E+00 0.  1.
         -1    1    6    6    0  502  0.55285056592E+03 -0.62525431216E+02  0.33224692336E+03  0.64802869988E+03  0.00000000000E+00 0.  1.
<mgrwt>
<rscale>  0 0.16751154E+04</rscale>
<asrwt>0</asrwt>
<pdfrwt beam="1">  1        2 0.22835697E+00 0.16751154E+04</pdfrwt>
<pdfrwt beam="2">  1       -2 0.72709048E-01 0.16751154E+04</pdfrwt>
<totfact> 0.21123824E+01</totfact>
</mgrwt>
</event>
<event>
12    1  0.1536832E-007  0.1551339E+04  0.7818608E-02  0.8851013E-01
          1   -1    0    0  501    0  0.00000000000E+00  0.00000000000E+00  0.60269864529E+03  0.60269864529E+03  0.00000000000E+00 0. -1.
         -1   -1    0    0    0  501 -0.00000000000E+00 -0.00000000000E+00 -0.99828241801E+03  0.99828241801E+03  0.00000000000E+00 0.  1.
         23    2    1    2    0    0  0.24366443626E+03  0.43807656601E+03 -0.21258945867E+03  0.55508538400E+03  0.10789842639E+03 0.  0.
        254    2    1    2    0    0 -0.24366443626E+03 -0.43807656601E+03 -0.18299431406E+03  0.10458956793E+04  0.89951510149E+03 0.  0.
        -24    2    4    4    0    0  0.11171782651E+03 -0.47418164181E+03  0.18471066728E+03  0.52714040594E+03  0.80186500001E+02 0.  0.
         24    2    4    4    0    0 -0.35538226277E+03  0.36105075801E+02 -0.36770498134E+03  0.51875527336E+03  0.79372231565E+02 0.  0.
         11    1    3    3    0    0  0.15238085375E+03  0.23578488592E+03 -0.63819356392E+02  0.28790162776E+03  0.00000000000E+00 0. -1.
        -11    1    3    3    0    0  0.91283582506E+02  0.20229168009E+03 -0.14877010227E+03  0.26718375624E+03  0.00000000000E+00 0.  1.
          2    1    6    6  502    0 -0.21575480461E+03 -0.10818571704E+02 -0.18784174429E+03  0.28627207007E+03  0.00000000000E+00 0. -1.
          1    1    5    5  503    0  0.36479920301E+02 -0.15907313555E+03  0.22220843918E+02  0.16470826617E+03  0.00000000000E+00 0. -1.
         -2    1    5    5    0  503  0.75237906208E+02 -0.31510850625E+03  0.16248982336E+03  0.36243213977E+03  0.00000000000E+00 0.  1.
         -1    1    6    6    0  502 -0.13962745816E+03  0.46923647505E+02 -0.17986323705E+03  0.23248320328E+03  0.00000000000E+00 0.  1.
<mgrwt>
<rscale>  0 0.15513394E+04</rscale>
<asrwt>0</asrwt>
<pdfrwt beam="1">  1        1 0.92722869E-01 0.15513394E+04</pdfrwt>
<pdfrwt beam="2">  1       -1 0.15358191E+00 0.15513394E+04</pdfrwt>
<totfact> 0.10727418E+01</totfact>
</mgrwt>
</event>
<event>
12    1  0.1536832E-007  0.1275543E+04  0.7818608E-02  0.9049188E-01
         -2   -1    0    0    0  501 -0.00000000000E+00  0.00000000000E+00  0.75074495629E+03  0.75074495629E+03  0.00000000000E+00 0. -1.
          2   -1    0    0  501    0  0.00000000000E+00 -0.00000000000E+00 -0.54179879811E+03  0.54179879811E+03  0.00000000000E+00 0.  1.
         23    2    1    2    0    0  0.26806754466E+03 -0.37678919039E+02 -0.11713551433E+03  0.30808242460E+03  0.88961464617E+02 0.  0.
        254    2    1    2    0    0 -0.26806754466E+03  0.37678919039E+02  0.32608167252E+03  0.98446132980E+03  0.88856904250E+03 0.  0.
        -24    2    4    4    0    0 -0.20109136858E+03  0.27109491092E+03 -0.19925014689E+03  0.40030410823E+03  0.81317702796E+02 0.  0.
         24    2    4    4    0    0 -0.66976176077E+02 -0.23341599188E+03  0.52533181941E+03  0.58415722157E+03  0.79355564433E+02 0.  0.
         11    1    3    3    0    0  0.26451421822E+03 -0.20548577863E+02 -0.99821546131E+02  0.28346844051E+03  0.00000000000E+00 0.  1.
        -11    1    3    3    0    0  0.35533264373E+01 -0.17130341176E+02 -0.17313968203E+02  0.24613984085E+02  0.00000000000E+00 0. -1.
          4    1    6    6  502    0 -0.20021739290E+02 -0.41275481266E+01  0.29851733194E+02  0.36180556552E+02  0.00000000000E+00 0. -1.
          1    1    5    5  503    0 -0.80773559227E+02  0.10717017662E+03 -0.34412619443E+02  0.13854256748E+03  0.00000000000E+00 0. -1.
         -4    1    5    5    0  503 -0.12031780936E+03  0.16392473430E+03 -0.16483752744E+03  0.26176154075E+03  0.00000000000E+00 0.  1.
         -3    1    6    6    0  502 -0.46954436786E+02 -0.22928844375E+03  0.49548008621E+03  0.54797666502E+03  0.00000000000E+00 0.  1.
<mgrwt>
<rscale>  0 0.12755434E+04</rscale>
<asrwt>0</asrwt>
<pdfrwt beam="1">  1        2 0.83353661E-01 0.12755434E+04</pdfrwt>
<pdfrwt beam="2">  1       -2 0.11549922E+00 0.12755434E+04</pdfrwt>
<totfact> 0.32096916E+01</totfact>
</mgrwt>
</event>
<event>
12    1  0.1536832E-007  0.2344156E+04  0.7818608E-02  0.8460712E-01
         -1   -1    0    0    0  501 -0.00000000000E+00  0.00000000000E+00  0.99243741154E+03  0.99243741154E+03  0.00000000000E+00 0.  1.
          1   -1    0    0  501    0  0.00000000000E+00 -0.00000000000E+00 -0.13842351139E+04  0.13842351139E+04  0.00000000000E+00 0. -1.
         23    2    1    2    0    0 -0.34027107899E+03  0.73104669189E+03 -0.76827011650E+03  0.11177735927E+04  0.94684527329E+02 0.  0.
        254    2    1    2    0    0  0.34027107899E+03 -0.73104669189E+03  0.37647241414E+03  0.12588989328E+04  0.89043886447E+03 0.  0.
        -24    2    4    4    0    0 -0.10522765137E+03  0.15533508302E+03  0.36162401448E+02  0.20708840700E+03  0.79850124639E+02 0.  0.
         24    2    4    4    0    0  0.44549873036E+03 -0.88638177491E+03  0.34031001269E+03  0.10518105258E+04  0.79703875059E+02 0.  0.
         11    1    3    3    0    0 -0.29078397505E+03  0.53448349317E+03 -0.55531005842E+03  0.82377010483E+03  0.00000000000E+00 0.  1.
        -11    1    3    3    0    0 -0.49487103933E+02  0.19656319872E+03 -0.21296005808E+03  0.29400348788E+03  0.00000000000E+00 0. -1.
          2    1    6    6  502    0  0.22590415372E+03 -0.39134172413E+03  0.12325038339E+03  0.46837131500E+03  0.00000000000E+00 0. -1.
          1    1    5    5  503    0 -0.11087828089E+03  0.16098317042E+03  0.31983168056E+02  0.19807194999E+03  0.00000000000E+00 0. -1.
         -2    1    5    5    0  503  0.56506295196E+01 -0.56480874040E+01  0.41792333912E+01  0.90164570108E+01  0.00000000000E+00 0.  1.
         -1    1    6    6    0  502  0.21959457664E+03 -0.49504005078E+03  0.21705962930E+03  0.58343921075E+03  0.00000000000E+00 0.  1.
<mgrwt>
<rscale>  0 0.23441559E+04</rscale>
<asrwt>0</asrwt>
<pdfrwt beam="1">  1        1 0.21295925E+00 0.23441559E+04</pdfrwt>
<pdfrwt beam="2">  1       -1 0.15268268E+00 0.23441559E+04</pdfrwt>
<totfact> 0.23601630E+00</totfact>
</mgrwt>
</event>
<event>
12    1  0.1536832E-007  0.2492623E+04  0.7818608E-02  0.8405618E-01
         -1   -1    0    0    0  501 -0.00000000000E+00  0.00000000000E+00  0.55647390962E+03  0.55647390962E+03  0.00000000000E+00 0.  1.
          1   -1    0    0  501    0  0.00000000000E+00 -0.00000000000E+00 -0.27913116581E+04  0.27913116581E+04  0.00000000000E+00 0. -1.
         23    2    1    2    0    0  0.81813365162E+03  0.65103639824E+03 -0.60115942245E+03  0.12094987366E+04  0.91123427053E+02 0.  0.
        254    2    1    2    0    0 -0.81813365162E+03 -0.65103639824E+03 -0.16336783261E+04  0.21382868311E+04  0.90009701443E+03 0.  0.
        -24    2    4    4    0    0  0.50241127820E+02 -0.14316302750E+03  0.47425340199E+02  0.17755108152E+03  0.79091088545E+02 0.  0.
         24    2    4    4    0    0 -0.86837477944E+03 -0.50787337074E+03 -0.16811036663E+04  0.19607357496E+04  0.79781105534E+02 0.  0.
         13    1    3    3    0    0  0.42249295251E+03  0.37293738002E+03 -0.28288260275E+03  0.63055939551E+03  0.00000000000E+00 0. -1.
        -13    1    3    3    0    0  0.39564069911E+03  0.27809901822E+03 -0.31827681970E+03  0.57893934111E+03  0.00000000000E+00 0.  1.
          2    1    6    6  502    0 -0.65201614615E+03 -0.35930828408E+03 -0.11839697407E+04  0.13985749336E+04  0.00000000000E+00 0. -1.
          3    1    5    5  503    0  0.24165854996E+02 -0.13857408290E+03  0.53310942050E+02  0.15042879226E+03  0.00000000000E+00 0. -1.
         -4    1    5    5    0  503  0.26075272825E+02 -0.45889446045E+01 -0.58856018514E+01  0.27122289258E+02  0.00000000000E+00 0.  1.
         -1    1    6    6    0  502 -0.21635863329E+03 -0.14856508666E+03 -0.49713392552E+03  0.56216081603E+03  0.00000000000E+00 0.  1.
<mgrwt>
<rscale>  0 0.24926228E+04</rscale>
<asrwt>0</asrwt>
<pdfrwt beam="1">  1        1 0.42943256E+00 0.24926228E+04</pdfrwt>
<pdfrwt beam="2">  1       -1 0.85611371E-01 0.24926228E+04</pdfrwt>
<totfact> 0.10127764E+00</totfact>
</mgrwt>
</event>
<event>
12    1  0.1536832E-007  0.1759554E+04  0.7818608E-02  0.8728109E-01
         -1   -1    0    0    0  501 -0.00000000000E+00  0.00000000000E+00  0.73298137718E+03  0.73298137718E+03  0.00000000000E+00 0.  1.
          1   -1    0    0  501    0  0.00000000000E+00 -0.00000000000E+00 -0.10559716292E+04  0.10559716292E+04  0.00000000000E+00 0. -1.
         23    2    1    2    0    0  0.62348387638E+03 -0.55733313969E+02 -0.24607913213E+03  0.67842706417E+03  0.88712996409E+02 0.  0.
        254    2    1    2    0    0 -0.62348387638E+03  0.55733313969E+02 -0.76911119931E+02  0.11105259422E+04  0.91406465944E+03 0.  0.
        -24    2    4    4    0    0 -0.24306128090E+03  0.13263306695E+03  0.39852631483E+03  0.49140781764E+03  0.77382833383E+02 0.  0.
         24    2    4    4    0    0 -0.38042259548E+03 -0.76899752977E+02 -0.47543743476E+03  0.61911812461E+03  0.81434480937E+02 0.  0.
         13    1    3    3    0    0  0.21347872891E+03 -0.32961255385E+02 -0.12827925824E+03  0.25122734753E+03  0.00000000000E+00 0. -1.
        -13    1    3    3    0    0  0.41000514747E+03 -0.22772058584E+02 -0.11779987389E+03  0.42719971664E+03  0.00000000000E+00 0.  1.
          4    1    6    6  502    0 -0.10755536346E+03 -0.91402319914E+01 -0.82047255497E+02  0.13558558988E+03  0.00000000000E+00 0. -1.
          1    1    5    5  503    0 -0.73610347430E+02  0.12108378025E+02  0.68172250222E+02  0.10105717079E+03  0.00000000000E+00 0. -1.
         -2    1    5    5    0  503 -0.16945093347E+03  0.12052468892E+03  0.33035406461E+03  0.39035064685E+03  0.00000000000E+00 0.  1.
         -3    1    6    6    0  502 -0.27286723202E+03 -0.67759520986E+02 -0.39339017926E+03  0.48353253473E+03  0.00000000000E+00 0.  1.
<mgrwt>
<rscale>  0 0.17595540E+04</rscale>
<asrwt>0</asrwt>
<pdfrwt beam="1">  1        1 0.16245717E+00 0.17595540E+04</pdfrwt>
<pdfrwt beam="2">  1       -1 0.11276637E+00 0.17595540E+04</pdfrwt>
<totfact> 0.93297835E+00</totfact>
</mgrwt>
</event>
<event>
12    1  0.1536832E-007  0.1670706E+04  0.7818608E-02  0.8778250E-01
         -2   -1    0    0    0  501 -0.00000000000E+00  0.00000000000E+00  0.12280759614E+04  0.12280759614E+04  0.00000000000E+00 0.  1.
          2   -1    0    0  501    0  0.00000000000E+00 -0.00000000000E+00 -0.56821806867E+03  0.56821806867E+03  0.00000000000E+00 0. -1.
         23    2    1    2    0    0 -0.25888841016E+02  0.35850798330E+03 -0.26574777134E+03  0.45617460938E+03  0.90968071833E+02 0.  0.
        254    2    1    2    0    0  0.25888841016E+02 -0.35850798330E+03  0.92560566410E+03  0.13401194207E+04  0.89998667222E+03 0.  0.
        -24    2    4    4    0    0  0.36205463257E+03 -0.92578528235E+02  0.82883101087E+02  0.39132201153E+03  0.81295555924E+02 0.  0.
         24    2    4    4    0    0 -0.33616579155E+03 -0.26592945507E+03  0.84272256301E+03  0.94879740917E+03  0.79431045356E+02 0.  0.
         11    1    3    3    0    0 -0.15552307772E+02  0.12595549360E+03 -0.43028407886E+02  0.13400785250E+03  0.00000000000E+00 0.  1.
        -11    1    3    3    0    0 -0.10336533244E+02  0.23255248970E+03 -0.22271936346E+03  0.32216675689E+03  0.00000000000E+00 0. -1.
          4    1    6    6  502    0 -0.16280036861E+03 -0.17909710522E+03  0.46633468235E+03  0.52540248295E+03  0.00000000000E+00 0. -1.
          1    1    5    5  503    0  0.35132511181E+03 -0.72794754373E+02  0.70548645816E+02  0.36565765667E+03  0.00000000000E+00 0. -1.
         -2    1    5    5    0  503  0.10729520753E+02 -0.19783773862E+02  0.12334455271E+02  0.25664354865E+02  0.00000000000E+00 0.  1.
         -3    1    6    6    0  502 -0.17336542294E+03 -0.86832349844E+02  0.37638788065E+03  0.42339492623E+03  0.00000000000E+00 0.  1.
<mgrwt>
<rscale>  0 0.16707064E+04</rscale>
<asrwt>0</asrwt>
<pdfrwt beam="1">  1        2 0.87418165E-01 0.16707064E+04</pdfrwt>
<pdfrwt beam="2">  1       -2 0.18893476E+00 0.16707064E+04</pdfrwt>
<totfact> 0.79508014E+00</totfact>
</mgrwt>
</event>
<event>
12    1  0.1536832E-007  0.1940575E+04  0.7818608E-02  0.8634919E-01
          2   -1    0    0  501    0  0.00000000000E+00  0.00000000000E+00  0.17219410626E+04  0.17219410626E+04  0.00000000000E+00 0. -1.
         -2   -1    0    0    0  501 -0.00000000000E+00 -0.00000000000E+00 -0.54674198908E+03  0.54674198908E+03  0.00000000000E+00 0.  1.
         23    2    1    2    0    0 -0.24346263883E+03 -0.28144531376E+03  0.12345619759E+04  0.12925020796E+04  0.89066449008E+02 0.  0.
        254    2    1    2    0    0  0.24346263883E+03  0.28144531376E+03 -0.59362902400E+02  0.97618097204E+03  0.90051086326E+03 0.  0.
        -24    2    4    4    0    0  0.83473710925E+01 -0.68646524617E+02 -0.40846356288E+03  0.42323404767E+03  0.86617278629E+02 0.  0.
         24    2    4    4    0    0  0.23511526773E+03  0.35009183838E+03  0.34910066048E+03  0.55294692437E+03  0.77688773988E+02 0.  0.
         11    1    3    3    0    0 -0.23407865155E+03 -0.24180408245E+03  0.10193739384E+04  0.10734920846E+04  0.00000000000E+00 0. -1.
        -11    1    3    3    0    0 -0.93839872757E+01 -0.39641231307E+02  0.21518803748E+03  0.21900999501E+03  0.00000000000E+00 0.  1.
          2    1    6    6  502    0  0.15984245879E+03  0.20466712115E+03  0.25563111918E+03  0.36439746322E+03  0.00000000000E+00 0. -1.
          3    1    5    5  503    0  0.35154444257E+02 -0.50025752306E+02 -0.13968011702E+03  0.15247605037E+03  0.00000000000E+00 0. -1.
         -4    1    5    5    0  503 -0.26807073164E+02 -0.18620772311E+02 -0.26878344586E+03  0.27075799730E+03  0.00000000000E+00 0.  1.
         -1    1    6    6    0  502  0.75272808946E+02  0.14542471723E+03  0.93469541298E+02  0.18854946115E+03  0.00000000000E+00 0.  1.
<mgrwt>
<rscale>  0 0.19405746E+04</rscale>
<asrwt>0</asrwt>
<pdfrwt beam="1">  1        2 0.26491401E+00 0.19405746E+04</pdfrwt>
<pdfrwt beam="2">  1       -2 0.84114153E-01 0.19405746E+04</pdfrwt>
<totfact> 0.10983485E+01</totfact>
</mgrwt>
</event>
<event>
12    1  0.1536832E-007  0.3301593E+04  0.7818608E-02  0.8162490E-01
          2   -1    0    0  501    0  0.00000000000E+00  0.00000000000E+00  0.15918221048E+04  0.15918221048E+04  0.00000000000E+00 0. -1.
         -2   -1    0    0    0  501 -0.00000000000E+00 -0.00000000000E+00 -0.17119554817E+04  0.17119554817E+04  0.00000000000E+00 0.  1.
         23    2    1    2    0    0  0.74839963523E+02 -0.79504321779E+02 -0.15796485562E+04  0.15859898373E+04  0.90289787164E+02 0.  0.
        254    2    1    2    0    0 -0.74839963523E+02  0.79504321779E+02  0.14595151793E+04  0.17177877492E+04  0.89927094658E+03 0.  0.
        -24    2    4    4    0    0  0.42590586018E+02 -0.35453492617E+03  0.30583266581E+03  0.47707001885E+03  0.80951908682E+02 0.  0.
         24    2    4    4    0    0 -0.11743054954E+03  0.43403924794E+03  0.11536825134E+04  0.12407177303E+04  0.78848853820E+02 0.  0.
         11    1    3    3    0    0  0.70373658658E+01 -0.20897116791E+02 -0.92190236924E+03  0.92216603300E+03  0.00000000000E+00 0.  1.
        -11    1    3    3    0    0  0.67802597658E+02 -0.58607204987E+02 -0.65774618692E+03  0.66382380428E+03  0.00000000000E+00 0. -1.
          4    1    6    6  502    0 -0.67282617925E+02  0.36424483259E+03  0.94886023687E+03  0.10185956007E+04  0.00000000000E+00 0. -1.
          1    1    5    5  503    0  0.73763038740E+01 -0.29748530871E+03  0.26569529142E+03  0.39893095472E+03  0.00000000000E+00 0. -1.
         -2    1    5    5    0  503  0.35214282144E+02 -0.57049617460E+02  0.40137374387E+02  0.78139064123E+02  0.00000000000E+00 0.  1.
         -3    1    6    6    0  502 -0.50147931616E+02  0.69794415350E+02  0.20482227658E+03  0.22212212956E+03  0.00000000000E+00 0.  1.
<mgrwt>
<rscale>  0 0.33015927E+04</rscale>
<asrwt>0</asrwt>
<pdfrwt beam="1">  1        2 0.24489571E+00 0.33015927E+04</pdfrwt>
<pdfrwt beam="2">  1       -2 0.26337777E+00 0.33015927E+04</pdfrwt>
<totfact> 0.50071465E-01</totfact>
</mgrwt>
</event>
<event>
12    1  0.1536832E-007  0.1332707E+04  0.7818608E-02  0.9004023E-01
         -3   -1    0    0    0  501 -0.00000000000E+00  0.00000000000E+00  0.69874506071E+03  0.69874506071E+03  0.00000000000E+00 0.  1.
          3   -1    0    0  501    0  0.00000000000E+00 -0.00000000000E+00 -0.63546353408E+03  0.63546353408E+03  0.00000000000E+00 0. -1.
         23    2    1    2    0    0  0.18141116907E+03  0.29293135678E+03 -0.42508889119E+02  0.35938552704E+03  0.92909414732E+02 0.  0.
        254    2    1    2    0    0 -0.18141116907E+03 -0.29293135678E+03  0.10579041575E+03  0.97482306775E+03  0.90574257342E+03 0.  0.
        -24    2    4    4    0    0  0.24018347722E+03 -0.26222400763E+03  0.32851977621E+03  0.49030421433E+03  0.77610864727E+02 0.  0.
         24    2    4    4    0    0 -0.42159464629E+03 -0.30707349149E+02 -0.22272936046E+03  0.48451885342E+03  0.80406245010E+02 0.  0.
         13    1    3    3    0    0  0.13974206442E+03  0.24904964081E+03 -0.68260003641E+02  0.29362049699E+03  0.00000000000E+00 0. -1.
        -13    1    3    3    0    0  0.41669104645E+02  0.43881715971E+02  0.25751114522E+02  0.65765030051E+02  0.00000000000E+00 0.  1.
          2    1    6    6  502    0 -0.11368321780E+03  0.23274465037E+02 -0.79493514755E+02  0.14065842890E+03  0.00000000000E+00 0. -1.
          1    1    5    5  503    0  0.19391339526E+03 -0.24661601329E+03  0.29814757021E+03  0.43279768541E+03  0.00000000000E+00 0. -1.
         -2    1    5    5    0  503  0.46270081956E+02 -0.15607994346E+02  0.30372205997E+02  0.57506528924E+02  0.00000000000E+00 0.  1.
         -1    1    6    6    0  502 -0.30791142849E+03 -0.53981814186E+02 -0.14323584571E+03  0.34386042452E+03  0.00000000000E+00 0.  1.
<mgrwt>
<rscale>  0 0.13327070E+04</rscale>
<asrwt>0</asrwt>
<pdfrwt beam="1">  1        3 0.97763621E-01 0.13327070E+04</pdfrwt>
<pdfrwt beam="2">  1       -3 0.10749924E+00 0.13327070E+04</pdfrwt>
<totfact> 0.17410071E+00</totfact>
</mgrwt>
</event>
<event>
12    1  0.1536832E-007  0.1727154E+04  0.7818608E-02  0.8746027E-01
          2   -1    0    0  501    0  0.00000000000E+00  0.00000000000E+00  0.17654196744E+04  0.17654196744E+04  0.00000000000E+00 0. -1.
         -2   -1    0    0    0  501 -0.00000000000E+00 -0.00000000000E+00 -0.42242929815E+03  0.42242929815E+03  0.00000000000E+00 0.  1.
         23    2    1    2    0    0  0.28722406831E+03 -0.50654852344E+03  0.19369353139E+03  0.62214691319E+03  0.10227671035E+03 0.  0.
        254    2    1    2    0    0 -0.28722406831E+03  0.50654852344E+03  0.11492968449E+04  0.15657020593E+04  0.88963511004E+03 0.  0.
        -24    2    4    4    0    0 -0.16499381666E+03 -0.22072854292E+03  0.15900230035E+03  0.32807562896E+03  0.80048970044E+02 0.  0.
         24    2    4    4    0    0 -0.12223025164E+03  0.72727706636E+03  0.99029454451E+03  0.12376264304E+04  0.84638824622E+02 0.  0.
         13    1    3    3    0    0  0.57545948439E+02 -0.11978228394E+03  0.90090156251E+02  0.16054771248E+03  0.00000000000E+00 0. -1.
        -13    1    3    3    0    0  0.22967811987E+03 -0.38676623950E+03  0.10360337514E+03  0.46159920072E+03  0.00000000000E+00 0.  1.
          4    1    6    6  502    0 -0.10761937492E+03  0.68418914954E+03  0.89205099280E+03  0.11293589757E+04  0.00000000000E+00 0. -1.
          1    1    5    5  503    0 -0.60552497057E+02 -0.11667158173E+03  0.36582608236E+02  0.13644467783E+03  0.00000000000E+00 0. -1.
         -2    1    5    5    0  503 -0.10444131961E+03 -0.10405696118E+03  0.12241969211E+03  0.19163095113E+03  0.00000000000E+00 0.  1.
         -3    1    6    6    0  502 -0.14610876720E+02  0.43087916817E+02  0.98243551711E+02  0.10826745470E+03  0.00000000000E+00 0.  1.
<mgrwt>
<rscale>  0 0.17271537E+04</rscale>
<asrwt>0</asrwt>
<pdfrwt beam="1">  1        2 0.27160302E+00 0.17271537E+04</pdfrwt>
<pdfrwt beam="2">  1       -2 0.64989124E-01 0.17271537E+04</pdfrwt>
<totfact> 0.18700676E+01</totfact>
</mgrwt>
</event>
<event>
12    1  0.1536832E-007  0.1373458E+04  0.7818608E-02  0.8973258E-01
          2   -1    0    0  501    0  0.00000000000E+00  0.00000000000E+00  0.40270439891E+04  0.40270439891E+04  0.00000000000E+00 0.  1.
         -2   -1    0    0    0  501 -0.00000000000E+00 -0.00000000000E+00 -0.11710737341E+03  0.11710737341E+03  0.00000000000E+00 0. -1.
         23    2    1    2    0    0  0.21014757959E+03 -0.31433650100E+03  0.13681189291E+04  0.14242695817E+04  0.11757974458E+03 0.  0.
        254    2    1    2    0    0 -0.21014757959E+03  0.31433650100E+03  0.25418176866E+04  0.27198817808E+04  0.89103889266E+03 0.  0.
        -24    2    4    4    0    0  0.15539259269E+03 -0.16947775343E+03  0.25073087936E+03  0.34862913008E+03  0.76201900937E+02 0.  0.
         24    2    4    4    0    0 -0.36554017228E+03  0.48381425443E+03  0.22910868073E+04  0.23712526507E+04  0.77875057588E+02 0.  0.
         11    1    3    3    0    0  0.17470431759E+03 -0.29450664066E+03  0.13052796738E+04  0.13494483269E+04  0.00000000000E+00 0. -1.
        -11    1    3    3    0    0  0.35443261996E+02 -0.19829860340E+02  0.62839255245E+02  0.74821254880E+02  0.00000000000E+00 0.  1.
          2    1    6    6  502    0 -0.18284993931E+03  0.20076223846E+03  0.90861756047E+03  0.94832771124E+03  0.00000000000E+00 0. -1.
          3    1    5    5  503    0  0.93432202584E+02 -0.77322324559E+02  0.17973835520E+03  0.21682756902E+03  0.00000000000E+00 0. -1.
         -4    1    5    5    0  503  0.61960390108E+02 -0.92155428873E+02  0.70992524153E+02  0.13180156106E+03  0.00000000000E+00 0.  1.
         -3    1    6    6    0  502 -0.18269023296E+03  0.28305201597E+03  0.13824692468E+04  0.14229249395E+04  0.00000000000E+00 0.  1.
<mgrwt>
<rscale>  0 0.13734577E+04</rscale>
<asrwt>0</asrwt>
<pdfrwt beam="1">  1        2 0.61954512E+00 0.13734577E+04</pdfrwt>
<pdfrwt beam="2">  1       -2 0.18016522E-01 0.13734577E+04</pdfrwt>
<totfact> 0.83848808E+00</totfact>
</mgrwt>
</event>
<event>
12    1  0.1536832E-007  0.2287139E+04  0.7818608E-02  0.8483009E-01
          1   -1    0    0  501    0  0.00000000000E+00  0.00000000000E+00  0.15148879539E+04  0.15148879539E+04  0.00000000000E+00 0. -1.
         -1   -1    0    0    0  501 -0.00000000000E+00 -0.00000000000E+00 -0.86326585173E+03  0.86326585173E+03  0.00000000000E+00 0.  1.
         23    2    1    2    0    0  0.72073964734E+03 -0.53943176547E+03  0.36604973064E+03  0.97653800705E+03  0.95821735809E+02 0.  0.
        254    2    1    2    0    0 -0.72073964734E+03  0.53943176547E+03  0.28557237155E+03  0.14016157986E+04  0.10356268627E+04 0.  0.
        -24    2    4    4    0    0 -0.89249384389E+03  0.45744508662E+03  0.48257950588E+03  0.11159150038E+04  0.81129819195E+02 0.  0.
         24    2    4    4    0    0  0.17175419654E+03  0.81986678854E+02 -0.19700713433E+03  0.28570079481E+03  0.81189984847E+02 0.  0.
         13    1    3    3    0    0  0.26683203719E+03 -0.18675583468E+03  0.18133786873E+03  0.37277406091E+03  0.00000000000E+00 0.  1.
        -13    1    3    3    0    0  0.45390761016E+03 -0.35267593080E+03  0.18471186192E+03  0.60376394614E+03  0.00000000000E+00 0. -1.
          2    1    6    6  502    0  0.10220401905E+03  0.28198420784E+02 -0.56994592128E+02  0.12037107616E+03  0.00000000000E+00 0. -1.
          3    1    5    5  503    0 -0.16746180153E+03  0.56044984809E+02  0.67558913453E+02  0.18907327172E+03  0.00000000000E+00 0. -1.
         -4    1    5    5    0  503 -0.72503204236E+03  0.40140010181E+03  0.41502059243E+03  0.92684173208E+03  0.00000000000E+00 0.  1.
         -1    1    6    6    0  502  0.69550177497E+02  0.53788258070E+02 -0.14001254220E+03  0.16532971865E+03  0.00000000000E+00 0.  1.
<mgrwt>
<rscale>  0 0.22871389E+04</rscale>
<asrwt>0</asrwt>
<pdfrwt beam="1">  1        1 0.23305968E+00 0.22871389E+04</pdfrwt>
<pdfrwt beam="2">  1       -1 0.13281013E+00 0.22871389E+04</pdfrwt>
<totfact> 0.27765448E+00</totfact>
</mgrwt>
</event>
<event>
12    1  0.1536832E-007  0.1651923E+04  0.7818608E-02  0.8789270E-01
         -3   -1    0    0    0  501 -0.00000000000E+00  0.00000000000E+00  0.18853003169E+04  0.18853003169E+04  0.00000000000E+00 0.  1.
          3   -1    0    0  501    0  0.00000000000E+00 -0.00000000000E+00 -0.36185869791E+03  0.36185869791E+03  0.00000000000E+00 0. -1.
         23    2    1    2    0    0  0.53305148334E+03 -0.21104307478E+03  0.48245027989E+03  0.75530206885E+03  0.95078280110E+02 0.  0.
        254    2    1    2    0    0 -0.53305148334E+03  0.21104307478E+03  0.10409913391E+04  0.14918569459E+04  0.90182654420E+03 0.  0.
        -24    2    4    4    0    0  0.10358266713E+03  0.32031341953E+03  0.63961919244E+03  0.72715763777E+03  0.79469888468E+02 0.  0.
         24    2    4    4    0    0 -0.63663415046E+03 -0.10927034475E+03  0.40137214665E+03  0.76469930818E+03  0.80139765676E+02 0.  0.
         11    1    3    3    0    0  0.26767350571E+02 -0.15334092573E+01  0.52054779903E+02  0.58553757448E+02  0.00000000000E+00 0. -1.
        -11    1    3    3    0    0  0.50628413276E+03 -0.20950966552E+03  0.43039549999E+03  0.69674831140E+03  0.00000000000E+00 0.  1.
          2    1    6    6  502    0 -0.46344905814E+03 -0.46936676669E+02  0.26818441843E+03  0.53750438454E+03  0.00000000000E+00 0. -1.
          3    1    5    5  503    0  0.78270548451E+02  0.20848784089E+03  0.49354219922E+03  0.54145854963E+03  0.00000000000E+00 0. -1.
         -4    1    5    5    0  503  0.25312118676E+02  0.11182557864E+03  0.14607699322E+03  0.18569908814E+03  0.00000000000E+00 0.  1.
         -1    1    6    6    0  502 -0.17318509232E+03 -0.62333668082E+02  0.13318772822E+03  0.22719492364E+03  0.00000000000E+00 0.  1.
<mgrwt>
<rscale>  0 0.16519229E+04</rscale>
<asrwt>0</asrwt>
<pdfrwt beam="1">  1        3 0.55670570E-01 0.16519229E+04</pdfrwt>
<pdfrwt beam="2">  1       -3 0.29004620E+00 0.16519229E+04</pdfrwt>
<totfact> 0.34430808E-01</totfact>
</mgrwt>
</event>
<event>
12    1  0.1536832E-007  0.1195157E+04  0.7818608E-02  0.9117106E-01
         -2   -1    0    0    0  501 -0.00000000000E+00  0.00000000000E+00  0.33556458099E+03  0.33556458099E+03  0.00000000000E+00 0.  1.
          2   -1    0    0  501    0  0.00000000000E+00 -0.00000000000E+00 -0.10641775460E+04  0.10641775460E+04  0.00000000000E+00 0. -1.
         23    2    1    2    0    0 -0.11501546018E+03 -0.19906088600E+03 -0.28633726300E+03  0.37890857672E+03  0.93428523015E+02 0.  0.
        254    2    1    2    0    0  0.11501546018E+03  0.19906088600E+03 -0.44227570196E+03  0.10208335502E+04  0.89086449492E+03 0.  0.
        -24    2    4    4    0    0 -0.15796653331E+03 -0.22328107800E+03  0.76479723830E+02  0.29493741970E+03  0.79568008301E+02 0.  0.
         24    2    4    4    0    0  0.27298199348E+03  0.42234196399E+03 -0.51875542579E+03  0.72589613053E+03  0.70186161118E+02 0.  0.
         11    1    3    3    0    0 -0.12055227117E+03 -0.13786471993E+03 -0.24028727799E+03  0.30212167590E+03  0.00000000000E+00 0. -1.
        -11    1    3    3    0    0  0.55368109920E+01 -0.61196166068E+02 -0.46049985009E+02  0.76786900815E+02  0.00000000000E+00 0.  1.
          4    1    6    6  502    0  0.16494583538E+02  0.18814539268E+02 -0.51986597069E+02  0.57694579024E+02  0.00000000000E+00 0. -1.
          1    1    5    5  503    0 -0.82836765128E+02 -0.52234560367E+02  0.30010918120E+02  0.10242574950E+03  0.00000000000E+00 0. -1.
         -2    1    5    5    0  503 -0.75129768180E+02 -0.17104651763E+03  0.46468805710E+02  0.19251167020E+03  0.00000000000E+00 0.  1.
         -3    1    6    6    0  502  0.25648740995E+03  0.40352742473E+03 -0.46676882872E+03  0.66820155151E+03  0.00000000000E+00 0.  1.
<mgrwt>
<rscale>  0 0.11951574E+04</rscale>
<asrwt>0</asrwt>
<pdfrwt beam="1">  1        2 0.16371962E+00 0.11951574E+04</pdfrwt>
<pdfrwt beam="2">  1       -2 0.51625321E-01 0.11951574E+04</pdfrwt>
<totfact> 0.80212615E+01</totfact>
</mgrwt>
</event>
<event>
12    1  0.1536832E-007  0.1394893E+04  0.7818608E-02  0.8957524E-01
          1   -1    0    0  501    0  0.00000000000E+00  0.00000000000E+00  0.15171254766E+04  0.15171254766E+04  0.00000000000E+00 0. -1.
         -1   -1    0    0    0  501 -0.00000000000E+00 -0.00000000000E+00 -0.32062694146E+03  0.32062694146E+03  0.00000000000E+00 0.  1.
         23    2    1    2    0    0 -0.15536786857E+03 -0.10833846677E+03 -0.11369873741E+03  0.23884635852E+03  0.90795275886E+02 0.  0.
        254    2    1    2    0    0  0.15536786857E+03  0.10833846677E+03  0.13101972725E+04  0.15989060595E+04  0.89666453941E+03 0.  0.
        -24    2    4    4    0    0 -0.27864047675E+03 -0.19901109712E+03  0.71366072349E+03  0.79572842541E+03  0.81401269580E+02 0.  0.
         24    2    4    4    0    0  0.43400834531E+03  0.30734956390E+03  0.59653654903E+03  0.80317763410E+03  0.80071588933E+02 0.  0.
         13    1    3    3    0    0 -0.74840943037E+02 -0.74712851048E+02 -0.10837136989E+03  0.15141839610E+03  0.00000000000E+00 0.  1.
        -13    1    3    3    0    0 -0.80526925528E+02 -0.33625615727E+02 -0.53273675260E+01  0.87427962419E+02  0.00000000000E+00 0. -1.
          2    1    6    6  502    0  0.12856666855E+03  0.10742745106E+03  0.13789919281E+03  0.21699362406E+03  0.00000000000E+00 0. -1.
          1    1    5    5  503    0 -0.40356626502E+02 -0.26286409617E+02  0.17961037999E+03  0.18595569696E+03  0.00000000000E+00 0. -1.
         -2    1    5    5    0  503 -0.23828385025E+03 -0.17272468750E+03  0.53405034351E+03  0.60977272845E+03  0.00000000000E+00 0.  1.
         -3    1    6    6    0  502  0.30544167676E+03  0.19992211283E+03  0.45863735622E+03  0.58618401004E+03  0.00000000000E+00 0.  1.
<mgrwt>
<rscale>  0 0.13948925E+04</rscale>
<asrwt>0</asrwt>
<pdfrwt beam="1">  1        1 0.23340391E+00 0.13948925E+04</pdfrwt>
<pdfrwt beam="2">  1       -1 0.49327223E-01 0.13948925E+04</pdfrwt>
<totfact> 0.25571543E+01</totfact>
</mgrwt>
</event>
<event>
12    1  0.1536832E-007  0.1404351E+04  0.7818608E-02  0.8950675E-01
         -2   -1    0    0    0  501 -0.00000000000E+00  0.00000000000E+00  0.44220400256E+03  0.44220400256E+03  0.00000000000E+00 0.  1.
          2   -1    0    0  501    0  0.00000000000E+00 -0.00000000000E+00 -0.11149843706E+04  0.11149843706E+04  0.00000000000E+00 0. -1.
         23    2    1    2    0    0 -0.34279196498E+03 -0.69252172480E+02  0.35621418447E+02  0.36328665309E+03  0.91684852697E+02 0.  0.
        254    2    1    2    0    0  0.34279196498E+03  0.69252172480E+02 -0.70840178645E+03  0.11939017200E+04  0.89513464428E+03 0.  0.
        -24    2    4    4    0    0  0.56525745078E+03  0.14083563283E+03 -0.74048279820E+03  0.94541159455E+03  0.78343139735E+02 0.  0.
         24    2    4    4    0    0 -0.22246548580E+03 -0.71583460346E+02  0.32081011757E+02  0.24849012547E+03  0.78122128558E+02 0.  0.
         13    1    3    3    0    0 -0.26135730142E+03 -0.57710524244E+02  0.65892214644E+02  0.27564456745E+03  0.00000000000E+00 0. -1.
        -13    1    3    3    0    0 -0.81434663566E+02 -0.11541648236E+02 -0.30270796197E+02  0.87642085647E+02  0.00000000000E+00 0.  1.
          2    1    6    6  502    0 -0.72729055135E+01 -0.24856452868E+02  0.72052224950E+01  0.26882217822E+02  0.00000000000E+00 0. -1.
          3    1    5    5  503    0  0.13310316034E+03  0.10444685980E+01 -0.15225286455E+03  0.20223371868E+03  0.00000000000E+00 0. -1.
         -4    1    5    5    0  503  0.43215429044E+03  0.13979116423E+03 -0.58822993365E+03  0.74317787587E+03  0.00000000000E+00 0.  1.
         -1    1    6    6    0  502 -0.21519258029E+03 -0.46727007478E+02  0.24875789262E+02  0.22160790765E+03  0.00000000000E+00 0.  1.
<mgrwt>
<rscale>  0 0.14043512E+04</rscale>
<asrwt>0</asrwt>
<pdfrwt beam="1">  1        2 0.17153605E+00 0.14043512E+04</pdfrwt>
<pdfrwt beam="2">  1       -2 0.68031386E-01 0.14043512E+04</pdfrwt>
<totfact> 0.41056728E+01</totfact>
</mgrwt>
</event>
<event>
12    1  0.1536832E-007  0.3195056E+04  0.7818608E-02  0.8190124E-01
          2   -1    0    0  501    0  0.00000000000E+00  0.00000000000E+00  0.17983321901E+04  0.17983321901E+04  0.00000000000E+00 0. -1.
         -2   -1    0    0    0  501 -0.00000000000E+00 -0.00000000000E+00 -0.14191462933E+04  0.14191462933E+04  0.00000000000E+00 0.  1.
         23    2    1    2    0    0  0.50777075993E+03 -0.74164041935E+03  0.13091103871E+04  0.15912053283E+04  0.10150238874E+03 0.  0.
        254    2    1    2    0    0 -0.50777075993E+03  0.74164041935E+03 -0.92992449028E+03  0.16262731551E+04  0.98597320509E+03 0.  0.
        -24    2    4    4    0    0 -0.53361115598E+03  0.10884200367E+03 -0.80565885264E+03  0.97571068487E+03  0.79609711645E+02 0.  0.
         24    2    4    4    0    0  0.25840396058E+02  0.63279841568E+03 -0.12426563764E+03  0.65056247023E+03  0.81780303410E+02 0.  0.
         11    1    3    3    0    0  0.42446821613E+03 -0.67655254873E+03  0.11474595281E+04  0.13980557880E+04  0.00000000000E+00 0. -1.
        -11    1    3    3    0    0  0.83302543791E+02 -0.65087870619E+02  0.16165085895E+03  0.19314954026E+03  0.00000000000E+00 0.  1.
          4    1    6    6  502    0 -0.16308423100E+02  0.40313950740E+03 -0.10095006882E+03  0.41590665237E+03  0.00000000000E+00 0. -1.
          3    1    5    5  503    0 -0.35179937620E+03  0.32864467700E+02 -0.51953041442E+03  0.62829509455E+03  0.00000000000E+00 0. -1.
         -4    1    5    5    0  503 -0.18181177979E+03  0.75977535974E+02 -0.28612843822E+03  0.34741559032E+03  0.00000000000E+00 0.  1.
         -3    1    6    6    0  502  0.42148819158E+02  0.22965890828E+03 -0.23315568817E+02  0.23465581786E+03  0.00000000000E+00 0.  1.
<mgrwt>
<rscale>  0 0.31950565E+04</rscale>
<asrwt>0</asrwt>
<pdfrwt beam="1">  1        2 0.27666649E+00 0.31950565E+04</pdfrwt>
<pdfrwt beam="2">  1       -2 0.21833020E+00 0.31950565E+04</pdfrwt>
<totfact> 0.73781350E-01</totfact>
</mgrwt>
</event>
<event>
12    1  0.1536832E-007  0.3557903E+04  0.7818608E-02  0.8100203E-01
          2   -1    0    0  501    0  0.00000000000E+00  0.00000000000E+00  0.23649766656E+04  0.23649766656E+04  0.00000000000E+00 0.  1.
         -2   -1    0    0    0  501 -0.00000000000E+00 -0.00000000000E+00 -0.13381395046E+04  0.13381395046E+04  0.00000000000E+00 0. -1.
         23    2    1    2    0    0 -0.56508864198E+02 -0.12392222378E+04 -0.67064408243E+03  0.14140755396E+04  0.10479093514E+03 0.  0.
        254    2    1    2    0    0  0.56508864198E+02  0.12392222378E+04  0.16974812434E+04  0.22890406306E+04  0.90520684406E+03 0.  0.
        -24    2    4    4    0    0  0.27874793557E+03  0.62750782606E+03  0.14160942582E+04  0.15758134193E+04  0.79990629211E+02 0.  0.
         24    2    4    4    0    0 -0.22223907137E+03  0.61171441174E+03  0.28138698515E+03  0.71322721135E+03  0.77004501282E+02 0.  0.
         11    1    3    3    0    0 -0.44503008691E+02 -0.10599654796E+04 -0.53004065147E+03  0.11859386274E+04  0.00000000000E+00 0. -1.
        -11    1    3    3    0    0 -0.12005855507E+02 -0.17925675818E+03 -0.14060343096E+03  0.22813691222E+03  0.00000000000E+00 0.  1.
          2    1    6    6  502    0 -0.37118968069E+02  0.13911836139E+03  0.95124596209E+02  0.17257005844E+03  0.00000000000E+00 0. -1.
          3    1    5    5  503    0  0.34312392049E+02  0.12414760211E+03  0.21225442456E+03  0.24827788484E+03  0.00000000000E+00 0. -1.
         -4    1    5    5    0  503  0.24443554352E+03  0.50336022395E+03  0.12038398337E+04  0.13275355344E+04  0.00000000000E+00 0.  1.
         -1    1    6    6    0  502 -0.18512010331E+03  0.47259605035E+03  0.18626238894E+03  0.54065715290E+03  0.00000000000E+00 0.  1.
<mgrwt>
<rscale>  0 0.35579031E+04</rscale>
<asrwt>0</asrwt>
<pdfrwt beam="1">  1        2 0.36384256E+00 0.35579031E+04</pdfrwt>
<pdfrwt beam="2">  1       -2 0.20586762E+00 0.35579031E+04</pdfrwt>
<totfact> 0.41460799E-01</totfact>
</mgrwt>
</event>
<event>
12    1  0.1536832E-007  0.1259141E+04  0.7818608E-02  0.9062609E-01
         -1   -1    0    0    0  501 -0.00000000000E+00  0.00000000000E+00  0.58687645564E+03  0.58687645564E+03  0.00000000000E+00 0.  1.
          1   -1    0    0  501    0  0.00000000000E+00 -0.00000000000E+00 -0.67537078644E+03  0.67537078644E+03  0.00000000000E+00 0. -1.
         23    2    1    2    0    0  0.55128252602E+02 -0.18865305671E+03 -0.23416029854E+03  0.31858639660E+03  0.89650134632E+02 0.  0.
        254    2    1    2    0    0 -0.55128252602E+02  0.18865305671E+03  0.14566596774E+03  0.94366084548E+03  0.91139898897E+03 0.  0.
        -24    2    4    4    0    0 -0.18000068294E+03 -0.25997909183E+03 -0.17710509396E+03  0.37131431479E+03  0.80738664904E+02 0.  0.
         24    2    4    4    0    0  0.12487243034E+03  0.44863214855E+03  0.32277106170E+03  0.57234653069E+03  0.80842218879E+02 0.  0.
         11    1    3    3    0    0  0.32465606247E+02 -0.13089022375E+03 -0.21473136707E+03  0.25356621673E+03  0.00000000000E+00 0. -1.
        -11    1    3    3    0    0  0.22662646355E+02 -0.57762832965E+02 -0.19428931475E+02  0.65020179869E+02  0.00000000000E+00 0.  1.
          2    1    6    6  502    0  0.23049901093E+02  0.23188181087E+03  0.16642295894E+03  0.28635131118E+03  0.00000000000E+00 0. -1.
          3    1    5    5  503    0 -0.22168982938E+02 -0.30614759865E+00 -0.81142976308E+01  0.23609306574E+02  0.00000000000E+00 0. -1.
         -4    1    5    5    0  503 -0.15783170001E+03 -0.25967294424E+03 -0.16899079633E+03  0.34770500822E+03  0.00000000000E+00 0.  1.
         -3    1    6    6    0  502  0.10182252925E+03  0.21675033768E+03  0.15634810277E+03  0.28599521951E+03  0.00000000000E+00 0.  1.
<mgrwt>
<rscale>  0 0.12591413E+04</rscale>
<asrwt>0</asrwt>
<pdfrwt beam="1">  1        1 0.10390320E+00 0.12591413E+04</pdfrwt>
<pdfrwt beam="2">  1       -1 0.90288686E-01 0.12591413E+04</pdfrwt>
<totfact> 0.34015511E+01</totfact>
</mgrwt>
</event>
<event>
12    1  0.1536832E-007  0.2434368E+04  0.7818608E-02  0.8426748E-01
          2   -1    0    0  501    0  0.00000000000E+00  0.00000000000E+00  0.18414334921E+04  0.18414334921E+04  0.00000000000E+00 0.  1.
         -2   -1    0    0    0  501 -0.00000000000E+00 -0.00000000000E+00 -0.80455606582E+03  0.80455606582E+03  0.00000000000E+00 0. -1.
         23    2    1    2    0    0 -0.97543304136E+03 -0.35959642166E+03  0.60719241627E+03  0.12065631472E+04  0.79578849019E+02 0.  0.
        254    2    1    2    0    0  0.97543304136E+03  0.35959642166E+03  0.42968501000E+03  0.14394264107E+04  0.89807570912E+03 0.  0.
        -24    2    4    4    0    0  0.63921924376E+03  0.49670381036E+03  0.61888608464E+03  0.10217879414E+04  0.75595599647E+02 0.  0.
         24    2    4    4    0    0  0.33621379760E+03 -0.13710738870E+03 -0.18920107464E+03  0.41763846925E+03  0.82381372986E+02 0.  0.
         11    1    3    3    0    0 -0.91862542274E+03 -0.31764129358E+03  0.56847587285E+03  0.11260255222E+04  0.00000000000E+00 0.  1.
        -11    1    3    3    0    0 -0.56807618623E+02 -0.41955128085E+02  0.38716543417E+02  0.80537624999E+02  0.00000000000E+00 0. -1.
          2    1    6    6  502    0  0.32597518091E+03 -0.14717618243E+03 -0.17849204435E+03  0.39972497688E+03  0.00000000000E+00 0. -1.
          1    1    5    5  503    0  0.33708234533E+03  0.22759599345E+03  0.27714732795E+03  0.49217383632E+03  0.00000000000E+00 0. -1.
         -2    1    5    5    0  503  0.30213689842E+03  0.26910781692E+03  0.34173875669E+03  0.52961410512E+03  0.00000000000E+00 0.  1.
         -1    1    6    6    0  502  0.10238616690E+02  0.10068793733E+02 -0.10709030293E+02  0.17913492366E+02  0.00000000000E+00 0.  1.
<mgrwt>
<rscale>  0 0.24343677E+04</rscale>
<asrwt>0</asrwt>
<pdfrwt beam="1">  1        2 0.28329746E+00 0.24343677E+04</pdfrwt>
<pdfrwt beam="2">  1       -2 0.12377786E+00 0.24343677E+04</pdfrwt>
<totfact> 0.36066877E+00</totfact>
</mgrwt>
</event>
<event>
12    1  0.1536832E-007  0.2250444E+04  0.7818608E-02  0.8497721E-01
         -2   -1    0    0    0  501 -0.00000000000E+00  0.00000000000E+00  0.29371834943E+03  0.29371834943E+03  0.00000000000E+00 0.  1.
          2   -1    0    0  501    0  0.00000000000E+00 -0.00000000000E+00 -0.43106762600E+04  0.43106762600E+04  0.00000000000E+00 0. -1.
         23    2    1    2    0    0  0.30916065262E+03  0.69051327102E+03 -0.28417028714E+04  0.29420591748E+04  0.89711159260E+02 0.  0.
        254    2    1    2    0    0 -0.30916065262E+03 -0.69051327102E+03 -0.11752550392E+04  0.16623354347E+04  0.89985876869E+03 0.  0.
        -24    2    4    4    0    0 -0.41137309279E+03  0.64654614406E+01 -0.67576113268E+03  0.79516641660E+03  0.79792844184E+02 0.  0.
         24    2    4    4    0    0  0.10221244017E+03 -0.69697873246E+03 -0.49949390650E+03  0.86716901805E+03  0.79127787881E+02 0.  0.
         13    1    3    3    0    0  0.87129779001E+01  0.81523274546E+02 -0.35049012849E+03  0.35995178906E+03  0.00000000000E+00 0.  1.
        -13    1    3    3    0    0  0.30044767472E+03  0.60898999647E+03 -0.24912127429E+04  0.25821073857E+04  0.00000000000E+00 0. -1.
          2    1    6    6  502    0  0.62056136250E+02 -0.19093533332E+03 -0.12757814991E+03  0.23787275988E+03  0.00000000000E+00 0. -1.
          1    1    5    5  503    0 -0.40643405112E+03  0.45229414281E+01 -0.67706616775E+03  0.78970101331E+03  0.00000000000E+00 0. -1.
         -2    1    5    5    0  503 -0.49390416706E+01  0.19425200125E+01  0.13050350679E+01  0.54654032926E+01  0.00000000000E+00 0.  1.
         -1    1    6    6    0  502  0.40156303919E+02 -0.50604339913E+03 -0.37191575659E+03  0.62929625817E+03  0.00000000000E+00 0.  1.
<mgrwt>
<rscale>  0 0.22504441E+04</rscale>
<asrwt>0</asrwt>
<pdfrwt beam="1">  1        2 0.66318094E+00 0.22504441E+04</pdfrwt>
<pdfrwt beam="2">  1       -2 0.45187440E-01 0.22504441E+04</pdfrwt>
<totfact> 0.79128126E-01</totfact>
</mgrwt>
</event>
<event>
12    1  0.1536832E-007  0.1523595E+04  0.7818608E-02  0.8868912E-01
         -1   -1    0    0    0  501 -0.00000000000E+00  0.00000000000E+00  0.24013520758E+03  0.24013520758E+03  0.00000000000E+00 0.  1.
          1   -1    0    0  501    0  0.00000000000E+00 -0.00000000000E+00 -0.24167027672E+04  0.24167027672E+04  0.00000000000E+00 0. -1.
         23    2    1    2    0    0  0.39632745003E+03 -0.22872556389E+03 -0.37829182307E+03  0.60097672862E+03  0.93153066062E+02 0.  0.
        254    2    1    2    0    0 -0.39632745003E+03  0.22872556389E+03 -0.17982757365E+04  0.20558612461E+04  0.88508700565E+03 0.  0.
        -24    2    4    4    0    0  0.24343257053E+02 -0.26869284712E+03 -0.90382613671E+03  0.94654731713E+03  0.79130890927E+02 0.  0.
         24    2    4    4    0    0 -0.42067070709E+03  0.49741841101E+03 -0.89444959981E+03  0.11093139290E+04  0.78411651456E+02 0.  0.
         13    1    3    3    0    0  0.22020969647E+03 -0.10457673990E+03 -0.14610428203E+03  0.28420954624E+03  0.00000000000E+00 0.  1.
        -13    1    3    3    0    0  0.17611775356E+03 -0.12414882399E+03 -0.23218754104E+03  0.31676718238E+03  0.00000000000E+00 0. -1.
          4    1    6    6  502    0 -0.16986378418E+02  0.43279505607E+01 -0.37453345996E+02  0.41352404212E+02  0.00000000000E+00 0. -1.
          3    1    5    5  503    0 -0.26184336695E+02 -0.12330007446E+03 -0.36408213812E+03  0.38528474035E+03  0.00000000000E+00 0. -1.
         -2    1    5    5    0  503  0.50527593749E+02 -0.14539277266E+03 -0.53974399860E+03  0.56126257678E+03  0.00000000000E+00 0.  1.
         -3    1    6    6    0  502 -0.40368432867E+03  0.49309046045E+03 -0.85699625381E+03  0.10679615248E+04  0.00000000000E+00 0.  1.
<mgrwt>
<rscale>  0 0.15235950E+04</rscale>
<asrwt>0</asrwt>
<pdfrwt beam="1">  1        1 0.37180042E+00 0.15235950E+04</pdfrwt>
<pdfrwt beam="2">  1       -1 0.36943878E-01 0.15235950E+04</pdfrwt>
<totfact> 0.10536637E+01</totfact>
</mgrwt>
</event>
<event>
12    1  0.1536832E-007  0.1631293E+04  0.7818608E-02  0.8801551E-01
         -2   -1    0    0    0  501 -0.00000000000E+00  0.00000000000E+00  0.27154253937E+03  0.27154253937E+03  0.00000000000E+00 0.  1.
          2   -1    0    0  501    0  0.00000000000E+00 -0.00000000000E+00 -0.24500011439E+04  0.24500011439E+04  0.00000000000E+00 0. -1.
         23    2    1    2    0    0 -0.16466706929E+03 -0.20201566782E+03  0.75824110923E+02  0.28564685938E+03  0.88990217010E+02 0.  0.
        254    2    1    2    0    0  0.16466706929E+03  0.20201566782E+03 -0.22542827155E+04  0.24358968239E+04  0.88536839887E+03 0.  0.
        -24    2    4    4    0    0  0.34967293580E+03 -0.13734542733E+03 -0.46380762858E+03  0.60217713928E+03  0.79780087109E+02 0.  0.
         24    2    4    4    0    0 -0.18500586652E+03  0.33936109515E+03 -0.17904750869E+04  0.18337196847E+04  0.85637150211E+02 0.  0.
         13    1    3    3    0    0 -0.89873510789E+02 -0.12512165807E+03  0.88444250745E+02  0.17763744749E+03  0.00000000000E+00 0. -1.
        -13    1    3    3    0    0 -0.74793558497E+02 -0.76894009750E+02 -0.12620139822E+02  0.10800941189E+03  0.00000000000E+00 0.  1.
          4    1    6    6  502    0 -0.13151945465E+03  0.29990896871E+03 -0.15508433943E+04  0.15850419522E+04  0.00000000000E+00 0. -1.
          1    1    5    5  503    0  0.71240992242E+02 -0.45566950543E+02 -0.62339307383E+02  0.10506100705E+03  0.00000000000E+00 0. -1.
         -2    1    5    5    0  503  0.27843194356E+03 -0.91778476784E+02 -0.40146832120E+03  0.49711613223E+03  0.00000000000E+00 0.  1.
         -1    1    6    6    0  502 -0.53486411871E+02  0.39452126441E+02 -0.23963169262E+03  0.24867773250E+03  0.00000000000E+00 0.  1.
<mgrwt>
<rscale>  0 0.16312934E+04</rscale>
<asrwt>0</asrwt>
<pdfrwt beam="1">  1        2 0.37692326E+00 0.16312934E+04</pdfrwt>
<pdfrwt beam="2">  1       -2 0.41775775E-01 0.16312934E+04</pdfrwt>
<totfact> 0.19359857E+01</totfact>
</mgrwt>
</event>
<event>
12    1  0.1536832E-007  0.1756145E+04  0.7818608E-02  0.8729975E-01
          1   -1    0    0  501    0  0.00000000000E+00  0.00000000000E+00  0.10035817704E+04  0.10035817704E+04  0.00000000000E+00 0. -1.
         -1   -1    0    0    0  501 -0.00000000000E+00 -0.00000000000E+00 -0.76825998743E+03  0.76825998743E+03  0.00000000000E+00 0.  1.
         23    2    1    2    0    0 -0.14507795493E+03  0.38621698674E+03 -0.41526341548E+03  0.59245637182E+03  0.91376552910E+02 0.  0.
        254    2    1    2    0    0  0.14507795493E+03 -0.38621698674E+03  0.65058519847E+03  0.11793853860E+04  0.89301602139E+03 0.  0.
        -24    2    4    4    0    0  0.11382163458E+03  0.25473474137E+03  0.38089479594E+03  0.47876395590E+03  0.79302754949E+02 0.  0.
         24    2    4    4    0    0  0.31256320352E+02 -0.64095172811E+03  0.26969040253E+03  0.70062143012E+03  0.79632906551E+02 0.  0.
         13    1    3    3    0    0  0.76883041768E+01  0.69550127899E+01 -0.10276178851E+01  0.10418167907E+02  0.00000000000E+00 0. -1.
        -13    1    3    3    0    0 -0.15276625911E+03  0.37926197395E+03 -0.41423579759E+03  0.58203820391E+03  0.00000000000E+00 0.  1.
          4    1    6    6  502    0  0.46799217006E+02 -0.26967052695E+03  0.13665054605E+03  0.30591785099E+03  0.00000000000E+00 0. -1.
          3    1    5    5  503    0  0.10792771688E+03  0.25787059910E+03  0.35407708248E+03  0.45112771838E+03  0.00000000000E+00 0. -1.
         -4    1    5    5    0  503  0.58939177017E+01 -0.31358577306E+01  0.26817713460E+02  0.27636237529E+02  0.00000000000E+00 0.  1.
         -3    1    6    6    0  502 -0.15542896653E+02 -0.37128120115E+03  0.13303985647E+03  0.39470357913E+03  0.00000000000E+00 0.  1.
<mgrwt>
<rscale>  0 0.17561455E+04</rscale>
<asrwt>0</asrwt>
<pdfrwt beam="1">  1        1 0.15439720E+00 0.17561455E+04</pdfrwt>
<pdfrwt beam="2">  1       -1 0.11819384E+00 0.17561455E+04</pdfrwt>
<totfact> 0.91497744E+00</totfact>
</mgrwt>
</event>
<event>
12    1  0.1536832E-007  0.1369542E+04  0.7818608E-02  0.8976166E-01
         -2   -1    0    0    0  501 -0.00000000000E+00  0.00000000000E+00  0.51773068435E+03  0.51773068435E+03  0.00000000000E+00 0.  1.
          2   -1    0    0  501    0  0.00000000000E+00 -0.00000000000E+00 -0.90570478726E+03  0.90570478726E+03  0.00000000000E+00 0. -1.
         23    2    1    2    0    0 -0.25716756197E+03  0.11356588961E+03 -0.41034765917E+03  0.50552013134E+03  0.90183344305E+02 0.  0.
        254    2    1    2    0    0  0.25716756197E+03 -0.11356588961E+03  0.22373556263E+02  0.91791534026E+03  0.87351910664E+03 0.  0.
        -24    2    4    4    0    0  0.14120468038E+02 -0.24446857089E+03 -0.35818809743E+03  0.44131578741E+03  0.80601745040E+02 0.  0.
         24    2    4    4    0    0  0.24304709394E+03  0.13090268128E+03  0.38056165369E+03  0.47659955286E+03  0.78182860575E+02 0.  0.
         13    1    3    3    0    0 -0.14963412438E+03  0.20335852768E+02 -0.23984380560E+03  0.28342365669E+03  0.00000000000E+00 0.  1.
        -13    1    3    3    0    0 -0.10753343759E+03  0.93230036840E+02 -0.17050385357E+03  0.22209647465E+03  0.00000000000E+00 0. -1.
          4    1    6    6  502    0  0.12753227690E+02 -0.10253034965E+02  0.28407045529E+02  0.32783071518E+02  0.00000000000E+00 0. -1.
          1    1    5    5  503    0  0.19978892840E+02 -0.49830931922E+02 -0.13407240466E+03  0.14442190841E+03  0.00000000000E+00 0. -1.
         -2    1    5    5    0  503 -0.58584248024E+01 -0.19463763897E+03 -0.22411569277E+03  0.29689387900E+03  0.00000000000E+00 0.  1.
         -3    1    6    6    0  502  0.23029386625E+03  0.14115571624E+03  0.35215460816E+03  0.44381648134E+03  0.00000000000E+00 0.  1.
<mgrwt>
<rscale>  0 0.13695418E+04</rscale>
<asrwt>0</asrwt>
<pdfrwt beam="1">  1        2 0.13933920E+00 0.13695418E+04</pdfrwt>
<pdfrwt beam="2">  1       -2 0.79650875E-01 0.13695418E+04</pdfrwt>
<totfact> 0.39585933E+01</totfact>
</mgrwt>
</event>
<event>
12    1  0.1536832E-007  0.1903101E+04  0.7818608E-02  0.8653314E-01
          2   -1    0    0  501    0  0.00000000000E+00  0.00000000000E+00  0.17378385349E+04  0.17378385349E+04  0.00000000000E+00 0.  1.
         -2   -1    0    0    0  501 -0.00000000000E+00 -0.00000000000E+00 -0.52101981697E+03  0.52101981697E+03  0.00000000000E+00 0. -1.
         23    2    1    2    0    0 -0.24558537711E+03 -0.14258959552E+03 -0.33080582898E+03  0.44527603581E+03  0.90522270108E+02 0.  0.
        254    2    1    2    0    0  0.24558537711E+03  0.14258959552E+03  0.15476245469E+04  0.18135823160E+04  0.90182875799E+03 0.  0.
        -24    2    4    4    0    0 -0.23345340528E+03 -0.10831477376E+03  0.10142976047E+04  0.10497997933E+04  0.83948749150E+02 0.  0.
         24    2    4    4    0    0  0.47903878238E+03  0.25090436928E+03  0.53332694219E+03  0.76378252274E+03  0.80591297418E+02 0.  0.
         13    1    3    3    0    0 -0.22494229175E+03 -0.14059451864E+03 -0.33144712414E+03  0.42452685355E+03  0.00000000000E+00 0. -1.
        -13    1    3    3    0    0 -0.20643085363E+02 -0.19950768805E+01  0.64129516170E+00  0.20749182262E+02  0.00000000000E+00 0.  1.
          4    1    6    6  502    0  0.21948868080E+02  0.23053340589E+02  0.57607758867E+02  0.65816891479E+02  0.00000000000E+00 0. -1.
          3    1    5    5  503    0 -0.46785857638E+02 -0.20587828260E+01  0.97313623376E+02  0.10799581638E+03  0.00000000000E+00 0. -1.
         -4    1    5    5    0  503 -0.18666754764E+03 -0.10625599093E+03  0.91698398132E+03  0.94180397693E+03  0.00000000000E+00 0.  1.
         -3    1    6    6    0  502  0.45708991431E+03  0.22785102869E+03  0.47571918332E+03  0.69796563126E+03  0.00000000000E+00 0.  1.
<mgrwt>
<rscale>  0 0.19031010E+04</rscale>
<asrwt>0</asrwt>
<pdfrwt beam="1">  1        2 0.26735977E+00 0.19031010E+04</pdfrwt>
<pdfrwt beam="2">  1       -2 0.80156896E-01 0.19031010E+04</pdfrwt>
<totfact> 0.12038339E+01</totfact>
</mgrwt>
</event>
<event>
12    1  0.1536832E-007  0.1478588E+04  0.7818608E-02  0.8898818E-01
         -1   -1    0    0    0  501 -0.00000000000E+00  0.00000000000E+00  0.40045120574E+03  0.40045120574E+03  0.00000000000E+00 0.  1.
          1   -1    0    0  501    0  0.00000000000E+00 -0.00000000000E+00 -0.13648494184E+04  0.13648494184E+04  0.00000000000E+00 0. -1.
         23    2    1    2    0    0  0.32952747952E+02 -0.35326281385E+03  0.45453185552E+02  0.36864865941E+03  0.89192728197E+02 0.  0.
        254    2    1    2    0    0 -0.32952747952E+02  0.35326281385E+03 -0.10098513982E+04  0.13966519648E+04  0.89719360503E+03 0.  0.
        -24    2    4    4    0    0 -0.43550623112E+03  0.59757263338E+02 -0.59226902268E+03  0.74183085010E+03  0.79333517943E+02 0.  0.
         24    2    4    4    0    0  0.40255348317E+03  0.29350555051E+03 -0.41758237556E+03  0.65482111466E+03  0.78872281822E+02 0.  0.
         11    1    3    3    0    0  0.47552239858E+02 -0.28132967318E+03  0.65125496009E+02  0.29265838576E+03  0.00000000000E+00 0.  1.
        -11    1    3    3    0    0 -0.14599491906E+02 -0.71933140669E+02 -0.19672310458E+02  0.75990273648E+02  0.00000000000E+00 0. -1.
          2    1    6    6  502    0  0.32822152462E+03  0.24212254552E+03 -0.37828074470E+03  0.55628141986E+03  0.00000000000E+00 0. -1.
          1    1    5    5  503    0 -0.30059163939E+03  0.17303304532E+02 -0.35380924063E+03  0.46458122732E+03  0.00000000000E+00 0. -1.
         -2    1    5    5    0  503 -0.13491459173E+03  0.42453958806E+02 -0.23845978204E+03  0.27724962278E+03  0.00000000000E+00 0.  1.
         -1    1    6    6    0  502  0.74331958550E+02  0.51383004982E+02 -0.39301630860E+02  0.98539694799E+02  0.00000000000E+00 0.  1.
<mgrwt>
<rscale>  0 0.14785880E+04</rscale>
<asrwt>0</asrwt>
<pdfrwt beam="1">  1        1 0.20997683E+00 0.14785880E+04</pdfrwt>
<pdfrwt beam="2">  1       -1 0.61607878E-01 0.14785880E+04</pdfrwt>
<totfact> 0.21061771E+01</totfact>
</mgrwt>
</event>
<event>
12    1  0.1536832E-007  0.1800551E+04  0.7818608E-02  0.8706007E-01
         -2   -1    0    0    0  501 -0.00000000000E+00  0.00000000000E+00  0.13220676293E+04  0.13220676293E+04  0.00000000000E+00 0.  1.
          2   -1    0    0  501    0  0.00000000000E+00 -0.00000000000E+00 -0.61305163188E+03  0.61305163188E+03  0.00000000000E+00 0. -1.
         23    2    1    2    0    0 -0.26076026389E+03  0.59053339753E+03  0.65327704249E+02  0.65530005073E+03  0.91786920237E+02 0.  0.
        254    2    1    2    0    0  0.26076026389E+03 -0.59053339753E+03  0.64368829322E+03  0.12798192105E+04  0.89826331548E+03 0.  0.
        -24    2    4    4    0    0  0.36977943368E+02  0.14842086419E+03 -0.10298891160E+03  0.20277781151E+03  0.84356408797E+02 0.  0.
         24    2    4    4    0    0  0.22378232052E+03 -0.73895426172E+03  0.74667720482E+03  0.10770413990E+04  0.79745840361E+02 0.  0.
         13    1    3    3    0    0 -0.68475446497E+02  0.20303030387E+03  0.60657927689E+02  0.22268716904E+03  0.00000000000E+00 0.  1.
        -13    1    3    3    0    0 -0.19228481739E+03  0.38750309366E+03  0.46697765596E+01  0.43261288169E+03  0.00000000000E+00 0. -1.
          2    1    6    6  502    0  0.52100362780E+02 -0.22331978780E+03  0.17671647701E+03  0.28950801142E+03  0.00000000000E+00 0. -1.
          1    1    5    5  503    0  0.31517468778E+02  0.10044160819E+03 -0.20580173468E+02  0.10726327905E+03  0.00000000000E+00 0. -1.
         -2    1    5    5    0  503  0.54604745902E+01  0.47979256004E+02 -0.82408738137E+02  0.95514532459E+02  0.00000000000E+00 0.  1.
         -1    1    6    6    0  502  0.17168195774E+03 -0.51563447391E+03  0.56996072781E+03  0.78753338758E+03  0.00000000000E+00 0.  1.
<mgrwt>
<rscale>  0 0.18005507E+04</rscale>
<asrwt>0</asrwt>
<pdfrwt beam="1">  1        2 0.94315636E-01 0.18005507E+04</pdfrwt>
<pdfrwt beam="2">  1       -2 0.20339502E+00 0.18005507E+04</pdfrwt>
<totfact> 0.57589954E+00</totfact>
</mgrwt>
</event>
<event>
12    1  0.1536832E-007  0.2281619E+04  0.7818608E-02  0.8485204E-01
          2   -1    0    0  501    0  0.00000000000E+00  0.00000000000E+00  0.54684637503E+03  0.54684637503E+03  0.00000000000E+00 0. -1.
         -2   -1    0    0    0  501 -0.00000000000E+00 -0.00000000000E+00 -0.23799129254E+04  0.23799129254E+04  0.00000000000E+00 0.  1.
         23    2    1    2    0    0 -0.86495720131E+03 -0.69020799786E+02 -0.13880439919E+04  0.16394440176E+04  0.90530284573E+02 0.  0.
        254    2    1    2    0    0  0.86495720131E+03  0.69020799786E+02 -0.44502255843E+03  0.12873152828E+04  0.84036940030E+03 0.  0.
        -24    2    4    4    0    0  0.27807118232E+03 -0.36539939009E+03 -0.10716640138E+03  0.47879196638E+03  0.83167378059E+02 0.  0.
         24    2    4    4    0    0  0.58688601899E+03  0.43442018988E+03 -0.33785615705E+03  0.80852331643E+03  0.80044173436E+02 0.  0.
         13    1    3    3    0    0 -0.33759048887E+02  0.55396132480E+01 -0.89927205856E+02  0.96214671698E+02  0.00000000000E+00 0. -1.
        -13    1    3    3    0    0 -0.83119815242E+03 -0.74560413034E+02 -0.12981167861E+04  0.15432293459E+04  0.00000000000E+00 0.  1.
          2    1    6    6  502    0  0.58468322892E+03  0.43760296392E+03 -0.33780841270E+03  0.80465231989E+03  0.00000000000E+00 0. -1.
          3    1    5    5  503    0  0.16163359257E+03 -0.14617761994E+03 -0.39169854962E+02  0.22142175222E+03  0.00000000000E+00 0. -1.
         -4    1    5    5    0  503  0.11643758975E+03 -0.21922177015E+03 -0.67996546415E+02  0.25737021416E+03  0.00000000000E+00 0.  1.
         -1    1    6    6    0  502  0.22027900679E+01 -0.31827740446E+01 -0.47744349112E-01  0.38709965416E+01  0.00000000000E+00 0.  1.
<mgrwt>
<rscale>  0 0.22816194E+04</rscale>
<asrwt>0</asrwt>
<pdfrwt beam="1">  1        2 0.84130211E-01 0.22816194E+04</pdfrwt>
<pdfrwt beam="2">  1       -2 0.36614045E+00 0.22816194E+04</pdfrwt>
<totfact> 0.61924242E-01</totfact>
</mgrwt>
</event>
<event>
12    1  0.1536832E-007  0.1508808E+04  0.7818608E-02  0.8878617E-01
          2   -1    0    0  501    0  0.00000000000E+00  0.00000000000E+00  0.25857472460E+04  0.25857472460E+04  0.00000000000E+00 0. -1.
         -2   -1    0    0    0  501 -0.00000000000E+00 -0.00000000000E+00 -0.22010089539E+03  0.22010089539E+03  0.00000000000E+00 0.  1.
         23    2    1    2    0    0  0.43719737794E+03  0.22715067284E+03  0.49038367069E+03  0.70096197164E+03  0.90180739374E+02 0.  0.
        254    2    1    2    0    0 -0.43719737794E+03 -0.22715067284E+03  0.18752626799E+04  0.21048861697E+04  0.81926594795E+03 0.  0.
        -24    2    4    4    0    0 -0.62350660515E+02 -0.19277286421E+03  0.31132076249E+02  0.22103491146E+03  0.82693674888E+02 0.  0.
         24    2    4    4    0    0 -0.37484671742E+03 -0.34377808621E+02  0.18441306037E+04  0.18838512583E+04  0.79912356422E+02 0.  0.
         13    1    3    3    0    0  0.12387773980E+03  0.21079989857E+02  0.11458834200E+03  0.17006042606E+03  0.00000000000E+00 0. -1.
        -13    1    3    3    0    0  0.31331963814E+03  0.20607068298E+03  0.37579532869E+03  0.53090154557E+03  0.00000000000E+00 0.  1.
          4    1    6    6  502    0 -0.17247041409E+03 -0.26722373929E+01  0.66197081897E+03  0.68407495916E+03  0.00000000000E+00 0. -1.
          1    1    5    5  503    0 -0.26625197325E+02 -0.36300812971E+02  0.40096929923E+02  0.60286100754E+02  0.00000000000E+00 0. -1.
         -2    1    5    5    0  503 -0.35725463190E+02 -0.15647205124E+03 -0.89648536735E+01  0.16074881070E+03  0.00000000000E+00 0.  1.
         -3    1    6    6    0  502 -0.20237630333E+03 -0.31705571229E+02  0.11821597847E+04  0.11997762991E+04  0.00000000000E+00 0.  1.
<mgrwt>
<rscale>  0 0.15088079E+04</rscale>
<asrwt>0</asrwt>
<pdfrwt beam="1">  1        2 0.39780725E+00 0.15088079E+04</pdfrwt>
<pdfrwt beam="2">  1       -2 0.33861678E-01 0.15088079E+04</pdfrwt>
<totfact> 0.24526739E+01</totfact>
</mgrwt>
</event>
<event>
12    1  0.1536832E-007  0.3427178E+04  0.7818608E-02  0.8131268E-01
          2   -1    0    0  501    0  0.00000000000E+00  0.00000000000E+00  0.18046925862E+04  0.18046925862E+04  0.00000000000E+00 0.  1.
         -2   -1    0    0    0  501 -0.00000000000E+00 -0.00000000000E+00 -0.16270849127E+04  0.16270849127E+04  0.00000000000E+00 0. -1.
         23    2    1    2    0    0  0.13258810787E+04 -0.58745108025E+03  0.72661438649E+03  0.16246900592E+04  0.92681796169E+02 0.  0.
        254    2    1    2    0    0 -0.13258810787E+04  0.58745108025E+03 -0.54900671296E+03  0.18070874397E+04  0.92795325166E+03 0.  0.
        -24    2    4    4    0    0 -0.54328403867E+03  0.68261603922E+03 -0.64933328007E+02  0.87848815106E+03  0.80018065419E+02 0.  0.
         24    2    4    4    0    0 -0.78259704004E+03 -0.95164958968E+02 -0.48407338496E+03  0.92859928864E+03  0.80343639065E+02 0.  0.
         13    1    3    3    0    0  0.91706881309E+03 -0.44555782184E+03  0.48470834306E+03  0.11289283230E+04  0.00000000000E+00 0. -1.
        -13    1    3    3    0    0  0.40881226563E+03 -0.14189325841E+03  0.24190604344E+03  0.49576173628E+03  0.00000000000E+00 0.  1.
          2    1    6    6  502    0 -0.86503474844E+02  0.14101662410E+02 -0.59895484077E+02  0.10615638019E+03  0.00000000000E+00 0. -1.
          1    1    5    5  503    0 -0.14958988848E+03  0.18367177426E+03  0.17870114096E+02  0.23755377575E+03  0.00000000000E+00 0. -1.
         -2    1    5    5    0  503 -0.39369415018E+03  0.49894426496E+03 -0.82803442103E+02  0.64093437531E+03  0.00000000000E+00 0.  1.
         -1    1    6    6    0  502 -0.69609356520E+03 -0.10926662138E+03 -0.42417790088E+03  0.82244290845E+03  0.00000000000E+00 0.  1.
<mgrwt>
<rscale>  0 0.34271785E+04</rscale>
<asrwt>0</asrwt>
<pdfrwt beam="1">  1        2 0.27764501E+00 0.34271785E+04</pdfrwt>
<pdfrwt beam="2">  1       -2 0.25032075E+00 0.34271785E+04</pdfrwt>
<totfact> 0.45356846E-01</totfact>
</mgrwt>
</event>
<event>
12    1  0.1608323E-007  0.2114804E+04  0.7818608E-02  0.8554750E-01
          2   -1    0    0  501    0  0.00000000000E+00  0.00000000000E+00  0.26278919639E+04  0.26278919639E+04  0.00000000000E+00 0. -1.
         -2   -1    0    0    0  501 -0.00000000000E+00 -0.00000000000E+00 -0.42547370284E+03  0.42547370284E+03  0.00000000000E+00 0.  1.
         23    2    1    2    0    0  0.48834860785E+03 -0.37721658201E+03  0.17775932326E+04  0.18839002308E+04  0.92009057023E+02 0.  0.
        254    2    1    2    0    0 -0.48834860785E+03  0.37721658201E+03  0.42482502842E+03  0.11694654359E+04  0.89799576190E+03 0.  0.
        -24    2    4    4    0    0  0.27395853458E+02 -0.14586527845E+03 -0.15611659471E+03  0.22971384520E+03  0.79805058042E+02 0.  0.
         24    2    4    4    0    0 -0.51574446131E+03  0.52308186046E+03  0.58094162312E+03  0.93975159067E+03  0.77671748940E+02 0.  0.
         13    1    3    3    0    0  0.62571287020E+02 -0.60751360660E+02  0.17050543462E+03  0.19151500467E+03  0.00000000000E+00 0.  1.
        -13    1    3    3    0    0  0.42577732083E+03 -0.31646522135E+03  0.16070877980E+04  0.16923852262E+04  0.00000000000E+00 0. -1.
          4    1    6    6  502    0 -0.16150289664E+02  0.70468326363E+01  0.30535987573E+01  0.17883349010E+02  0.00000000000E+00 0. -1.
          3    1    5    5  503    0  0.60227924403E+01  0.18438292628E+01  0.64580295617E+01  0.90210798106E+01  0.00000000000E+00 0. -1.
         -4    1    5    5    0  503  0.21373061018E+02 -0.14770910771E+03 -0.16257462427E+03  0.22069276539E+03  0.00000000000E+00 0.  1.
         -3    1    6    6    0  502 -0.49959417164E+03  0.51603502782E+03  0.57788802437E+03  0.92186824166E+03  0.00000000000E+00 0.  1.
<mgrwt>
<rscale>  0 0.21148039E+04</rscale>
<asrwt>0</asrwt>
<pdfrwt beam="1">  1        2 0.40429106E+00 0.21148039E+04</pdfrwt>
<pdfrwt beam="2">  1       -2 0.65457494E-01 0.21148039E+04</pdfrwt>
<totfact> 0.58030836E+00</totfact>
</mgrwt>
</event>
<event>
12    1  0.1536832E-007  0.2487308E+04  0.7818608E-02  0.8407521E-01
          2   -1    0    0  501    0  0.00000000000E+00  0.00000000000E+00  0.27179963372E+04  0.27179963372E+04  0.00000000000E+00 0. -1.
         -2   -1    0    0    0  501 -0.00000000000E+00 -0.00000000000E+00 -0.56904973069E+03  0.56904973069E+03  0.00000000000E+00 0.  1.
         23    2    1    2    0    0 -0.45111669597E+03  0.53080403711E+03 -0.15581187215E+03  0.71978575318E+03  0.92493198514E+02 0.  0.
        254    2    1    2    0    0  0.45111669597E+03 -0.53080403711E+03  0.23047584787E+04  0.25672603147E+04  0.89087298723E+03 0.  0.
        -24    2    4    4    0    0  0.27992994295E+03 -0.15984720338E+03  0.13578570894E+03  0.35874085467E+03  0.79657646637E+02 0.  0.
         24    2    4    4    0    0  0.17118675302E+03 -0.37095683374E+03  0.21689727697E+04  0.22085194601E+04  0.78749303007E+02 0.  0.
         11    1    3    3    0    0 -0.19442405608E+03  0.16953801183E+03 -0.34129271560E+02  0.26020887421E+03  0.00000000000E+00 0. -1.
        -11    1    3    3    0    0 -0.25669263989E+03  0.36126602528E+03 -0.12168260059E+03  0.45957687897E+03  0.00000000000E+00 0.  1.
          2    1    6    6  502    0  0.15105107486E+02 -0.11708090088E+03  0.61883988865E+03  0.62999913445E+03  0.00000000000E+00 0. -1.
          3    1    5    5  503    0  0.85762311970E+02 -0.22592590288E+02  0.86602688348E+01  0.89110041783E+02  0.00000000000E+00 0. -1.
         -4    1    5    5    0  503  0.19416763098E+03 -0.13725461309E+03  0.12712544011E+03  0.26963081289E+03  0.00000000000E+00 0.  1.
         -1    1    6    6    0  502  0.15608164553E+03 -0.25387593286E+03  0.15501328811E+04  0.15785203256E+04  0.00000000000E+00 0.  1.
<mgrwt>
<rscale>  0 0.24873078E+04</rscale>
<asrwt>0</asrwt>
<pdfrwt beam="1">  1        2 0.41815328E+00 0.24873078E+04</pdfrwt>
<pdfrwt beam="2">  1       -2 0.87546114E-01 0.24873078E+04</pdfrwt>
<totfact> 0.26047290E+00</totfact>
</mgrwt>
</event>
<event>
12    1  0.1536832E-007  0.2257173E+04  0.7818608E-02  0.8495001E-01
          1   -1    0    0  501    0  0.00000000000E+00  0.00000000000E+00  0.18487192238E+04  0.18487192238E+04  0.00000000000E+00 0. -1.
         -1   -1    0    0    0  501 -0.00000000000E+00 -0.00000000000E+00 -0.68896745477E+03  0.68896745477E+03  0.00000000000E+00 0.  1.
         23    2    1    2    0    0 -0.32431380416E+03 -0.18593493230E+03 -0.48925132958E+03  0.62255961450E+03  0.91991127230E+02 0.  0.
        254    2    1    2    0    0  0.32431380416E+03  0.18593493230E+03  0.16490030986E+04  0.19151270641E+04  0.89930484801E+03 0.  0.
        -24    2    4    4    0    0  0.40132682515E+03 -0.23089475223E+03  0.49396484665E+03  0.68243252939E+03  0.85657925778E+02 0.  0.
         24    2    4    4    0    0 -0.77013020993E+02  0.41682968453E+03  0.11550382520E+04  0.12326945347E+04  0.75792222593E+02 0.  0.
         13    1    3    3    0    0 -0.27521890567E+03 -0.18902426669E+03 -0.40375469753E+03  0.52392124906E+03  0.00000000000E+00 0.  1.
        -13    1    3    3    0    0 -0.49094898491E+02  0.30893343918E+01 -0.85496632053E+02  0.98638365443E+02  0.00000000000E+00 0. -1.
          2    1    6    6  502    0 -0.42568090525E+02  0.36433152740E+03  0.10141543194E+04  0.10784518940E+04  0.00000000000E+00 0. -1.
          1    1    5    5  503    0  0.37336153776E+03 -0.23040177611E+03  0.48266987016E+03  0.65226836492E+03  0.00000000000E+00 0. -1.
         -2    1    5    5    0  503  0.27965287389E+02 -0.49297612173E+00  0.11294976489E+02  0.30164164469E+02  0.00000000000E+00 0.  1.
         -1    1    6    6    0  502 -0.34444930467E+02  0.52498157126E+02  0.14088393261E+03  0.15424264068E+03  0.00000000000E+00 0.  1.
<mgrwt>
<rscale>  0 0.22571729E+04</rscale>
<asrwt>0</asrwt>
<pdfrwt beam="1">  1        1 0.28441834E+00 0.22571729E+04</pdfrwt>
<pdfrwt beam="2">  1       -1 0.10599499E+00 0.22571729E+04</pdfrwt>
<totfact> 0.28517169E+00</totfact>
</mgrwt>
</event>
<event>
12    1  0.1536832E-007  0.2175197E+04  0.7818608E-02  0.8528823E-01
          2   -1    0    0  501    0  0.00000000000E+00  0.00000000000E+00  0.34073576556E+04  0.34073576556E+04  0.00000000000E+00 0. -1.
         -2   -1    0    0    0  501 -0.00000000000E+00 -0.00000000000E+00 -0.34715173308E+03  0.34715173308E+03  0.00000000000E+00 0.  1.
         23    2    1    2    0    0  0.19797125180E+03  0.37272191518E+03 -0.99561970512E+02  0.44298623564E+03  0.90608920084E+02 0.  0.
        254    2    1    2    0    0 -0.19797125180E+03 -0.37272191518E+03  0.31597678930E+04  0.33115231530E+04  0.89662601605E+03 0.  0.
        -24    2    4    4    0    0  0.15383490208E+03 -0.55765236666E+03  0.17718937998E+04  0.18656070977E+04  0.78999151892E+02 0.  0.
         24    2    4    4    0    0 -0.35180615389E+03  0.18493045148E+03  0.13878740932E+04  0.14459160553E+04  0.80696336229E+02 0.  0.
         13    1    3    3    0    0  0.68527778017E+02  0.57259781074E+02 -0.65489813823E+01  0.89541208646E+02  0.00000000000E+00 0. -1.
        -13    1    3    3    0    0  0.12944347379E+03  0.31546213410E+03 -0.93012989130E+02  0.35344502699E+03  0.00000000000E+00 0.  1.
          4    1    6    6  502    0 -0.18085782064E+03  0.81328059349E+02  0.82842371647E+03  0.85182724688E+03  0.00000000000E+00 0. -1.
          1    1    5    5  503    0  0.97602608603E+02 -0.41371909607E+03  0.11939729876E+04  0.12673836258E+04  0.00000000000E+00 0. -1.
         -2    1    5    5    0  503  0.56232293482E+02 -0.14393327058E+03  0.57792081216E+03  0.59822347190E+03  0.00000000000E+00 0.  1.
         -3    1    6    6    0  502 -0.17094833324E+03  0.10360239213E+03  0.55945037675E+03  0.59408880846E+03  0.00000000000E+00 0.  1.
<mgrwt>
<rscale>  0 0.21751966E+04</rscale>
<asrwt>0</asrwt>
<pdfrwt beam="1">  1        2 0.52420885E+00 0.21751966E+04</pdfrwt>
<pdfrwt beam="2">  1       -2 0.53407961E-01 0.21751966E+04</pdfrwt>
<totfact> 0.28614498E+00</totfact>
</mgrwt>
</event>
<event>
12    1  0.1536832E-007  0.1309325E+04  0.7818608E-02  0.9022202E-01
         -2   -1    0    0    0  501 -0.00000000000E+00  0.00000000000E+00  0.18475299326E+03  0.18475299326E+03  0.00000000000E+00 0.  1.
          2   -1    0    0  501    0  0.00000000000E+00 -0.00000000000E+00 -0.23197638450E+04  0.23197638450E+04  0.00000000000E+00 0. -1.
         23    2    1    2    0    0 -0.44626924805E+02  0.11059696689E+03  0.30513664483E+02  0.15336374354E+03  0.91466401534E+02 0.  0.
        254    2    1    2    0    0  0.44626924805E+02 -0.11059696689E+03 -0.21655245162E+04  0.23511530947E+04  0.90785527091E+03 0.  0.
        -24    2    4    4    0    0 -0.22071053480E+03  0.21394965206E+03 -0.29843673063E+03  0.43620041363E+03  0.81967828316E+02 0.  0.
         24    2    4    4    0    0  0.26533745960E+03 -0.32454661895E+03 -0.18670877856E+04  0.19149526811E+04  0.72749545218E+02 0.  0.
         13    1    3    3    0    0 -0.22725034081E+02  0.79443355150E+01 -0.24930893393E+02  0.34656732191E+02  0.00000000000E+00 0. -1.
        -13    1    3    3    0    0 -0.21901890724E+02  0.10265263137E+03  0.55444557876E+02  0.11870701135E+03  0.00000000000E+00 0.  1.
          2    1    6    6  502    0  0.20356156466E+03 -0.29062827944E+03 -0.15773819135E+04  0.16167980110E+04  0.00000000000E+00 0. -1.
          1    1    5    5  503    0 -0.18336995412E+03  0.19598291102E+03 -0.21820944937E+03  0.34590346237E+03  0.00000000000E+00 0. -1.
         -2    1    5    5    0  503 -0.37340580678E+02  0.17966741037E+02 -0.80227281261E+02  0.90296951263E+02  0.00000000000E+00 0.  1.
         -1    1    6    6    0  502  0.61775894949E+02 -0.33918339510E+02 -0.28970587214E+03  0.29815467010E+03  0.00000000000E+00 0.  1.
<mgrwt>
<rscale>  0 0.13093255E+04</rscale>
<asrwt>0</asrwt>
<pdfrwt beam="1">  1        2 0.35688676E+00 0.13093255E+04</pdfrwt>
<pdfrwt beam="2">  1       -2 0.28423536E-01 0.13093255E+04</pdfrwt>
<totfact> 0.49210167E+01</totfact>
</mgrwt>
</event>
<event>
12    1  0.1536832E-007  0.1746179E+04  0.7818608E-02  0.8735456E-01
         -2   -1    0    0    0  501 -0.00000000000E+00  0.00000000000E+00  0.34190063432E+03  0.34190063432E+03  0.00000000000E+00 0.  1.
          2   -1    0    0  501    0  0.00000000000E+00 -0.00000000000E+00 -0.22295530619E+04  0.22295530619E+04  0.00000000000E+00 0. -1.
         23    2    1    2    0    0 -0.61226363956E+03  0.31146423597E+02 -0.35333162287E+03  0.71366748345E+03  0.92957932357E+02 0.  0.
        254    2    1    2    0    0  0.61226363956E+03 -0.31146423597E+02 -0.15343208047E+04  0.18577862128E+04  0.84934823045E+03 0.  0.
        -24    2    4    4    0    0 -0.62108465645E+02 -0.29237883275E+03 -0.59252550680E+03  0.66792372669E+03  0.75450547445E+02 0.  0.
         24    2    4    4    0    0  0.67437210521E+03  0.26123240915E+03 -0.94179529792E+03  0.11898624861E+04  0.75988451524E+02 0.  0.
         11    1    3    3    0    0 -0.31448199174E+02  0.35032625010E+01 -0.46389656918E+02  0.56153916590E+02  0.00000000000E+00 0. -1.
        -11    1    3    3    0    0 -0.58081544039E+03  0.27643161096E+02 -0.30694196595E+03  0.65751356686E+03  0.00000000000E+00 0.  1.
          4    1    6    6  502    0  0.37673525745E+01  0.93788470268E+01 -0.20410777302E+02  0.22776205721E+02  0.00000000000E+00 0. -1.
          3    1    5    5  503    0 -0.22708437777E+02 -0.15039022919E+02 -0.68676710946E+02  0.73880552130E+02  0.00000000000E+00 0. -1.
         -4    1    5    5    0  503 -0.39400027868E+02 -0.27733980983E+03 -0.52384879586E+03  0.59404317456E+03  0.00000000000E+00 0.  1.
         -3    1    6    6    0  502  0.67060475263E+03  0.25185356213E+03 -0.92138452061E+03  0.11670862804E+04  0.00000000000E+00 0.  1.
<mgrwt>
<rscale>  0 0.17461794E+04</rscale>
<asrwt>0</asrwt>
<pdfrwt beam="1">  1        2 0.34300815E+00 0.17461794E+04</pdfrwt>
<pdfrwt beam="2">  1       -2 0.52600100E-01 0.17461794E+04</pdfrwt>
<totfact> 0.16075172E+01</totfact>
</mgrwt>
</event>
<event>
12    1  0.1536832E-007  0.2812045E+04  0.7818608E-02  0.8299539E-01
          1   -1    0    0  501    0  0.00000000000E+00  0.00000000000E+00  0.14832142160E+04  0.14832142160E+04  0.00000000000E+00 0. -1.
         -1   -1    0    0    0  501 -0.00000000000E+00 -0.00000000000E+00 -0.13328476882E+04  0.13328476882E+04  0.00000000000E+00 0.  1.
         23    2    1    2    0    0  0.53657702443E+03  0.97188526814E+03 -0.53600673952E+03  0.12365615753E+04  0.96464642118E+02 0.  0.
        254    2    1    2    0    0 -0.53657702443E+03 -0.97188526814E+03  0.68637326730E+03  0.15795003290E+04  0.88951512046E+03 0.  0.
        -24    2    4    4    0    0 -0.18118129207E+03 -0.10317031703E+04  0.46068666609E+03  0.11471208591E+04  0.80099743065E+02 0.  0.
         24    2    4    4    0    0 -0.35539573235E+03  0.59817902124E+02  0.22568660121E+03  0.43237946990E+03  0.78315107318E+02 0.  0.
         13    1    3    3    0    0  0.48950133741E+03  0.83088926991E+03 -0.48464440545E+03  0.10792908495E+04  0.00000000000E+00 0.  1.
        -13    1    3    3    0    0  0.47075687019E+02  0.14099599823E+03 -0.51362334071E+02  0.15727072578E+03  0.00000000000E+00 0. -1.
          4    1    6    6  502    0 -0.32126241130E+03  0.77307317303E+02  0.20084993617E+03  0.38668676610E+03  0.00000000000E+00 0. -1.
          3    1    5    5  503    0 -0.17793401909E+03 -0.10174358090E+04  0.46368645215E+03  0.11321842900E+04  0.00000000000E+00 0. -1.
         -4    1    5    5    0  503 -0.32472729850E+01 -0.14267361294E+02 -0.29997860518E+01  0.14936569101E+02  0.00000000000E+00 0.  1.
         -3    1    6    6    0  502 -0.34133321056E+02 -0.17489415179E+02  0.24836665043E+02  0.45692703795E+02  0.00000000000E+00 0.  1.
<mgrwt>
<rscale>  0 0.28120446E+04</rscale>
<asrwt>0</asrwt>
<pdfrwt beam="1">  1        1 0.22818680E+00 0.28120446E+04</pdfrwt>
<pdfrwt beam="2">  1       -1 0.20505349E+00 0.28120446E+04</pdfrwt>
<totfact> 0.80745056E-01</totfact>
</mgrwt>
</event>
<event>
12    1  0.1536832E-007  0.1330694E+04  0.7818608E-02  0.9005573E-01
          1   -1    0    0  501    0  0.00000000000E+00  0.00000000000E+00  0.97116884279E+03  0.97116884279E+03  0.00000000000E+00 0. -1.
         -1   -1    0    0    0  501 -0.00000000000E+00 -0.00000000000E+00 -0.45582863208E+03  0.45582863208E+03  0.00000000000E+00 0.  1.
         23    2    1    2    0    0  0.10912286798E+03  0.29390546683E+03 -0.13755015550E+02  0.32719393246E+03  0.92619896562E+02 0.  0.
        254    2    1    2    0    0 -0.10912286798E+03 -0.29390546683E+03  0.52909522626E+03  0.10998035424E+04  0.91177730268E+03 0.  0.
        -24    2    4    4    0    0 -0.41767627437E+03  0.83030843397E+02  0.98841836744E+02  0.44440972329E+03  0.79891816429E+02 0.  0.
         24    2    4    4    0    0  0.30855340640E+03 -0.37693631023E+03  0.43025338952E+03  0.65539381911E+03  0.84480130038E+02 0.  0.
         11    1    3    3    0    0  0.30079323175E+02  0.12681340965E+03  0.37047048785E+02  0.13549498283E+03  0.00000000000E+00 0. -1.
        -11    1    3    3    0    0  0.79043544802E+02  0.16709205719E+03 -0.50802064335E+02  0.19169894963E+03  0.00000000000E+00 0.  1.
          4    1    6    6  502    0  0.21810915857E+03 -0.31703789173E+03  0.31704069681E+03  0.49859746618E+03  0.00000000000E+00 0. -1.
          1    1    5    5  503    0 -0.28023671351E+03  0.72305503935E+02  0.31925833401E+02  0.29116998529E+03  0.00000000000E+00 0. -1.
         -2    1    5    5    0  503 -0.13743956086E+03  0.10725339462E+02  0.66916003343E+02  0.15323973799E+03  0.00000000000E+00 0.  1.
         -3    1    6    6    0  502  0.90444247824E+02 -0.59898418496E+02  0.11321269270E+03  0.15679635293E+03  0.00000000000E+00 0.  1.
<mgrwt>
<rscale>  0 0.13306939E+04</rscale>
<asrwt>0</asrwt>
<pdfrwt beam="1">  1        1 0.14941059E+00 0.13306939E+04</pdfrwt>
<pdfrwt beam="2">  1       -1 0.70127482E-01 0.13306939E+04</pdfrwt>
<totfact> 0.32131288E+01</totfact>
</mgrwt>
</event>
<event>
12    1  0.1536832E-007  0.1776668E+04  0.7818608E-02  0.8718806E-01
          1   -1    0    0  501    0  0.00000000000E+00  0.00000000000E+00  0.18210041508E+04  0.18210041508E+04  0.00000000000E+00 0. -1.
         -1   -1    0    0    0  501 -0.00000000000E+00 -0.00000000000E+00 -0.43335286341E+03  0.43335286341E+03  0.00000000000E+00 0.  1.
         23    2    1    2    0    0 -0.61526152001E+03  0.84117887209E+02  0.22477854748E+03  0.66661208491E+03  0.90684725166E+02 0.  0.
        254    2    1    2    0    0  0.61526152001E+03 -0.84117887209E+02  0.11628727400E+04  0.15877449293E+04  0.88489456681E+03 0.  0.
        -24    2    4    4    0    0 -0.17378387093E+03  0.76518671856E+02  0.49408812655E+02  0.21130969118E+03  0.78451347226E+02 0.  0.
         24    2    4    4    0    0  0.78904539095E+03 -0.16063655906E+03  0.11134639273E+04  0.13764352382E+04  0.79845565781E+02 0.  0.
         13    1    3    3    0    0 -0.40303569362E+02  0.64970875685E+01 -0.77896270802E+01  0.41560415545E+02  0.00000000000E+00 0. -1.
        -13    1    3    3    0    0 -0.57495795065E+03  0.77620799640E+02  0.23256817456E+03  0.62505166936E+03  0.00000000000E+00 0.  1.
          2    1    6    6  502    0  0.72579508944E+03 -0.16460797415E+03  0.10010458727E+04  0.12473841174E+04  0.00000000000E+00 0. -1.
          1    1    5    5  503    0 -0.10942470074E+03  0.58853537619E+02 -0.62532348982E+01  0.12440501183E+03  0.00000000000E+00 0. -1.
         -2    1    5    5    0  503 -0.64359170193E+02  0.17665134237E+02  0.55662047553E+02  0.86904679352E+02  0.00000000000E+00 0.  1.
         -1    1    6    6    0  502  0.63250301505E+02  0.39714150882E+01  0.11241805460E+03  0.12905112079E+03  0.00000000000E+00 0.  1.
<mgrwt>
<rscale>  0 0.17766681E+04</rscale>
<asrwt>0</asrwt>
<pdfrwt beam="1">  1        1 0.28015448E+00 0.17766681E+04</pdfrwt>
<pdfrwt beam="2">  1       -1 0.66669672E-01 0.17766681E+04</pdfrwt>
<totfact> 0.84962792E+00</totfact>
</mgrwt>
</event>
<event>
12    1  0.1536832E-007  0.1530150E+04  0.7818608E-02  0.8864647E-01
         -2   -1    0    0    0  501 -0.00000000000E+00  0.00000000000E+00  0.53781253112E+03  0.53781253112E+03  0.00000000000E+00 0.  1.
          2   -1    0    0  501    0  0.00000000000E+00 -0.00000000000E+00 -0.10883717881E+04  0.10883717881E+04  0.00000000000E+00 0. -1.
         23    2    1    2    0    0 -0.89665703185E+02 -0.34651070126E+03 -0.51143938878E+03  0.63106707275E+03  0.92551593712E+02 0.  0.
        254    2    1    2    0    0  0.89665703185E+02  0.34651070126E+03 -0.39119868148E+02  0.99511724643E+03  0.92769519005E+03 0.  0.
        -24    2    4    4    0    0  0.18666969728E+03 -0.27249290993E+03  0.85847275161E+02  0.35109449575E+03  0.82459859593E+02 0.  0.
         24    2    4    4    0    0 -0.97003994095E+02  0.61900361119E+03 -0.12496714331E+03  0.64402275068E+03  0.81075711191E+02 0.  0.
         13    1    3    3    0    0 -0.32067728428E+01 -0.17273882471E+03 -0.28002308359E+03  0.32903178007E+03  0.00000000000E+00 0. -1.
        -13    1    3    3    0    0 -0.86458930342E+02 -0.17377187655E+03 -0.23141630519E+03  0.30203529268E+03  0.00000000000E+00 0.  1.
          4    1    6    6  502    0 -0.54067867825E+02  0.31638334032E+03 -0.22923068600E+02  0.32178753773E+03  0.00000000000E+00 0. -1.
          3    1    5    5  503    0  0.17212857536E+02 -0.39455900741E+02 -0.15354460595E+02  0.45703501266E+02  0.00000000000E+00 0. -1.
         -4    1    5    5    0  503  0.16945683974E+03 -0.23303700919E+03  0.10120173576E+03  0.30539099448E+03  0.00000000000E+00 0.  1.
         -3    1    6    6    0  502 -0.42936126271E+02  0.30262027087E+03 -0.10204407471E+03  0.32223521295E+03  0.00000000000E+00 0.  1.
<mgrwt>
<rscale>  0 0.15301503E+04</rscale>
<asrwt>0</asrwt>
<pdfrwt beam="1">  1        2 0.16744181E+00 0.15301503E+04</pdfrwt>
<pdfrwt beam="2">  1       -2 0.82740391E-01 0.15301503E+04</pdfrwt>
<totfact> 0.27359045E+01</totfact>
</mgrwt>
</event>
<event>
12    1  0.1536832E-007  0.1975230E+04  0.7818608E-02  0.8618290E-01
         -2   -1    0    0    0  501 -0.00000000000E+00  0.00000000000E+00  0.40919160742E+03  0.40919160742E+03  0.00000000000E+00 0.  1.
          2   -1    0    0  501    0  0.00000000000E+00 -0.00000000000E+00 -0.23836839841E+04  0.23836839841E+04  0.00000000000E+00 0. -1.
         23    2    1    2    0    0  0.31087288980E+03  0.71619878207E+03 -0.45042258411E+03  0.90634276722E+03  0.94837009501E+02 0.  0.
        254    2    1    2    0    0 -0.31087288980E+03 -0.71619878207E+03 -0.15240697926E+04  0.18865328243E+04  0.79160262473E+03 0.  0.
        -24    2    4    4    0    0 -0.43948821895E+03 -0.28519412473E+03 -0.12399889501E+04  0.13485710916E+04  0.81152999605E+02 0.  0.
         24    2    4    4    0    0  0.12861532915E+03 -0.43100465734E+03 -0.28408084252E+03  0.53796173274E+03  0.79962386580E+02 0.  0.
         13    1    3    3    0    0  0.75882270395E+02  0.91583770919E+02 -0.60808160850E+02  0.13357895973E+03  0.00000000000E+00 0. -1.
        -13    1    3    3    0    0  0.23499061941E+03  0.62461501115E+03 -0.38961442326E+03  0.77276380749E+03  0.00000000000E+00 0.  1.
          4    1    6    6  502    0 -0.67301432765E+01 -0.67760672474E+02 -0.56283681200E+02  0.88343966020E+02  0.00000000000E+00 0. -1.
          1    1    5    5  503    0 -0.14912935778E+03 -0.72352287418E+02 -0.47530728877E+03  0.50338001311E+03  0.00000000000E+00 0. -1.
         -2    1    5    5    0  503 -0.29035886117E+03 -0.21284183731E+03 -0.76468166133E+03  0.84519107848E+03  0.00000000000E+00 0.  1.
         -3    1    6    6    0  502  0.13534547243E+03 -0.36324398487E+03 -0.22779716132E+03  0.44961776672E+03  0.00000000000E+00 0.  1.
<mgrwt>
<rscale>  0 0.19752301E+04</rscale>
<asrwt>0</asrwt>
<pdfrwt beam="1">  1        2 0.36672062E+00 0.19752301E+04</pdfrwt>
<pdfrwt beam="2">  1       -2 0.62952554E-01 0.19752301E+04</pdfrwt>
<totfact> 0.88451617E+00</totfact>
</mgrwt>
</event>
<event>
12    1  0.1536832E-007  0.3463126E+04  0.7818608E-02  0.8122585E-01
         -2   -1    0    0    0  501 -0.00000000000E+00  0.00000000000E+00  0.10145801913E+04  0.10145801913E+04  0.00000000000E+00 0.  1.
          2   -1    0    0  501    0  0.00000000000E+00 -0.00000000000E+00 -0.29552234517E+04  0.29552234517E+04  0.00000000000E+00 0. -1.
         23    2    1    2    0    0  0.14070314135E+04  0.72888959387E+03 -0.56953859070E+03  0.16861307214E+04  0.87436632205E+02 0.  0.
        254    2    1    2    0    0 -0.14070314135E+04 -0.72888959387E+03 -0.13711046697E+04  0.22836729216E+04  0.90786373358E+03 0.  0.
        -24    2    4    4    0    0 -0.14162568730E+03 -0.50543891291E+03 -0.30843259035E+03  0.61430835276E+03  0.81961939257E+02 0.  0.
         24    2    4    4    0    0 -0.12654057262E+04 -0.22345068096E+03 -0.10626720794E+04  0.16693645688E+04  0.79525194882E+02 0.  0.
         13    1    3    3    0    0  0.49708402906E+03  0.24483636663E+03 -0.24203649705E+03  0.60466440632E+03  0.00000000000E+00 0.  1.
        -13    1    3    3    0    0  0.90994738444E+03  0.48405322724E+03 -0.32750209365E+03  0.10814663151E+04  0.00000000000E+00 0. -1.
          4    1    6    6  502    0 -0.41410390427E+03 -0.10592544165E+03 -0.32858384090E+03  0.53913781468E+03  0.00000000000E+00 0. -1.
          3    1    5    5  503    0 -0.94117905532E+01 -0.99728499366E+01  0.34107267901E+01  0.14130555351E+02  0.00000000000E+00 0. -1.
         -4    1    5    5    0  503 -0.13221389674E+03 -0.49546606297E+03 -0.31184331714E+03  0.60017779740E+03  0.00000000000E+00 0.  1.
         -3    1    6    6    0  502 -0.85130182193E+03 -0.11752523931E+03 -0.73408823849E+03  0.11302267541E+04  0.00000000000E+00 0.  1.
<mgrwt>
<rscale>  0 0.34631264E+04</rscale>
<asrwt>0</asrwt>
<pdfrwt beam="1">  1        2 0.45464975E+00 0.34631264E+04</pdfrwt>
<pdfrwt beam="2">  1       -2 0.15608926E+00 0.34631264E+04</pdfrwt>
<totfact> 0.41203238E-01</totfact>
</mgrwt>
</event>
<event>
12    1  0.1536832E-007  0.1791000E+04  0.7818608E-02  0.8711100E-01
         -2   -1    0    0    0  501 -0.00000000000E+00  0.00000000000E+00  0.34298016197E+03  0.34298016197E+03  0.00000000000E+00 0.  1.
          2   -1    0    0  501    0  0.00000000000E+00 -0.00000000000E+00 -0.23380963319E+04  0.23380963319E+04  0.00000000000E+00 0. -1.
         23    2    1    2    0    0 -0.12926523699E+03 -0.34331113312E+03 -0.15965466763E+04  0.16402873431E+04  0.83721218868E+02 0.  0.
        254    2    1    2    0    0  0.12926523699E+03  0.34331113312E+03 -0.39856949359E+03  0.10407891508E+04  0.88871389073E+03 0.  0.
        -24    2    4    4    0    0  0.43450223745E+03  0.83500691851E+02  0.26840706670E+02  0.45069832426E+03  0.81510711381E+02 0.  0.
         24    2    4    4    0    0 -0.30523700046E+03  0.25981044127E+03 -0.42541020026E+03  0.59009082653E+03  0.81007735642E+02 0.  0.
         13    1    3    3    0    0 -0.16538553109E+02 -0.31902490143E+02 -0.29860139166E+03  0.30075585400E+03  0.00000000000E+00 0.  1.
        -13    1    3    3    0    0 -0.11272668388E+03 -0.31140864298E+03 -0.12979452847E+04  0.13395314891E+04  0.00000000000E+00 0. -1.
          4    1    6    6  502    0 -0.26634410667E+03  0.22297525524E+03 -0.40295913184E+03  0.53200865551E+03  0.00000000000E+00 0. -1.
          1    1    5    5  503    0  0.35889079307E+03  0.76776436653E+02  0.52111966353E+02  0.37069243264E+03  0.00000000000E+00 0. -1.
         -2    1    5    5    0  503  0.75611444379E+02  0.67242551987E+01 -0.25271259683E+02  0.80005891627E+02  0.00000000000E+00 0.  1.
         -3    1    6    6    0  502 -0.38892893788E+02  0.36835186035E+02 -0.22451068414E+02  0.58082171020E+02  0.00000000000E+00 0.  1.
<mgrwt>
<rscale>  0 0.17910005E+04</rscale>
<asrwt>0</asrwt>
<pdfrwt beam="1">  1        2 0.35970713E+00 0.17910005E+04</pdfrwt>
<pdfrwt beam="2">  1       -2 0.52766178E-01 0.17910005E+04</pdfrwt>
<totfact> 0.13814230E+01</totfact>
</mgrwt>
</event>
<event>
12    1  0.1536832E-007  0.1530463E+04  0.7818608E-02  0.8864444E-01
         -1   -1    0    0    0  501 -0.00000000000E+00  0.00000000000E+00  0.89959914255E+03  0.89959914255E+03  0.00000000000E+00 0.  1.
          1   -1    0    0  501    0  0.00000000000E+00 -0.00000000000E+00 -0.65093375866E+03  0.65093375866E+03  0.00000000000E+00 0. -1.
         23    2    1    2    0    0 -0.53359269398E+02  0.15719303302E+02 -0.41377104409E+03  0.42726945045E+03  0.90875729627E+02 0.  0.
        254    2    1    2    0    0  0.53359269398E+02 -0.15719303302E+02  0.66243642798E+03  0.11232634508E+04  0.90543053327E+03 0.  0.
        -24    2    4    4    0    0  0.35875530635E+03  0.26080285270E+03  0.18383421144E+03  0.48659201489E+03  0.79077644406E+02 0.  0.
         24    2    4    4    0    0 -0.30539603695E+03 -0.27652215601E+03  0.47860221654E+03  0.63667143587E+03  0.80988847562E+02 0.  0.
         11    1    3    3    0    0  0.14873769402E+02 -0.72959020963E+01 -0.21878459617E+03  0.21941093574E+03  0.00000000000E+00 0.  1.
        -11    1    3    3    0    0 -0.68233038800E+02  0.23015205398E+02 -0.19498644792E+03  0.20785851471E+03  0.00000000000E+00 0. -1.
          4    1    6    6  502    0 -0.11747752270E+03 -0.11010451892E+03  0.12913283063E+03  0.20639588507E+03  0.00000000000E+00 0. -1.
          3    1    5    5  503    0  0.13305042499E+03  0.91020266850E+02  0.26737217532E+02  0.16340741528E+03  0.00000000000E+00 0. -1.
         -4    1    5    5    0  503  0.22570488137E+03  0.16978258586E+03  0.15709699391E+03  0.32318459961E+03  0.00000000000E+00 0.  1.
         -3    1    6    6    0  502 -0.18791851425E+03 -0.16641763709E+03  0.34946938591E+03  0.43027555080E+03  0.00000000000E+00 0.  1.
<mgrwt>
<rscale>  0 0.15304633E+04</rscale>
<asrwt>0</asrwt>
<pdfrwt beam="1">  1        1 0.10014366E+00 0.15304633E+04</pdfrwt>
<pdfrwt beam="2">  1       -1 0.13839987E+00 0.15304633E+04</pdfrwt>
<totfact> 0.12669689E+01</totfact>
</mgrwt>
</event>
<event>
12    1  0.1536832E-007  0.1948065E+04  0.7818608E-02  0.8631295E-01
         -2   -1    0    0    0  501 -0.00000000000E+00  0.00000000000E+00  0.34020364409E+03  0.34020364409E+03  0.00000000000E+00 0.  1.
          2   -1    0    0  501    0  0.00000000000E+00 -0.00000000000E+00 -0.27887385571E+04  0.27887385571E+04  0.00000000000E+00 0. -1.
         23    2    1    2    0    0 -0.53693456238E+03  0.78651028482E+02 -0.18134805772E+04  0.18953081189E+04  0.94849105485E+02 0.  0.
        254    2    1    2    0    0  0.53693456238E+03 -0.78651028482E+02 -0.63505433576E+03  0.12336340823E+04  0.90778539927E+03 0.  0.
        -24    2    4    4    0    0 -0.42584733072E+02 -0.36967965908E+03 -0.11286765601E+03  0.39705620636E+03  0.80237232017E+02 0.  0.
         24    2    4    4    0    0  0.57951929546E+03  0.29102863060E+03 -0.52218667975E+03  0.83657787596E+03  0.81506664782E+02 0.  0.
         11    1    3    3    0    0 -0.49177539262E+03  0.55974012579E+02 -0.15527806761E+04  0.16297557961E+04  0.00000000000E+00 0.  1.
        -11    1    3    3    0    0 -0.45159169763E+02  0.22677015902E+02 -0.26069990111E+03  0.26555232272E+03  0.00000000000E+00 0. -1.
          2    1    6    6  502    0  0.52714983318E+03  0.28902357072E+03 -0.47982071694E+03  0.76918755285E+03  0.00000000000E+00 0. -1.
          3    1    5    5  503    0 -0.35821800946E+02 -0.26758213593E+03 -0.11794524660E+03  0.29460903260E+03  0.00000000000E+00 0. -1.
         -4    1    5    5    0  503 -0.67629321262E+01 -0.10209752315E+03  0.50775905913E+01  0.10244717376E+03  0.00000000000E+00 0.  1.
         -1    1    6    6    0  502  0.52369462281E+02  0.20050598804E+01 -0.42365962810E+02  0.67390323115E+02  0.00000000000E+00 0.  1.
<mgrwt>
<rscale>  0 0.19480647E+04</rscale>
<asrwt>0</asrwt>
<pdfrwt beam="1">  1        2 0.42903670E+00 0.19480647E+04</pdfrwt>
<pdfrwt beam="2">  1       -2 0.52339022E-01 0.19480647E+04</pdfrwt>
<totfact> 0.75633646E+00</totfact>
</mgrwt>
</event>
<event>
12    1  0.1536832E-007  0.1057903E+04  0.7818608E-02  0.9247223E-01
          1   -1    0    0  501    0  0.00000000000E+00  0.00000000000E+00  0.36808922206E+03  0.36808922206E+03  0.00000000000E+00 0. -1.
         -1   -1    0    0    0  501 -0.00000000000E+00 -0.00000000000E+00 -0.76011314694E+03  0.76011314694E+03  0.00000000000E+00 0.  1.
         23    2    1    2    0    0  0.11032876835E+03 -0.15461450021E+02 -0.33637277747E+02  0.15171627655E+03  0.97338936471E+02 0.  0.
        254    2    1    2    0    0 -0.11032876835E+03  0.15461450021E+02 -0.35838664713E+03  0.97648609245E+03  0.90148355855E+03 0.  0.
        -24    2    4    4    0    0 -0.33697251863E+03  0.31860082137E+03 -0.34741256167E+02  0.47210868231E+03  0.81379919771E+02 0.  0.
         24    2    4    4    0    0  0.22664375028E+03 -0.30313937135E+03 -0.32364539097E+03  0.50437741014E+03  0.79933502094E+02 0.  0.
         13    1    3    3    0    0  0.11198267957E+03  0.71042142432E+01 -0.50943023802E+02  0.12323060520E+03  0.00000000000E+00 0.  1.
        -13    1    3    3    0    0 -0.16539112138E+01 -0.22565664264E+02  0.17305746056E+02  0.28485671355E+02  0.00000000000E+00 0. -1.
          2    1    6    6  502    0  0.18508528640E+03 -0.24770708320E+03 -0.30090026553E+03  0.43145837818E+03  0.00000000000E+00 0. -1.
          1    1    5    5  503    0 -0.32762224730E+03  0.31160006709E+03 -0.47715323754E+02  0.45465117492E+03  0.00000000000E+00 0. -1.
         -2    1    5    5    0  503 -0.93502713323E+01  0.70007542800E+01  0.12974067588E+02  0.17457507389E+02  0.00000000000E+00 0.  1.
         -1    1    6    6    0  502  0.41558463886E+02 -0.55432288154E+02 -0.22745125443E+02  0.72919031960E+02  0.00000000000E+00 0.  1.
<mgrwt>
<rscale>  0 0.10579026E+04</rscale>
<asrwt>0</asrwt>
<pdfrwt beam="1">  1        1 0.56629112E-01 0.10579026E+04</pdfrwt>
<pdfrwt beam="2">  1       -1 0.11694048E+00 0.10579026E+04</pdfrwt>
<totfact> 0.44155986E+01</totfact>
</mgrwt>
</event>
<event>
12    1  0.1536832E-007  0.2643182E+04  0.7818608E-02  0.8353680E-01
         -2   -1    0    0    0  501 -0.00000000000E+00  0.00000000000E+00  0.68732366063E+03  0.68732366063E+03  0.00000000000E+00 0.  1.
          2   -1    0    0  501    0  0.00000000000E+00 -0.00000000000E+00 -0.25411643551E+04  0.25411643551E+04  0.00000000000E+00 0. -1.
         23    2    1    2    0    0 -0.59788893750E+03  0.99607672696E+03 -0.70921008839E+03  0.13640191415E+04  0.89046287548E+02 0.  0.
        254    2    1    2    0    0  0.59788893750E+03 -0.99607672696E+03 -0.11446306060E+04  0.18644688742E+04  0.90356235586E+03 0.  0.
        -24    2    4    4    0    0 -0.68146824546E+02  0.61862225939E+02  0.53513082013E+02  0.13099358547E+03  0.76320015688E+02 0.  0.
         24    2    4    4    0    0  0.66603576205E+03 -0.10579389529E+04 -0.11981436880E+04  0.17334752887E+04  0.80930927112E+02 0.  0.
         11    1    3    3    0    0 -0.49710699599E+03  0.76363396904E+03 -0.57299544784E+03  0.10763716772E+04  0.00000000000E+00 0.  1.
        -11    1    3    3    0    0 -0.10078194151E+03  0.23244275793E+03 -0.13621464055E+03  0.28764746435E+03  0.00000000000E+00 0. -1.
          2    1    6    6  502    0  0.26729221868E+02 -0.73716803739E+02 -0.61469346292E+02  0.99634828191E+02  0.00000000000E+00 0. -1.
          3    1    5    5  503    0  0.68107765557E+01  0.12077406706E+02 -0.13069560102E+02  0.19054233947E+02  0.00000000000E+00 0. -1.
         -2    1    5    5    0  503 -0.74957601101E+02  0.49784819232E+02  0.66582642115E+02  0.11193935153E+03  0.00000000000E+00 0.  1.
         -1    1    6    6    0  502  0.63930654018E+03 -0.98422214916E+03 -0.11366743417E+04  0.16338404605E+04  0.00000000000E+00 0.  1.
<mgrwt>
<rscale>  0 0.26431817E+04</rscale>
<asrwt>0</asrwt>
<pdfrwt beam="1">  1        2 0.39094836E+00 0.26431817E+04</pdfrwt>
<pdfrwt beam="2">  1       -2 0.10574210E+00 0.26431817E+04</pdfrwt>
<totfact> 0.20981293E+00</totfact>
</mgrwt>
</event>
<event>
12    1  0.1536832E-007  0.1315755E+04  0.7818608E-02  0.9017164E-01
         -1   -1    0    0    0  501 -0.00000000000E+00  0.00000000000E+00  0.41305753380E+03  0.41305753380E+03  0.00000000000E+00 0.  1.
          1   -1    0    0  501    0  0.00000000000E+00 -0.00000000000E+00 -0.10478032589E+04  0.10478032589E+04  0.00000000000E+00 0. -1.
         23    2    1    2    0    0  0.23114630827E+03 -0.19670232850E+03 -0.34066971081E+03  0.46524394406E+03  0.90970620281E+02 0.  0.
        254    2    1    2    0    0 -0.23114630827E+03  0.19670232850E+03 -0.29407601434E+03  0.99561684869E+03  0.90147201028E+03 0.  0.
        -24    2    4    4    0    0 -0.53353371003E+03  0.27900357943E+03 -0.28908034747E+03  0.67261256533E+03  0.79617828872E+02 0.  0.
         24    2    4    4    0    0  0.30238740176E+03 -0.82301250928E+02 -0.49956668673E+01  0.32300428336E+03  0.78071593638E+02 0.  0.
         13    1    3    3    0    0  0.16146424308E+03 -0.18461320764E+03 -0.27828205909E+03  0.37093617057E+03  0.00000000000E+00 0. -1.
        -13    1    3    3    0    0  0.69682065191E+02 -0.12089120861E+02 -0.62387651721E+02  0.94307773485E+02  0.00000000000E+00 0.  1.
          4    1    6    6  502    0  0.65617584914E+02 -0.13739833080E+02  0.31057095741E+02  0.73885002936E+02  0.00000000000E+00 0. -1.
          1    1    5    5  503    0 -0.31245931038E+03  0.14098605700E+03 -0.20171200498E+03  0.39773813227E+03  0.00000000000E+00 0. -1.
         -2    1    5    5    0  503 -0.22107439965E+03  0.13801752244E+03 -0.87368342487E+02  0.27487443306E+03  0.00000000000E+00 0.  1.
         -3    1    6    6    0  502  0.23676981684E+03 -0.68561417848E+02 -0.36052762608E+02  0.24911928042E+03  0.00000000000E+00 0.  1.
<mgrwt>
<rscale>  0 0.13157553E+04</rscale>
<asrwt>0</asrwt>
<pdfrwt beam="1">  1        1 0.16120050E+00 0.13157553E+04</pdfrwt>
<pdfrwt beam="2">  1       -1 0.63547314E-01 0.13157553E+04</pdfrwt>
<totfact> 0.34244024E+01</totfact>
</mgrwt>
</event>
<event>
12    1  0.1536832E-007  0.1575088E+04  0.7818608E-02  0.8836000E-01
         -1   -1    0    0    0  501 -0.00000000000E+00  0.00000000000E+00  0.15372392717E+04  0.15372392717E+04  0.00000000000E+00 0.  1.
          1   -1    0    0  501    0  0.00000000000E+00 -0.00000000000E+00 -0.40346714651E+03  0.40346714651E+03  0.00000000000E+00 0. -1.
         23    2    1    2    0    0  0.26192878004E+03  0.43509104773E+03  0.56805730449E+03  0.76762326865E+03  0.92981050513E+02 0.  0.
        254    2    1    2    0    0 -0.26192878004E+03 -0.43509104773E+03  0.56571482073E+03  0.11730831496E+04  0.89340915140E+03 0.  0.
        -24    2    4    4    0    0 -0.54502163078E+03 -0.41738798671E+03  0.54016501235E+03  0.87722251696E+03  0.80497169095E+02 0.  0.
         24    2    4    4    0    0  0.28309285074E+03 -0.17703061020E+02  0.25549808376E+02  0.29586063262E+03  0.80160842788E+02 0.  0.
         11    1    3    3    0    0  0.22065080320E+03  0.40823776218E+03  0.48632930760E+03  0.67220610147E+03  0.00000000000E+00 0.  1.
        -11    1    3    3    0    0  0.41277976835E+02  0.26853285556E+02  0.81727996889E+02  0.95417167177E+02  0.00000000000E+00 0. -1.
          4    1    6    6  502    0  0.10627278853E+03 -0.31359482691E+02  0.40293865579E+02  0.11790215579E+03  0.00000000000E+00 0. -1.
          3    1    5    5  503    0 -0.82347112775E+02 -0.93213052639E+02  0.12324812708E+03  0.17509946029E+03  0.00000000000E+00 0. -1.
         -4    1    5    5    0  503 -0.46267451800E+03 -0.32417493407E+03  0.41691688527E+03  0.70212305667E+03  0.00000000000E+00 0.  1.
         -3    1    6    6    0  502  0.17682006221E+03  0.13656421671E+02 -0.14744057203E+02  0.17795847683E+03  0.00000000000E+00 0.  1.
<mgrwt>
<rscale>  0 0.15750880E+04</rscale>
<asrwt>0</asrwt>
<pdfrwt beam="1">  1        1 0.62071869E-01 0.15750880E+04</pdfrwt>
<pdfrwt beam="2">  1       -1 0.23649835E+00 0.15750880E+04</pdfrwt>
<totfact> 0.48761543E+00</totfact>
</mgrwt>
</event>
<event>
12    1  0.1536832E-007  0.1289181E+04  0.7818608E-02  0.9038189E-01
          1   -1    0    0  501    0  0.00000000000E+00  0.00000000000E+00  0.12579653875E+04  0.12579653875E+04  0.00000000000E+00 0. -1.
         -1   -1    0    0    0  501 -0.00000000000E+00 -0.00000000000E+00 -0.33029255121E+03  0.33029255121E+03  0.00000000000E+00 0.  1.
         23    2    1    2    0    0  0.12449315303E+03 -0.25390698179E+03  0.50671905869E+02  0.30172753987E+03  0.92220202333E+02 0.  0.
        254    2    1    2    0    0 -0.12449315303E+03  0.25390698179E+03  0.87700093046E+03  0.12865303989E+04  0.89780985440E+03 0.  0.
        -24    2    4    4    0    0 -0.19710412902E+03  0.56339874827E+03  0.46904545122E+03  0.76321270120E+03  0.78878417416E+02 0.  0.
         24    2    4    4    0    0  0.72610975997E+02 -0.30949176648E+03  0.40795547924E+03  0.52331769768E+03  0.79851313736E+02 0.  0.
         11    1    3    3    0    0 -0.85156241090E+01 -0.24161930855E+02 -0.13000946945E+02  0.28728720439E+02  0.00000000000E+00 0. -1.
        -11    1    3    3    0    0  0.13300877714E+03 -0.22974505093E+03  0.63672852814E+02  0.27299881943E+03  0.00000000000E+00 0.  1.
          2    1    6    6  502    0  0.66642368127E+02 -0.31339899635E+03  0.40168367481E+03  0.51381894745E+03  0.00000000000E+00 0. -1.
          1    1    5    5  503    0 -0.15805916040E+03  0.48860941546E+03  0.36911376603E+03  0.63242930936E+03  0.00000000000E+00 0. -1.
         -2    1    5    5    0  503 -0.39044968628E+02  0.74789332805E+02  0.99931685183E+02  0.13078339184E+03  0.00000000000E+00 0.  1.
         -1    1    6    6    0  502  0.59686078694E+01  0.39072298713E+01  0.62718044288E+01  0.94987502314E+01  0.00000000000E+00 0.  1.
<mgrwt>
<rscale>  0 0.12891805E+04</rscale>
<asrwt>0</asrwt>
<pdfrwt beam="1">  1        1 0.19353313E+00 0.12891805E+04</pdfrwt>
<pdfrwt beam="2">  1       -1 0.50814239E-01 0.12891805E+04</pdfrwt>
<totfact> 0.37104279E+01</totfact>
</mgrwt>
</event>
<event>
12    1  0.1536832E-007  0.1374939E+04  0.7818608E-02  0.8972161E-01
          1   -1    0    0  501    0  0.00000000000E+00  0.00000000000E+00  0.18354879168E+04  0.18354879168E+04  0.00000000000E+00 0. -1.
         -1   -1    0    0    0  501 -0.00000000000E+00 -0.00000000000E+00 -0.25748711456E+03  0.25748711456E+03  0.00000000000E+00 0.  1.
         23    2    1    2    0    0  0.24309948083E+03 -0.22964919740E+03  0.66396970593E+03  0.74914321956E+03  0.92323786580E+02 0.  0.
        254    2    1    2    0    0 -0.24309948083E+03  0.22964919740E+03  0.91403109628E+03  0.13438318118E+04  0.92660400490E+03 0.  0.
        -24    2    4    4    0    0 -0.12188209662E+03  0.21240949077E+03  0.10870249668E+04  0.11165584712E+04  0.71459806526E+02 0.  0.
         24    2    4    4    0    0 -0.12121738421E+03  0.17239706629E+02 -0.17299387048E+03  0.22727334059E+03  0.82069667964E+02 0.  0.
         11    1    3    3    0    0  0.58034227482E+02 -0.15730599388E+02  0.16442396703E+03  0.17507331107E+03  0.00000000000E+00 0. -1.
        -11    1    3    3    0    0  0.18506525335E+03 -0.21391859802E+03  0.49954573890E+03  0.57406990849E+03  0.00000000000E+00 0.  1.
          4    1    6    6  502    0 -0.56389384384E+02 -0.27017788284E+02 -0.44666126492E+02  0.76842608042E+02  0.00000000000E+00 0. -1.
          1    1    5    5  503    0 -0.78140961906E+02  0.78817921244E+02  0.38919070065E+03  0.40470690149E+03  0.00000000000E+00 0. -1.
         -2    1    5    5    0  503 -0.43741134717E+02  0.13359156953E+03  0.69783426611E+03  0.71185156969E+03  0.00000000000E+00 0.  1.
         -3    1    6    6    0  502 -0.64827999822E+02  0.44257494913E+02 -0.12832774399E+03  0.15043073255E+03  0.00000000000E+00 0.  1.
<mgrwt>
<rscale>  0 0.13749393E+04</rscale>
<asrwt>0</asrwt>
<pdfrwt beam="1">  1        1 0.28238275E+00 0.13749393E+04</pdfrwt>
<pdfrwt beam="2">  1       -1 0.39613403E-01 0.13749393E+04</pdfrwt>
<totfact> 0.23355415E+01</totfact>
</mgrwt>
</event>
<event>
12    1  0.1536832E-007  0.1941612E+04  0.7818608E-02  0.8634416E-01
          2   -1    0    0  501    0  0.00000000000E+00  0.00000000000E+00  0.33975379948E+04  0.33975379948E+04  0.00000000000E+00 0. -1.
         -2   -1    0    0    0  501 -0.00000000000E+00 -0.00000000000E+00 -0.27739613504E+03  0.27739613504E+03  0.00000000000E+00 0.  1.
         23    2    1    2    0    0  0.83354887495E+02 -0.11701195653E+03 -0.18118603687E+03  0.25022588623E+03  0.95628337556E+02 0.  0.
        254    2    1    2    0    0 -0.83354887495E+02  0.11701195653E+03  0.33013278966E+04  0.34247082436E+04  0.89956702783E+03 0.  0.
        -24    2    4    4    0    0 -0.17045977831E+03 -0.14692421900E+03  0.20547187224E+03  0.31542294202E+03  0.81422846425E+02 0.  0.
         24    2    4    4    0    0  0.87104890814E+02  0.26393617554E+03  0.30958560244E+04  0.31092853016E+04  0.77980742442E+02 0.  0.
         11    1    3    3    0    0  0.53498160211E+02 -0.28249169456E+02 -0.19836075961E+02  0.63667406344E+02  0.00000000000E+00 0. -1.
        -11    1    3    3    0    0  0.29856727284E+02 -0.88762787078E+02 -0.16134996091E+03  0.18655847989E+03  0.00000000000E+00 0.  1.
          2    1    6    6  502    0  0.85470137100E+02  0.25269209411E+03  0.26732111560E+04  0.26864877300E+04  0.00000000000E+00 0. -1.
          3    1    5    5  503    0 -0.13628090861E+03 -0.14730392164E+03  0.15110739669E+03  0.25120584531E+03  0.00000000000E+00 0. -1.
         -4    1    5    5    0  503 -0.34178869697E+02  0.37970264250E+00  0.54364475550E+02  0.64217096709E+02  0.00000000000E+00 0.  1.
         -1    1    6    6    0  502  0.16347537141E+01  0.11244081423E+02  0.42264486841E+03  0.42279757163E+03  0.00000000000E+00 0.  1.
<mgrwt>
<rscale>  0 0.19416116E+04</rscale>
<asrwt>0</asrwt>
<pdfrwt beam="1">  1        2 0.52269812E+00 0.19416116E+04</pdfrwt>
<pdfrwt beam="2">  1       -2 0.42676331E-01 0.19416116E+04</pdfrwt>
<totfact> 0.46758089E+00</totfact>
</mgrwt>
</event>
<event>
12    1  0.1919784E-007  0.1979704E+04  0.7818608E-02  0.8616169E-01
          2   -1    0    0  501    0  0.00000000000E+00  0.00000000000E+00  0.32508597034E+04  0.32508597034E+04  0.00000000000E+00 0. -1.
         -2   -1    0    0    0  501 -0.00000000000E+00 -0.00000000000E+00 -0.30139944823E+03  0.30139944823E+03  0.00000000000E+00 0.  1.
         23    2    1    2    0    0 -0.61218767838E+03 -0.29940253707E+03  0.49010352897E+03  0.84436801692E+03  0.91324947952E+02 0.  0.
        254    2    1    2    0    0  0.61218767838E+03  0.29940253707E+03  0.24593567262E+04  0.27078911347E+04  0.90544091911E+03 0.  0.
        -24    2    4    4    0    0  0.28807499116E+03 -0.29895623595E+03  0.12272748571E+04  0.12980858365E+04  0.80381792520E+02 0.  0.
         24    2    4    4    0    0  0.32411268722E+03  0.59835877302E+03  0.12320818691E+04  0.14098052982E+04  0.80268246333E+02 0.  0.
         11    1    3    3    0    0 -0.24275519765E+01 -0.57860883593E+01 -0.30533661277E+01  0.69781710935E+01  0.00000000000E+00 0. -1.
        -11    1    3    3    0    0 -0.60976012640E+03 -0.29361644871E+03  0.49315689510E+03  0.83738984582E+03  0.00000000000E+00 0.  1.
          4    1    6    6  502    0  0.19040824457E+02  0.15924283570E+02  0.24759654973E+02  0.35059610916E+02  0.00000000000E+00 0. -1.
          1    1    5    5  503    0  0.62051098378E+01  0.51719892919E+01  0.19319788239E+02  0.20940560617E+02  0.00000000000E+00 0. -1.
         -2    1    5    5    0  503  0.28186988132E+03 -0.30412822524E+03  0.12079550689E+04  0.12771452759E+04  0.00000000000E+00 0.  1.
         -3    1    6    6    0  502  0.30507186276E+03  0.58243448945E+03  0.12073222141E+04  0.13747456872E+04  0.00000000000E+00 0.  1.
<mgrwt>
<rscale>  0 0.19797043E+04</rscale>
<asrwt>0</asrwt>
<pdfrwt beam="1">  1        2 0.50013224E+00 0.19797043E+04</pdfrwt>
<pdfrwt beam="2">  1       -2 0.46369148E-01 0.19797043E+04</pdfrwt>
<totfact> 0.49471611E+00</totfact>
</mgrwt>
</event>
<event>
12    1  0.1536832E-007  0.1739489E+04  0.7818608E-02  0.8739157E-01
          2   -1    0    0  501    0  0.00000000000E+00  0.00000000000E+00  0.34344003423E+04  0.34344003423E+04  0.00000000000E+00 0. -1.
         -2   -1    0    0    0  501 -0.00000000000E+00 -0.00000000000E+00 -0.22025848682E+03  0.22025848682E+03  0.00000000000E+00 0.  1.
         23    2    1    2    0    0  0.63053972047E+01  0.17902489742E+01 -0.14303913007E+03  0.17134915325E+03  0.94113636437E+02 0.  0.
        254    2    1    2    0    0 -0.63053972047E+01 -0.17902489742E+01  0.33571809855E+04  0.34833096759E+04  0.92883753438E+03 0.  0.
        -24    2    4    4    0    0 -0.96516851217E+02 -0.34907786911E+03  0.62739378470E+03  0.72882560822E+03  0.79955893120E+02 0.  0.
         24    2    4    4    0    0  0.90211454012E+02  0.34728762014E+03  0.27297872009E+04  0.27544840677E+04  0.81838374226E+02 0.  0.
         13    1    3    3    0    0 -0.28196001685E+02  0.29895367464E+02 -0.10518210953E+03  0.11292485852E+03  0.00000000000E+00 0.  1.
        -13    1    3    3    0    0  0.34501398890E+02 -0.28105118490E+02 -0.37857020543E+02  0.58424294733E+02  0.00000000000E+00 0. -1.
          2    1    6    6  502    0  0.72777607466E+01  0.99234089230E+01  0.29843538567E+02  0.32281211878E+02  0.00000000000E+00 0. -1.
          3    1    5    5  503    0 -0.25181292796E+02 -0.23427458907E+03  0.40721135408E+03  0.47046760514E+03  0.00000000000E+00 0. -1.
         -2    1    5    5    0  503 -0.71335558421E+02 -0.11480328004E+03  0.22018243061E+03  0.25835800308E+03  0.00000000000E+00 0.  1.
         -1    1    6    6    0  502  0.82933693266E+02  0.33736421121E+03  0.26999436623E+04  0.27222028558E+04  0.00000000000E+00 0.  1.
<mgrwt>
<rscale>  0 0.17394894E+04</rscale>
<asrwt>0</asrwt>
<pdfrwt beam="1">  1        2 0.52836924E+00 0.17394894E+04</pdfrwt>
<pdfrwt beam="2">  1       -2 0.33885924E-01 0.17394894E+04</pdfrwt>
<totfact> 0.70398380E+00</totfact>
</mgrwt>
</event>
<event>
12    1  0.1536832E-007  0.2004403E+04  0.7818608E-02  0.8604565E-01
          1   -1    0    0  501    0  0.00000000000E+00  0.00000000000E+00  0.15965645383E+04  0.15965645383E+04  0.00000000000E+00 0. -1.
         -1   -1    0    0    0  501 -0.00000000000E+00 -0.00000000000E+00 -0.62910574340E+03  0.62910574340E+03  0.00000000000E+00 0.  1.
         23    2    1    2    0    0 -0.61290869243E+03 -0.47158528734E+03  0.16643834958E+03  0.79625749736E+03  0.90964440277E+02 0.  0.
        254    2    1    2    0    0  0.61290869243E+03  0.47158528734E+03  0.80102044527E+03  0.14294127843E+04  0.89640247974E+03 0.  0.
        -24    2    4    4    0    0 -0.20855794937E+03  0.66888843235E+02  0.30643033426E+03  0.38536039958E+03  0.81440482619E+02 0.  0.
         24    2    4    4    0    0  0.82146664180E+03  0.40469644410E+03  0.49459011100E+03  0.10440523847E+04  0.82700354734E+02 0.  0.
         13    1    3    3    0    0 -0.23101222709E+03 -0.12409984588E+03  0.49791329969E+02  0.26692058249E+03  0.00000000000E+00 0. -1.
        -13    1    3    3    0    0 -0.38189646534E+03 -0.34748544145E+03  0.11664701961E+03  0.52933691487E+03  0.00000000000E+00 0.  1.
          2    1    6    6  502    0  0.20881288469E+03  0.10313416617E+03  0.16771375095E+03  0.28699717647E+03  0.00000000000E+00 0. -1.
          1    1    5    5  503    0 -0.14944289034E+03  0.38583606655E+02  0.14769089205E+03  0.21362226422E+03  0.00000000000E+00 0. -1.
         -2    1    5    5    0  503 -0.59115059037E+02  0.28305236579E+02  0.15873944221E+03  0.17173813536E+03  0.00000000000E+00 0.  1.
         -1    1    6    6    0  502  0.61265375711E+03  0.30156227793E+03  0.32687636005E+03  0.75705520825E+03  0.00000000000E+00 0.  1.
<mgrwt>
<rscale>  0 0.20044031E+04</rscale>
<asrwt>0</asrwt>
<pdfrwt beam="1">  1        1 0.24562531E+00 0.20044031E+04</pdfrwt>
<pdfrwt beam="2">  1       -1 0.96785500E-01 0.20044031E+04</pdfrwt>
<totfact> 0.53412107E+00</totfact>
</mgrwt>
</event>
<event>
12    1  0.1536832E-007  0.2156660E+04  0.7818608E-02  0.8536687E-01
          2   -1    0    0  501    0  0.00000000000E+00  0.00000000000E+00  0.29910352749E+04  0.29910352749E+04  0.00000000000E+00 0. -1.
         -2   -1    0    0    0  501 -0.00000000000E+00 -0.00000000000E+00 -0.38876016511E+03  0.38876016511E+03  0.00000000000E+00 0.  1.
         23    2    1    2    0    0  0.84643291194E+02 -0.70253230137E+03  0.18458780360E+04  0.19789431531E+04  0.90742262765E+02 0.  0.
        254    2    1    2    0    0 -0.84643291194E+02  0.70253230137E+03  0.75639707373E+03  0.14008522868E+04  0.94315135328E+03 0.  0.
        -24    2    4    4    0    0 -0.48371683641E+03  0.53690558702E+03  0.37041475370E+03  0.81596380203E+03  0.79625682142E+02 0.  0.
         24    2    4    4    0    0  0.39907354522E+03  0.16562671435E+03  0.38598232003E+03  0.58488848482E+03  0.80126682817E+02 0.  0.
         13    1    3    3    0    0  0.64015294442E+02 -0.64766017116E+03  0.17429286027E+04  0.18604735337E+04  0.00000000000E+00 0. -1.
        -13    1    3    3    0    0  0.20627996752E+02 -0.54872130205E+02  0.10294943331E+03  0.11846961949E+03  0.00000000000E+00 0.  1.
          4    1    6    6  502    0  0.34802584430E+03  0.15694958530E+03  0.36747890461E+03  0.52990178897E+03  0.00000000000E+00 0. -1.
          3    1    5    5  503    0 -0.39665429506E+03  0.38997379866E+03  0.28243010018E+03  0.62384369430E+03  0.00000000000E+00 0. -1.
         -4    1    5    5    0  503 -0.87062541350E+02  0.14693178836E+03  0.87984653518E+02  0.19212010772E+03  0.00000000000E+00 0.  1.
         -3    1    6    6    0  502  0.51047700920E+02  0.86771290553E+01  0.18503415419E+02  0.54986695846E+02  0.00000000000E+00 0.  1.
<mgrwt>
<rscale>  0 0.21566598E+04</rscale>
<asrwt>0</asrwt>
<pdfrwt beam="1">  1        2 0.46015926E+00 0.21566598E+04</pdfrwt>
<pdfrwt beam="2">  1       -2 0.59809258E-01 0.21566598E+04</pdfrwt>
<totfact> 0.42247788E+00</totfact>
</mgrwt>
</event>
<event>
12    1  0.1536832E-007  0.1585169E+04  0.7818608E-02  0.8829712E-01
          1   -1    0    0  501    0  0.00000000000E+00  0.00000000000E+00  0.60966592808E+03  0.60966592808E+03  0.00000000000E+00 0. -1.
         -1   -1    0    0    0  501 -0.00000000000E+00 -0.00000000000E+00 -0.10303837178E+04  0.10303837178E+04  0.00000000000E+00 0.  1.
         23    2    1    2    0    0 -0.13383301393E+03 -0.46992745521E+03 -0.37825903165E+03  0.62392732684E+03  0.86384751950E+02 0.  0.
        254    2    1    2    0    0  0.13383301393E+03  0.46992745521E+03 -0.42458758044E+02  0.10161223190E+04  0.88992063258E+03 0.  0.
        -24    2    4    4    0    0  0.36164356436E+03  0.13834935909E+03  0.28807466154E+03  0.48898951204E+03  0.78721785127E+02 0.  0.
         24    2    4    4    0    0 -0.22781055043E+03  0.33157809613E+03 -0.33053341959E+03  0.52713280698E+03  0.82310230329E+02 0.  0.
         13    1    3    3    0    0 -0.78862862387E+02 -0.38866567981E+03 -0.32189832006E+03  0.51078262518E+03  0.00000000000E+00 0.  1.
        -13    1    3    3    0    0 -0.54970151547E+02 -0.81261775401E+02 -0.56360711582E+02  0.11314470165E+03  0.00000000000E+00 0. -1.
          4    1    6    6  502    0 -0.55959923397E+02  0.64070224536E+02 -0.31674770556E+02  0.90773331923E+02  0.00000000000E+00 0. -1.
          3    1    5    5  503    0  0.27836303562E+02  0.21271029711E+02  0.55523680810E+02  0.65652080177E+02  0.00000000000E+00 0. -1.
         -4    1    5    5    0  503  0.33380726080E+03  0.11707832938E+03  0.23255098073E+03  0.42333743186E+03  0.00000000000E+00 0.  1.
         -3    1    6    6    0  502 -0.17185062703E+03  0.26750787159E+03 -0.29885864903E+03  0.43635947506E+03  0.00000000000E+00 0.  1.
<mgrwt>
<rscale>  0 0.15851686E+04</rscale>
<asrwt>0</asrwt>
<pdfrwt beam="1">  1        1 0.93794758E-01 0.15851686E+04</pdfrwt>
<pdfrwt beam="2">  1       -1 0.15852057E+00 0.15851686E+04</pdfrwt>
<totfact> 0.96413519E+00</totfact>
</mgrwt>
</event>
<event>
12    1  0.1536832E-007  0.1148075E+04  0.7818608E-02  0.9159561E-01
          3   -1    0    0  501    0  0.00000000000E+00  0.00000000000E+00  0.38796591450E+03  0.38796591450E+03  0.00000000000E+00 0. -1.
         -3   -1    0    0    0  501 -0.00000000000E+00 -0.00000000000E+00 -0.84935016538E+03  0.84935016538E+03  0.00000000000E+00 0.  1.
         23    2    1    2    0    0 -0.68764025029E+02 -0.26631401978E+02  0.11128083944E+03  0.15924990957E+03  0.86829636439E+02 0.  0.
        254    2    1    2    0    0  0.68764025029E+02  0.26631401978E+02 -0.57266509031E+03  0.10780661703E+04  0.91040850127E+03 0.  0.
        -24    2    4    4    0    0 -0.29944225979E+03 -0.32939493140E+02 -0.61978216572E+03  0.69371549279E+03  0.79753212050E+02 0.  0.
         24    2    4    4    0    0  0.36820628482E+03  0.59570895119E+02  0.47117075407E+02  0.38435067752E+03  0.79880315411E+02 0.  0.
         11    1    3    3    0    0  0.16286563498E+02 -0.44066184692E+01 -0.70014045590E+00  0.16886699901E+02  0.00000000000E+00 0.  1.
        -11    1    3    3    0    0 -0.85050588526E+02 -0.22224783509E+02  0.11198097989E+03  0.14236320967E+03  0.00000000000E+00 0. -1.
          2    1    6    6  502    0  0.98081024752E+02 -0.44638764339E+01 -0.16458738094E+02  0.99552517140E+02  0.00000000000E+00 0. -1.
          1    1    5    5  503    0 -0.27019103349E+03 -0.42121798472E+01 -0.52557938562E+03  0.59097768793E+03  0.00000000000E+00 0. -1.
         -2    1    5    5    0  503 -0.29251226296E+02 -0.28727313293E+02 -0.94202780100E+02  0.10273780486E+03  0.00000000000E+00 0.  1.
         -3    1    6    6    0  502  0.27012526006E+03  0.64034771553E+02  0.63575813500E+02  0.28479816038E+03  0.00000000000E+00 0.  1.
<mgrwt>
<rscale>  0 0.11480748E+04</rscale>
<asrwt>0</asrwt>
<pdfrwt beam="1">  1        3 0.59687064E-01 0.11480748E+04</pdfrwt>
<pdfrwt beam="2">  1       -3 0.13066926E+00 0.11480748E+04</pdfrwt>
<totfact> 0.32638367E+00</totfact>
</mgrwt>
</event>
<event>
12    1  0.1536832E-007  0.1688338E+04  0.7818608E-02  0.8768044E-01
          2   -1    0    0  501    0  0.00000000000E+00  0.00000000000E+00  0.26907795527E+04  0.26907795527E+04  0.00000000000E+00 0. -1.
         -2   -1    0    0    0  501 -0.00000000000E+00 -0.00000000000E+00 -0.26483825465E+03  0.26483825465E+03  0.00000000000E+00 0.  1.
         23    2    1    2    0    0 -0.12978401715E+03 -0.16993842582E+03 -0.10704802794E+03  0.25600996315E+03  0.91426808270E+02 0.  0.
        254    2    1    2    0    0  0.12978401715E+03  0.16993842582E+03  0.25329893260E+04  0.26996078442E+04  0.90891398230E+03 0.  0.
        -24    2    4    4    0    0  0.14989447406E+03  0.37645932348E+03  0.24103302117E+04  0.24454378103E+04  0.79274075798E+02 0.  0.
         24    2    4    4    0    0 -0.20110456916E+02 -0.20652089766E+03  0.12265911433E+03  0.25417003392E+03  0.80633964126E+02 0.  0.
         13    1    3    3    0    0 -0.60656052089E+01 -0.58530835972E+02 -0.57580034852E+02  0.82329282395E+02  0.00000000000E+00 0. -1.
        -13    1    3    3    0    0 -0.12371841194E+03 -0.11140758985E+03 -0.49467993088E+02  0.17368068076E+03  0.00000000000E+00 0.  1.
          2    1    6    6  502    0 -0.49361091062E+02 -0.12004533714E+03  0.57224816830E+02  0.14185231736E+03  0.00000000000E+00 0. -1.
          3    1    5    5  503    0  0.53689433830E+02  0.77493350767E+02  0.41750498812E+03  0.42801657657E+03  0.00000000000E+00 0. -1.
         -4    1    5    5    0  503  0.96205040231E+02  0.29896597271E+03  0.19928252235E+04  0.20174212337E+04  0.00000000000E+00 0.  1.
         -1    1    6    6    0  502  0.29250634146E+02 -0.86475560520E+02  0.65434297495E+02  0.11231771656E+03  0.00000000000E+00 0.  1.
<mgrwt>
<rscale>  0 0.16883381E+04</rscale>
<asrwt>0</asrwt>
<pdfrwt beam="1">  1        2 0.41396607E+00 0.16883381E+04</pdfrwt>
<pdfrwt beam="2">  1       -2 0.40744349E-01 0.16883381E+04</pdfrwt>
<totfact> 0.14649793E+01</totfact>
</mgrwt>
</event>
<event>
12    1  0.1536832E-007  0.1659997E+04  0.7818608E-02  0.8784514E-01
         -2   -1    0    0    0  501 -0.00000000000E+00  0.00000000000E+00  0.27892846731E+03  0.27892846731E+03  0.00000000000E+00 0.  1.
          2   -1    0    0  501    0  0.00000000000E+00 -0.00000000000E+00 -0.24697989572E+04  0.24697989572E+04  0.00000000000E+00 0. -1.
         23    2    1    2    0    0  0.16861012778E+02  0.57298799675E+03 -0.63510926868E+03  0.86034207650E+03  0.90692707890E+02 0.  0.
        254    2    1    2    0    0 -0.16861012778E+02 -0.57298799675E+03 -0.15557612212E+04  0.18883853480E+04  0.90388423315E+03 0.  0.
        -24    2    4    4    0    0  0.31035455312E+03  0.80346702920E+02 -0.40746973388E+03  0.52478807944E+03  0.81212086427E+02 0.  0.
         24    2    4    4    0    0 -0.32721556590E+03 -0.65333469967E+03 -0.11482914873E+04  0.13635972685E+04  0.83113865101E+02 0.  0.
         13    1    3    3    0    0  0.10281835413E+02  0.47883292612E+02 -0.23834067377E+02  0.54466398986E+02  0.00000000000E+00 0.  1.
        -13    1    3    3    0    0  0.65791773651E+01  0.52510470414E+03 -0.61127520130E+03  0.80587567751E+03  0.00000000000E+00 0. -1.
          2    1    6    6  502    0 -0.14124093103E+02 -0.86169116075E+02 -0.14803604146E+03  0.17186993961E+03  0.00000000000E+00 0. -1.
          1    1    5    5  503    0  0.39817604073E+02  0.10322786101E+02 -0.10608980842E+03  0.11378509989E+03  0.00000000000E+00 0. -1.
         -2    1    5    5    0  503  0.27053694905E+03  0.70023916819E+02 -0.30137992546E+03  0.41100297955E+03  0.00000000000E+00 0.  1.
         -1    1    6    6    0  502 -0.31309147280E+03 -0.56716558359E+03 -0.10002554458E+04  0.11917273289E+04  0.00000000000E+00 0.  1.
<mgrwt>
<rscale>  0 0.16599967E+04</rscale>
<asrwt>0</asrwt>
<pdfrwt beam="1">  1        2 0.37996907E+00 0.16599967E+04</pdfrwt>
<pdfrwt beam="2">  1       -2 0.42912072E-01 0.16599967E+04</pdfrwt>
<totfact> 0.17840531E+01</totfact>
</mgrwt>
</event>
<event>
12    1  0.1536832E-007  0.2666620E+04  0.7818608E-02  0.8345918E-01
          1   -1    0    0  501    0  0.00000000000E+00  0.00000000000E+00  0.12474976997E+04  0.12474976997E+04  0.00000000000E+00 0. -1.
         -1   -1    0    0    0  501 -0.00000000000E+00 -0.00000000000E+00 -0.14250246955E+04  0.14250246955E+04  0.00000000000E+00 0.  1.
         23    2    1    2    0    0 -0.16909466582E+03 -0.81278686476E+03  0.76080386820E+03  0.11295363163E+04  0.88398362433E+02 0.  0.
        254    2    1    2    0    0  0.16909466582E+03  0.81278686476E+03 -0.93833086403E+03  0.15429860789E+04  0.90062519156E+03 0.  0.
        -24    2    4    4    0    0  0.49349674898E+03  0.68043954914E+03 -0.51969605168E+03  0.99127669463E+03  0.77514372164E+02 0.  0.
         24    2    4    4    0    0 -0.32440208317E+03  0.13234731561E+03 -0.41863481235E+03  0.55170938424E+03  0.79847448530E+02 0.  0.
         13    1    3    3    0    0 -0.75872254900E+02 -0.18174174257E+03  0.17446101370E+03  0.26310322187E+03  0.00000000000E+00 0.  1.
        -13    1    3    3    0    0 -0.93222410917E+02 -0.63104512219E+03  0.58634285450E+03  0.86643309445E+03  0.00000000000E+00 0. -1.
          2    1    6    6  502    0 -0.69009951101E+02 -0.51909218564E+01 -0.76488238625E+02  0.10314925918E+03  0.00000000000E+00 0. -1.
          1    1    5    5  503    0  0.49444122198E+02  0.38394678036E+02 -0.50935485714E+02  0.80704995052E+02  0.00000000000E+00 0. -1.
         -2    1    5    5    0  503  0.44405262679E+03  0.64204487111E+03 -0.46876056597E+03  0.91057169958E+03  0.00000000000E+00 0.  1.
         -1    1    6    6    0  502 -0.25539213207E+03  0.13753823747E+03 -0.34214657373E+03  0.44856012507E+03  0.00000000000E+00 0.  1.
<mgrwt>
<rscale>  0 0.26666196E+04</rscale>
<asrwt>0</asrwt>
<pdfrwt beam="1">  1        1 0.19192272E+00 0.26666196E+04</pdfrwt>
<pdfrwt beam="2">  1       -1 0.21923457E+00 0.26666196E+04</pdfrwt>
<totfact> 0.96226296E-01</totfact>
</mgrwt>
</event>
<event>
12    1  0.1536832E-007  0.1239656E+04  0.7818608E-02  0.9078837E-01
         -2   -1    0    0    0  501 -0.00000000000E+00  0.00000000000E+00  0.15786391202E+04  0.15786391202E+04  0.00000000000E+00 0.  1.
          2   -1    0    0  501    0  0.00000000000E+00 -0.00000000000E+00 -0.24336587732E+03  0.24336587732E+03  0.00000000000E+00 0. -1.
         23    2    1    2    0    0  0.50325337397E+02  0.19820577172E+03  0.11933398983E+02  0.22495283769E+03  0.92968842340E+02 0.  0.
        254    2    1    2    0    0 -0.50325337397E+02 -0.19820577172E+03  0.13233398439E+04  0.15970521598E+04  0.87036147158E+03 0.  0.
        -24    2    4    4    0    0  0.14037280259E+03  0.30739186593E+03  0.53327154237E+03  0.63648922446E+03  0.80905574670E+02 0.  0.
         24    2    4    4    0    0 -0.19069813999E+03 -0.50559763765E+03  0.79006830152E+03  0.96056293536E+03  0.80489004939E+02 0.  0.
         13    1    3    3    0    0  0.16941969999E+02 -0.49100185950E+01 -0.52286007044E+01  0.18397741584E+02  0.00000000000E+00 0.  1.
        -13    1    3    3    0    0  0.33383367398E+02  0.20311579031E+03  0.17161999687E+02  0.20655509611E+03  0.00000000000E+00 0. -1.
          4    1    6    6  502    0 -0.13936836166E+03 -0.39006399770E+03  0.65972618188E+03  0.77898144881E+03  0.00000000000E+00 0. -1.
          3    1    5    5  503    0  0.14040790627E+03  0.25727961437E+03  0.41526863522E+03  0.50828655256E+03  0.00000000000E+00 0. -1.
         -2    1    5    5    0  503 -0.35103678198E-01  0.50112251555E+02  0.11800290714E+03  0.12820267190E+03  0.00000000000E+00 0.  1.
         -3    1    6    6    0  502 -0.51329778326E+02 -0.11553363994E+03  0.13034211964E+03  0.18158148654E+03  0.00000000000E+00 0.  1.
<mgrwt>
<rscale>  0 0.12396562E+04</rscale>
<asrwt>0</asrwt>
<pdfrwt beam="1">  1        2 0.37440905E-01 0.12396562E+04</pdfrwt>
<pdfrwt beam="2">  1       -2 0.24286755E+00 0.12396562E+04</pdfrwt>
<totfact> 0.97250643E+00</totfact>
</mgrwt>
</event>
<event>
12    1  0.1536832E-007  0.1325079E+04  0.7818608E-02  0.9009910E-01
          2   -1    0    0  501    0  0.00000000000E+00  0.00000000000E+00  0.15207996234E+04  0.15207996234E+04  0.00000000000E+00 0. -1.
         -2   -1    0    0    0  501 -0.00000000000E+00 -0.00000000000E+00 -0.28863678481E+03  0.28863678481E+03  0.00000000000E+00 0.  1.
         23    2    1    2    0    0  0.26691583881E+03 -0.23943681531E+03  0.31782722080E+03  0.48748660175E+03  0.89749602070E+02 0.  0.
        254    2    1    2    0    0 -0.26691583881E+03  0.23943681531E+03  0.91433561783E+03  0.13219498065E+04  0.88485457299E+03 0.  0.
        -24    2    4    4    0    0  0.16262065574E+03 -0.12417276317E+03  0.66583428642E+03  0.70132111755E+03  0.81557710636E+02 0.  0.
         24    2    4    4    0    0 -0.42953649456E+03  0.36360957848E+03  0.24850133141E+03  0.62062868895E+03  0.81936146575E+02 0.  0.
         11    1    3    3    0    0  0.48249342542E+02 -0.17976961285E+02  0.82743868588E+02  0.97456236238E+02  0.00000000000E+00 0. -1.
        -11    1    3    3    0    0  0.21866649627E+03 -0.22145985402E+03  0.23508335221E+03  0.39003036551E+03  0.00000000000E+00 0.  1.
          4    1    6    6  502    0 -0.16741547052E+03  0.16297521813E+03  0.14370725112E+03  0.27430026525E+03  0.00000000000E+00 0. -1.
          3    1    5    5  503    0  0.30015289570E+01 -0.20396741002E+02  0.23008294281E+02  0.30893653480E+02  0.00000000000E+00 0. -1.
         -4    1    5    5    0  503  0.15961912679E+03 -0.10377602217E+03  0.64282599214E+03  0.67042746407E+03  0.00000000000E+00 0.  1.
         -3    1    6    6    0  502 -0.26212102404E+03  0.20063436035E+03  0.10479408029E+03  0.34632842370E+03  0.00000000000E+00 0.  1.
<mgrwt>
<rscale>  0 0.13250792E+04</rscale>
<asrwt>0</asrwt>
<pdfrwt beam="1">  1        2 0.23396917E+00 0.13250792E+04</pdfrwt>
<pdfrwt beam="2">  1       -2 0.44405660E-01 0.13250792E+04</pdfrwt>
<totfact> 0.58123360E+01</totfact>
</mgrwt>
</event>
<event>
12    1  0.1536832E-007  0.2285964E+04  0.7818608E-02  0.8483476E-01
         -2   -1    0    0    0  501 -0.00000000000E+00  0.00000000000E+00  0.36758540951E+03  0.36758540951E+03  0.00000000000E+00 0. -1.
          2   -1    0    0  501    0  0.00000000000E+00 -0.00000000000E+00 -0.35540244511E+04  0.35540244511E+04  0.00000000000E+00 0.  1.
         23    2    1    2    0    0 -0.67777791921E+03  0.60388234058E+03 -0.18939110739E+04  0.21023834238E+04  0.95184639766E+02 0.  0.
        254    2    1    2    0    0  0.67777791921E+03 -0.60388234058E+03 -0.12925279677E+04  0.18192264369E+04  0.90271783646E+03 0.  0.
        -24    2    4    4    0    0  0.88100896097E+03 -0.57777674619E+03 -0.11160523760E+04  0.15367204685E+04  0.77033333174E+02 0.  0.
         24    2    4    4    0    0 -0.20323104176E+03 -0.26105594385E+02 -0.17647559168E+03  0.28250596840E+03  0.81741233962E+02 0.  0.
         13    1    3    3    0    0 -0.36850927119E+03  0.33509104498E+03 -0.11465879743E+04  0.12500996257E+04  0.00000000000E+00 0.  1.
        -13    1    3    3    0    0 -0.30926864802E+03  0.26879129560E+03 -0.74732309959E+03  0.85228379805E+03  0.00000000000E+00 0. -1.
          2    1    6    6  502    0 -0.82888906925E+02  0.27355860554E+02 -0.87423433888E+02  0.12353853970E+03  0.00000000000E+00 0. -1.
          1    1    5    5  503    0  0.67824260540E+03 -0.47864368724E+03 -0.85683893617E+03  0.11930154122E+04  0.00000000000E+00 0. -1.
         -2    1    5    5    0  503  0.20276635556E+03 -0.99133058953E+02 -0.25921343987E+03  0.34370505631E+03  0.00000000000E+00 0.  1.
         -3    1    6    6    0  502 -0.12034213484E+03 -0.53461454939E+02 -0.89052157794E+02  0.15896742870E+03  0.00000000000E+00 0.  1.
<mgrwt>
<rscale>  0 0.22859637E+04</rscale>
<asrwt>0</asrwt>
<pdfrwt beam="1">  1        2 0.54677299E+00 0.22859637E+04</pdfrwt>
<pdfrwt beam="2">  1       -2 0.56551602E-01 0.22859637E+04</pdfrwt>
<totfact> 0.19889122E+00</totfact>
</mgrwt>
</event>
<event>
12    1  0.1536832E-007  0.1389440E+04  0.7818608E-02  0.8961498E-01
         -1   -1    0    0    0  501 -0.00000000000E+00  0.00000000000E+00  0.35233134498E+03  0.35233134498E+03  0.00000000000E+00 0.  1.
          1   -1    0    0  501    0  0.00000000000E+00 -0.00000000000E+00 -0.13698356148E+04  0.13698356148E+04  0.00000000000E+00 0. -1.
         23    2    1    2    0    0 -0.38124887419E+03 -0.45617675671E+02 -0.40652864339E+03  0.56684577953E+03  0.92827385369E+02 0.  0.
        254    2    1    2    0    0  0.38124887419E+03  0.45617675671E+02 -0.61097562640E+03  0.11553211802E+04  0.90224394540E+03 0.  0.
        -24    2    4    4    0    0  0.12815501128E+03 -0.10475821569E+03  0.21028246265E+03  0.27928179828E+03  0.79885030422E+02 0.  0.
         24    2    4    4    0    0  0.25309386291E+03  0.15037589136E+03 -0.82125808905E+03  0.87603938194E+03  0.79440151889E+02 0.  0.
         13    1    3    3    0    0  0.38430454029E+01 -0.44368275182E+01 -0.76112304253E+00  0.59189310421E+01  0.00000000000E+00 0. -1.
        -13    1    3    3    0    0 -0.38509191960E+03 -0.41180848153E+02 -0.40576752035E+03  0.56092684849E+03  0.00000000000E+00 0.  1.
          4    1    6    6  502    0  0.13498641203E+03  0.11471712879E+03 -0.40897263711E+03  0.44569044075E+03  0.00000000000E+00 0. -1.
          1    1    5    5  503    0  0.11714868001E+03 -0.10238049918E+03  0.14381951129E+03  0.21187173400E+03  0.00000000000E+00 0. -1.
         -2    1    5    5    0  503  0.11006331275E+02 -0.23777165072E+01  0.66462951359E+02  0.67410064288E+02  0.00000000000E+00 0.  1.
         -3    1    6    6    0  502  0.11810745088E+03  0.35658762571E+02 -0.41228545194E+03  0.43034894119E+03  0.00000000000E+00 0.  1.
<mgrwt>
<rscale>  0 0.13894402E+04</rscale>
<asrwt>0</asrwt>
<pdfrwt beam="1">  1        1 0.21074394E+00 0.13894402E+04</pdfrwt>
<pdfrwt beam="2">  1       -1 0.54204822E-01 0.13894402E+04</pdfrwt>
<totfact> 0.27057452E+01</totfact>
</mgrwt>
</event>
<event>
12    1  0.1536832E-007  0.1185642E+04  0.7818608E-02  0.9125517E-01
         -2   -1    0    0    0  501 -0.00000000000E+00  0.00000000000E+00  0.12557356076E+04  0.12557356076E+04  0.00000000000E+00 0.  1.
          2   -1    0    0  501    0  0.00000000000E+00 -0.00000000000E+00 -0.27986538185E+03  0.27986538185E+03  0.00000000000E+00 0. -1.
         23    2    1    2    0    0  0.10221737603E+03  0.12237466964E+02 -0.61618541236E+02  0.15054823176E+03  0.90938319218E+02 0.  0.
        254    2    1    2    0    0 -0.10221737603E+03 -0.12237466964E+02  0.10374887670E+04  0.13850527577E+04  0.91180592911E+03 0.  0.
        -24    2    4    4    0    0 -0.17004224394E+03 -0.32601314110E+03  0.97730925137E+02  0.38880842090E+03  0.80135644637E+02 0.  0.
         24    2    4    4    0    0  0.67824867901E+02  0.31377567414E+03  0.93975784185E+03  0.99624433678E+03  0.79388858495E+02 0.  0.
         11    1    3    3    0    0  0.10517098362E+03 -0.44945636034E+01 -0.22141894954E+02  0.10757044394E+03  0.00000000000E+00 0. -1.
        -11    1    3    3    0    0 -0.29536075824E+01  0.16732030568E+02 -0.39476646283E+02  0.42977787826E+02  0.00000000000E+00 0.  1.
          4    1    6    6  502    0  0.66618571330E+02  0.31774799269E+03  0.93576765790E+03  0.99048620913E+03  0.00000000000E+00 0. -1.
          1    1    5    5  503    0 -0.16852616342E+03 -0.32637747623E+03  0.10447385062E+03  0.38188756227E+03  0.00000000000E+00 0. -1.
         -2    1    5    5    0  503 -0.15160805146E+01  0.36433513165E+00 -0.67429254806E+01  0.69208586355E+01  0.00000000000E+00 0.  1.
         -3    1    6    6    0  502  0.12062965709E+01 -0.39723185476E+01  0.39901839531E+01  0.57581276506E+01  0.00000000000E+00 0.  1.
<mgrwt>
<rscale>  0 0.11856423E+04</rscale>
<asrwt>0</asrwt>
<pdfrwt beam="1">  1        2 0.43056213E-01 0.11856423E+04</pdfrwt>
<pdfrwt beam="2">  1       -2 0.19319009E+00 0.11856423E+04</pdfrwt>
<totfact> 0.17277818E+01</totfact>
</mgrwt>
</event>
<event>
12    1  0.1536832E-007  0.1462199E+04  0.7818608E-02  0.8909987E-01
         -2   -1    0    0    0  501 -0.00000000000E+00  0.00000000000E+00  0.52898327858E+03  0.52898327858E+03  0.00000000000E+00 0.  1.
          2   -1    0    0  501    0  0.00000000000E+00 -0.00000000000E+00 -0.10104404873E+04  0.10104404873E+04  0.00000000000E+00 0. -1.
         23    2    1    2    0    0  0.26008893421E+03 -0.14990087842E+03 -0.49191219939E+03  0.58341370521E+03  0.90980286164E+02 0.  0.
        254    2    1    2    0    0 -0.26008893421E+03  0.14990087842E+03  0.10454990707E+02  0.95601006063E+03  0.90759539562E+03 0.  0.
        -24    2    4    4    0    0 -0.29002401579E+03 -0.25950409420E+02 -0.40014638841E+03  0.50136812792E+03  0.80408420246E+02 0.  0.
         24    2    4    4    0    0  0.29935081578E+02  0.17585128784E+03  0.41060137912E+03  0.45464193272E+03  0.79284361074E+02 0.  0.
         13    1    3    3    0    0  0.25592173268E+03 -0.14350583586E+03 -0.49479914382E+03  0.57525303207E+03  0.00000000000E+00 0. -1.
        -13    1    3    3    0    0  0.41672015325E+01 -0.63950425586E+01  0.28869444306E+01  0.81606731391E+01  0.00000000000E+00 0.  1.
          4    1    6    6  502    0  0.15993820400E+01  0.16179410368E+03  0.31817155042E+03  0.35694961200E+03  0.00000000000E+00 0. -1.
          1    1    5    5  503    0 -0.20158909650E+03 -0.45137333385E+02 -0.31765207712E+03  0.37891738518E+03  0.00000000000E+00 0. -1.
         -2    1    5    5    0  503 -0.88434919290E+02  0.19186923965E+02 -0.82494311292E+02  0.12245074274E+03  0.00000000000E+00 0.  1.
         -3    1    6    6    0  502  0.28335699538E+02  0.14057184151E+02  0.92429828694E+02  0.97692320716E+02  0.00000000000E+00 0.  1.
<mgrwt>
<rscale>  0 0.14621985E+04</rscale>
<asrwt>0</asrwt>
<pdfrwt beam="1">  1        2 0.15545238E+00 0.14621985E+04</pdfrwt>
<pdfrwt beam="2">  1       -2 0.81382044E-01 0.14621985E+04</pdfrwt>
<totfact> 0.31967750E+01</totfact>
</mgrwt>
</event>
<event>
12    1  0.1536832E-007  0.1688446E+04  0.7818608E-02  0.8767982E-01
         -1   -1    0    0    0  501 -0.00000000000E+00  0.00000000000E+00  0.15644863354E+04  0.15644863354E+04  0.00000000000E+00 0.  1.
          1   -1    0    0  501    0  0.00000000000E+00 -0.00000000000E+00 -0.45555683168E+03  0.45555683168E+03  0.00000000000E+00 0. -1.
         23    2    1    2    0    0 -0.16001239014E+03 -0.32233534847E+03  0.98338850850E+03  0.10510733385E+04  0.90543704696E+02 0.  0.
        254    2    1    2    0    0  0.16001239014E+03  0.32233534847E+03  0.12554099526E+03  0.96896982858E+03  0.89086359525E+03 0.  0.
        -24    2    4    4    0    0  0.44946658745E+03  0.25613836652E+03 -0.16281597885E+03  0.54815397741E+03  0.79603165376E+02 0.  0.
         24    2    4    4    0    0 -0.28945419731E+03  0.66196981949E+02  0.28835697411E+03  0.42081585118E+03  0.75963565759E+02 0.  0.
         13    1    3    3    0    0 -0.91795824780E+02 -0.16431302142E+03  0.63786046777E+03  0.66504978671E+03  0.00000000000E+00 0.  1.
        -13    1    3    3    0    0 -0.68216565357E+02 -0.15802232705E+03  0.34552804073E+03  0.38602355183E+03  0.00000000000E+00 0. -1.
          2    1    6    6  502    0 -0.29086076418E+03  0.70642548835E+02  0.27425590382E+03  0.40596385876E+03  0.00000000000E+00 0. -1.
          3    1    5    5  503    0  0.39350654060E+03  0.22137893426E+03 -0.16875364211E+03  0.48201018844E+03  0.00000000000E+00 0. -1.
         -4    1    5    5    0  503  0.55960046846E+02  0.34759432263E+02  0.59376632566E+01  0.66143788970E+02  0.00000000000E+00 0.  1.
         -1    1    6    6    0  502  0.14065668629E+01 -0.44455668863E+01  0.14101070292E+02  0.14851992414E+02  0.00000000000E+00 0.  1.
<mgrwt>
<rscale>  0 0.16884460E+04</rscale>
<asrwt>0</asrwt>
<pdfrwt beam="1">  1        1 0.70085667E-01 0.16884460E+04</pdfrwt>
<pdfrwt beam="2">  1       -1 0.24069020E+00 0.16884460E+04</pdfrwt>
<totfact> 0.38488274E+00</totfact>
</mgrwt>
</event>
<event>
12    1  0.1536832E-007  0.1948403E+04  0.7818608E-02  0.8631131E-01
          2   -1    0    0  501    0  0.00000000000E+00  0.00000000000E+00  0.31855414449E+04  0.31855414449E+04  0.00000000000E+00 0. -1.
         -2   -1    0    0    0  501 -0.00000000000E+00 -0.00000000000E+00 -0.29792998326E+03  0.29792998326E+03  0.00000000000E+00 0.  1.
         23    2    1    2    0    0 -0.62686646845E+03  0.13495645438E+02  0.18975133578E+04  0.20004266194E+04  0.89476337480E+02 0.  0.
        254    2    1    2    0    0  0.62686646845E+03 -0.13495645438E+02  0.99009810383E+03  0.14830448087E+04  0.90883659023E+03 0.  0.
        -24    2    4    4    0    0  0.47061541319E+03  0.39787598032E+03  0.38692506601E+03  0.73217338443E+03  0.81133811133E+02 0.  0.
         24    2    4    4    0    0  0.15625105525E+03 -0.41137162576E+03  0.60317303782E+03  0.75087142428E+03  0.79681713739E+02 0.  0.
         11    1    3    3    0    0 -0.72938516647E+02  0.31386133212E+01  0.32719832827E+03  0.33524412616E+03  0.00000000000E+00 0.  1.
        -11    1    3    3    0    0 -0.55392795180E+03  0.10357032116E+02  0.15703150295E+04  0.16651824932E+04  0.00000000000E+00 0. -1.
          4    1    6    6  502    0  0.54356671117E+02 -0.63841685334E+02  0.92924899701E+02  0.12516167730E+03  0.00000000000E+00 0. -1.
          3    1    5    5  503    0  0.14022488073E+03  0.12535232894E+03  0.16297465716E+03  0.24887137726E+03  0.00000000000E+00 0. -1.
         -4    1    5    5    0  503  0.33039053246E+03  0.27252365139E+03  0.22395040885E+03  0.48330200717E+03  0.00000000000E+00 0.  1.
         -3    1    6    6    0  502  0.10189438414E+03 -0.34752994043E+03  0.51024813812E+03  0.62570974698E+03  0.00000000000E+00 0.  1.
<mgrwt>
<rscale>  0 0.19484027E+04</rscale>
<asrwt>0</asrwt>
<pdfrwt beam="1">  1        2 0.49008327E+00 0.19484027E+04</pdfrwt>
<pdfrwt beam="2">  1       -2 0.45835384E-01 0.19484027E+04</pdfrwt>
<totfact> 0.56018068E+00</totfact>
</mgrwt>
</event>
<event>
12    1  0.1536832E-007  0.1570639E+04  0.7818608E-02  0.8838791E-01
         -2   -1    0    0    0  501 -0.00000000000E+00  0.00000000000E+00  0.49029138945E+03  0.49029138945E+03  0.00000000000E+00 0.  1.
          2   -1    0    0  501    0  0.00000000000E+00 -0.00000000000E+00 -0.12578785462E+04  0.12578785462E+04  0.00000000000E+00 0. -1.
         23    2    1    2    0    0 -0.50145148879E+03  0.12404469170E+03 -0.27726742256E+03  0.59308692869E+03  0.89633700252E+02 0.  0.
        254    2    1    2    0    0  0.50145148879E+03 -0.12404469170E+03 -0.49031973417E+03  0.11550830069E+04  0.90937485674E+03 0.  0.
        -24    2    4    4    0    0  0.54616065341E+03 -0.67069394851E+02  0.91155534600E+02  0.56354594366E+03  0.80529100801E+02 0.  0.
         24    2    4    4    0    0 -0.44709164615E+02 -0.56975296850E+02 -0.58147526877E+03  0.59153706329E+03  0.80978486014E+02 0.  0.
         13    1    3    3    0    0 -0.36791751875E+03  0.11331626956E+03 -0.16723701838E+03  0.41972860025E+03  0.00000000000E+00 0.  1.
        -13    1    3    3    0    0 -0.13353397005E+03  0.10728422139E+02 -0.11003040418E+03  0.17335832844E+03  0.00000000000E+00 0. -1.
          4    1    6    6  502    0  0.10186393743E+02  0.14479125359E+02 -0.71255200228E+02  0.73421463130E+02  0.00000000000E+00 0. -1.
          3    1    5    5  503    0  0.61925237868E+02 -0.33447385819E+02  0.18168068709E+02  0.72687973034E+02  0.00000000000E+00 0. -1.
         -4    1    5    5    0  503  0.48423541554E+03 -0.33622009031E+02  0.72987465891E+02  0.49085797063E+03  0.00000000000E+00 0.  1.
         -3    1    6    6    0  502 -0.54895558358E+02 -0.71454422209E+02 -0.51022006854E+03  0.51811560016E+03  0.00000000000E+00 0.  1.
<mgrwt>
<rscale>  0 0.15706394E+04</rscale>
<asrwt>0</asrwt>
<pdfrwt beam="1">  1        2 0.19351978E+00 0.15706394E+04</pdfrwt>
<pdfrwt beam="2">  1       -2 0.75429445E-01 0.15706394E+04</pdfrwt>
<totfact> 0.26519154E+01</totfact>
</mgrwt>
</event>
<event>
12    1  0.1536832E-007  0.2459643E+04  0.7818608E-02  0.8417506E-01
         -2   -1    0    0    0  501 -0.00000000000E+00  0.00000000000E+00  0.65595315142E+03  0.65595315142E+03  0.00000000000E+00 0.  1.
          2   -1    0    0  501    0  0.00000000000E+00 -0.00000000000E+00 -0.23057449042E+04  0.23057449042E+04  0.00000000000E+00 0. -1.
         23    2    1    2    0    0 -0.32191443914E+03  0.34786130690E+03 -0.18553327516E+04  0.19172068741E+04  0.93734646186E+02 0.  0.
        254    2    1    2    0    0  0.32191443914E+03 -0.34786130690E+03  0.20554099884E+03  0.10444911815E+04  0.90778760241E+03 0.  0.
        -24    2    4    4    0    0  0.50372105448E+03 -0.52846147779E+03  0.54346603236E+02  0.73642861091E+03  0.79794181829E+02 0.  0.
         24    2    4    4    0    0 -0.18180661535E+03  0.18060017089E+03  0.15119439560E+03  0.30806257060E+03  0.79829412084E+02 0.  0.
         11    1    3    3    0    0 -0.30506297902E+03  0.35124998015E+03 -0.17671137877E+04  0.18273289546E+04  0.00000000000E+00 0. -1.
        -11    1    3    3    0    0 -0.16851460117E+02 -0.33886732468E+01 -0.88218963878E+02  0.89877919436E+02  0.00000000000E+00 0.  1.
          4    1    6    6  502    0 -0.14739727873E+03  0.12604528447E+03  0.74272163372E+02  0.20767697457E+03  0.00000000000E+00 0. -1.
          3    1    5    5  503    0  0.12037627963E+03 -0.10604880774E+03  0.42152829085E+02  0.16587241881E+03  0.00000000000E+00 0. -1.
         -4    1    5    5    0  503  0.38334477485E+03 -0.42241267005E+03  0.12193774151E+02  0.57055619211E+03  0.00000000000E+00 0.  1.
         -1    1    6    6    0  502 -0.34409336612E+02  0.54554886418E+02  0.76922232233E+02  0.10038559603E+03  0.00000000000E+00 0.  1.
<mgrwt>
<rscale>  0 0.24596428E+04</rscale>
<asrwt>0</asrwt>
<pdfrwt beam="1">  1        2 0.35472999E+00 0.24596428E+04</pdfrwt>
<pdfrwt beam="2">  1       -2 0.10091587E+00 0.24596428E+04</pdfrwt>
<totfact> 0.32540700E+00</totfact>
</mgrwt>
</event>
<event>
12    1  0.1536832E-007  0.2385338E+04  0.7818608E-02  0.8445013E-01
          1   -1    0    0  501    0  0.00000000000E+00  0.00000000000E+00  0.11001023165E+04  0.11001023165E+04  0.00000000000E+00 0. -1.
         -1   -1    0    0    0  501 -0.00000000000E+00 -0.00000000000E+00 -0.12930248191E+04  0.12930248191E+04  0.00000000000E+00 0.  1.
         23    2    1    2    0    0  0.56442277830E+03 -0.34178261952E+03  0.72157178874E+03  0.98281441598E+03  0.99347361779E+02 0.  0.
        254    2    1    2    0    0 -0.56442277830E+03  0.34178261952E+03 -0.91449429139E+03  0.14103127196E+04  0.84693194913E+03 0.  0.
        -24    2    4    4    0    0 -0.20162269562E+03 -0.23675300138E+03 -0.53772765086E+03  0.62645098398E+03  0.81154875274E+02 0.  0.
         24    2    4    4    0    0 -0.36280008268E+03  0.57853562090E+03 -0.37676664053E+03  0.78386173563E+03  0.78477732724E+02 0.  0.
         13    1    3    3    0    0  0.10035350881E+03 -0.10869585644E+03  0.15665425618E+03  0.21546733376E+03  0.00000000000E+00 0.  1.
        -13    1    3    3    0    0  0.46406926949E+03 -0.23308676308E+03  0.56491753256E+03  0.76734708223E+03  0.00000000000E+00 0. -1.
          4    1    6    6  502    0 -0.27456406443E+03  0.46158672779E+03 -0.26095929943E+03  0.59711597593E+03  0.00000000000E+00 0. -1.
          3    1    5    5  503    0 -0.64592520940E+02 -0.69623692196E+02 -0.24358772966E+03  0.26144719221E+03  0.00000000000E+00 0. -1.
         -4    1    5    5    0  503 -0.13703017468E+03 -0.16712930918E+03 -0.29413992121E+03  0.36500379177E+03  0.00000000000E+00 0.  1.
         -3    1    6    6    0  502 -0.88236018253E+02  0.11694889310E+03 -0.11580734109E+03  0.18674575970E+03  0.00000000000E+00 0.  1.
<mgrwt>
<rscale>  0 0.23853382E+04</rscale>
<asrwt>0</asrwt>
<pdfrwt beam="1">  1        1 0.16924651E+00 0.23853382E+04</pdfrwt>
<pdfrwt beam="2">  1       -1 0.19892690E+00 0.23853382E+04</pdfrwt>
<totfact> 0.17413336E+00</totfact>
</mgrwt>
</event>
<event>
12    1  0.1536832E-007  0.1937232E+04  0.7818608E-02  0.8636542E-01
          1   -1    0    0  501    0  0.00000000000E+00  0.00000000000E+00  0.28916706125E+04  0.28916706125E+04  0.00000000000E+00 0. -1.
         -1   -1    0    0    0  501 -0.00000000000E+00 -0.00000000000E+00 -0.32445494896E+03  0.32445494896E+03  0.00000000000E+00 0.  1.
         23    2    1    2    0    0  0.29906571170E+03  0.45684114820E+03  0.18845353616E+04  0.19642188525E+04  0.92401497036E+02 0.  0.
        254    2    1    2    0    0 -0.29906571170E+03 -0.45684114820E+03  0.68268030196E+03  0.12519067090E+04  0.89614389401E+03 0.  0.
        -24    2    4    4    0    0 -0.51751158638E+03  0.14388604321E+02  0.35041103665E+03  0.63022025897E+03  0.79777228809E+02 0.  0.
         24    2    4    4    0    0  0.21844587468E+03 -0.47122975252E+03  0.33226926531E+03  0.62168645004E+03  0.79467588817E+02 0.  0.
         11    1    3    3    0    0  0.14061700579E+03  0.15392680339E+03  0.82299389532E+03  0.84899090387E+03  0.00000000000E+00 0. -1.
        -11    1    3    3    0    0  0.15844870591E+03  0.30291434481E+03  0.10615414663E+04  0.11152279486E+04  0.00000000000E+00 0.  1.
          2    1    6    6  502    0  0.17912028870E+03 -0.42866967371E+03  0.31468039246E+03  0.56112878770E+03  0.00000000000E+00 0. -1.
          1    1    5    5  503    0 -0.28934188386E+03 -0.15947900455E+02  0.15704132048E+03  0.32959829736E+03  0.00000000000E+00 0. -1.
         -2    1    5    5    0  503 -0.22816970252E+03  0.30336504777E+02  0.19336971617E+03  0.30062196161E+03  0.00000000000E+00 0.  1.
         -1    1    6    6    0  502  0.39325585974E+02 -0.42560078809E+02  0.17588872850E+02  0.60557662344E+02  0.00000000000E+00 0.  1.
<mgrwt>
<rscale>  0 0.19372319E+04</rscale>
<asrwt>0</asrwt>
<pdfrwt beam="1">  1        1 0.44487238E+00 0.19372319E+04</pdfrwt>
<pdfrwt beam="2">  1       -1 0.49916148E-01 0.19372319E+04</pdfrwt>
<totfact> 0.26950700E+00</totfact>
</mgrwt>
</event>
<event>
12    1  0.1536832E-007  0.1114741E+04  0.7818608E-02  0.9190942E-01
         -1   -1    0    0    0  501 -0.00000000000E+00  0.00000000000E+00  0.24222946750E+03  0.24222946750E+03  0.00000000000E+00 0.  1.
          1   -1    0    0  501    0  0.00000000000E+00 -0.00000000000E+00 -0.12825115299E+04  0.12825115299E+04  0.00000000000E+00 0. -1.
         23    2    1    2    0    0 -0.56786427103E+02  0.20475989388E+03 -0.16969757203E+03  0.28706713491E+03  0.91972613033E+02 0.  0.
        254    2    1    2    0    0  0.56786427103E+02 -0.20475989388E+03 -0.87058449034E+03  0.12376738625E+04  0.85367905126E+03 0.  0.
        -24    2    4    4    0    0 -0.34361372454E+03  0.58298114198E+02 -0.20042595741E+03  0.41013401905E+03  0.81057309168E+02 0.  0.
         24    2    4    4    0    0  0.40040015164E+03 -0.26305800808E+03 -0.67015853293E+03  0.82753984341E+03  0.78676147101E+02 0.  0.
         11    1    3    3    0    0 -0.66290845494E+02  0.18217416212E+03 -0.17592380602E+03  0.26178442862E+03  0.00000000000E+00 0. -1.
        -11    1    3    3    0    0  0.95044183915E+01  0.22585731757E+02  0.62262339875E+01  0.25282706296E+02  0.00000000000E+00 0.  1.
          2    1    6    6  502    0  0.27463803712E+03 -0.19356631272E+03 -0.52485911577E+03  0.62319423960E+03  0.00000000000E+00 0. -1.
          3    1    5    5  503    0 -0.24338937986E+03  0.44952578084E+02 -0.18234074775E+03  0.30742035195E+03  0.00000000000E+00 0. -1.
         -4    1    5    5    0  503 -0.10022434468E+03  0.13345536115E+02 -0.18085209662E+02  0.10271366710E+03  0.00000000000E+00 0.  1.
         -1    1    6    6    0  502  0.12576211452E+03 -0.69491695360E+02 -0.14529941715E+03  0.20434560381E+03  0.00000000000E+00 0.  1.
<mgrwt>
<rscale>  0 0.11147414E+04</rscale>
<asrwt>0</asrwt>
<pdfrwt beam="1">  1        1 0.19730947E+00 0.11147414E+04</pdfrwt>
<pdfrwt beam="2">  1       -1 0.37266072E-01 0.11147414E+04</pdfrwt>
<totfact> 0.64188245E+01</totfact>
</mgrwt>
</event>
<event>
12    1  0.1536832E-007  0.1776368E+04  0.7818608E-02  0.8718969E-01
          2   -1    0    0  501    0  0.00000000000E+00  0.00000000000E+00  0.87127260213E+03  0.87127260213E+03  0.00000000000E+00 0. -1.
         -2   -1    0    0    0  501 -0.00000000000E+00 -0.00000000000E+00 -0.90542326990E+03  0.90542326990E+03  0.00000000000E+00 0.  1.
         23    2    1    2    0    0  0.13235744126E+03  0.51547646446E+03 -0.39300858812E+03  0.66759502483E+03  0.89402959508E+02 0.  0.
        254    2    1    2    0    0 -0.13235744126E+03 -0.51547646446E+03  0.35885792034E+03  0.11091008472E+04  0.90448394380E+03 0.  0.
        -24    2    4    4    0    0 -0.44670910579E+03 -0.76960758116E+02  0.32224109230E+03  0.56206232066E+03  0.81257290455E+02 0.  0.
         24    2    4    4    0    0  0.31435166452E+03 -0.43851570635E+03  0.36616828036E+02  0.54703852654E+03  0.82446126188E+02 0.  0.
         11    1    3    3    0    0  0.14070597479E+03  0.40401305518E+03 -0.30735855411E+03  0.52677699350E+03  0.00000000000E+00 0.  1.
        -11    1    3    3    0    0 -0.83485335306E+01  0.11146340929E+03 -0.85650034010E+02  0.14081803133E+03  0.00000000000E+00 0. -1.
          4    1    6    6  502    0  0.15279868406E+03 -0.26521368425E+03 -0.68618238020E+01  0.30615816303E+03  0.00000000000E+00 0. -1.
          3    1    5    5  503    0 -0.35099363262E+03 -0.27690428637E+02  0.26034479887E+03  0.43788435035E+03  0.00000000000E+00 0. -1.
         -4    1    5    5    0  503 -0.95715473162E+02 -0.49270329478E+02  0.61896293436E+02  0.12417797031E+03  0.00000000000E+00 0.  1.
         -3    1    6    6    0  502  0.16155298046E+03 -0.17330202210E+03  0.43478651838E+02  0.24088036351E+03  0.00000000000E+00 0.  1.
<mgrwt>
<rscale>  0 0.17763676E+04</rscale>
<asrwt>0</asrwt>
<pdfrwt beam="1">  1        2 0.13404194E+00 0.17763676E+04</pdfrwt>
<pdfrwt beam="2">  1       -2 0.13929589E+00 0.17763676E+04</pdfrwt>
<totfact> 0.10556882E+01</totfact>
</mgrwt>
</event>
<event>
12    1  0.1536832E-007  0.1736888E+04  0.7818608E-02  0.8740601E-01
         -2   -1    0    0    0  501 -0.00000000000E+00  0.00000000000E+00  0.96189244644E+03  0.96189244644E+03  0.00000000000E+00 0.  1.
          2   -1    0    0  501    0  0.00000000000E+00 -0.00000000000E+00 -0.78407392218E+03  0.78407392218E+03  0.00000000000E+00 0. -1.
         23    2    1    2    0    0 -0.20648487782E+03 -0.20753267999E+03 -0.49469774673E+03  0.58190023631E+03  0.90422377575E+02 0.  0.
        254    2    1    2    0    0  0.20648487782E+03  0.20753267999E+03  0.67251627099E+03  0.11640661323E+04  0.90391703580E+03 0.  0.
        -24    2    4    4    0    0  0.11944940818E+03  0.22572153840E+03 -0.16708401774E+03  0.31612877117E+03  0.82473977503E+02 0.  0.
         24    2    4    4    0    0  0.87035469648E+02 -0.18188858413E+02  0.83960028873E+03  0.84793736114E+03  0.78505515945E+02 0.  0.
         13    1    3    3    0    0 -0.10827142991E+03 -0.15912541510E+03 -0.36086497211E+03  0.40898304166E+03  0.00000000000E+00 0.  1.
        -13    1    3    3    0    0 -0.98213447914E+02 -0.48407264886E+02 -0.13383277462E+03  0.17291719465E+03  0.00000000000E+00 0. -1.
          4    1    6    6  502    0  0.82599687920E+02 -0.36360312766E+02  0.78605775131E+03  0.79122156770E+03  0.00000000000E+00 0. -1.
          3    1    5    5  503    0 -0.55123591358E+01  0.54638632918E+02 -0.48909931638E+02  0.73538749808E+02  0.00000000000E+00 0. -1.
         -4    1    5    5    0  503  0.12496176731E+03  0.17108290548E+03 -0.11817408610E+03  0.24259002136E+03  0.00000000000E+00 0.  1.
         -3    1    6    6    0  502  0.44357817280E+01  0.18171454353E+02  0.53542537419E+02  0.56715793445E+02  0.00000000000E+00 0.  1.
<mgrwt>
<rscale>  0 0.17368878E+04</rscale>
<asrwt>0</asrwt>
<pdfrwt beam="1">  1        2 0.12062676E+00 0.17368878E+04</pdfrwt>
<pdfrwt beam="2">  1       -2 0.14798345E+00 0.17368878E+04</pdfrwt>
<totfact> 0.10420157E+01</totfact>
</mgrwt>
</event>
<event>
12    1  0.1536832E-007  0.1316040E+04  0.7818608E-02  0.9016941E-01
          2   -1    0    0  501    0  0.00000000000E+00  0.00000000000E+00  0.74162450184E+03  0.74162450184E+03  0.00000000000E+00 0. -1.
         -2   -1    0    0    0  501 -0.00000000000E+00 -0.00000000000E+00 -0.58384044892E+03  0.58384044892E+03  0.00000000000E+00 0.  1.
         23    2    1    2    0    0 -0.33885566539E+03 -0.16029264271E+02  0.40961995923E+02  0.35374142442E+03  0.91515085980E+02 0.  0.
        254    2    1    2    0    0  0.33885566539E+03  0.16029264271E+02  0.11682205700E+03  0.97172352633E+03  0.90306097211E+03 0.  0.
        -24    2    4    4    0    0 -0.10241408800E+03  0.33786015906E+03  0.19825936691E+03  0.41343130777E+03  0.83549609081E+02 0.  0.
         24    2    4    4    0    0  0.44126975340E+03 -0.32183089479E+03 -0.81437309910E+02  0.55829221856E+03  0.82243818964E+02 0.  0.
         13    1    3    3    0    0 -0.26123117696E+02  0.83840927155E+01 -0.20302590214E+02  0.34130711364E+02  0.00000000000E+00 0.  1.
        -13    1    3    3    0    0 -0.31273254770E+03 -0.24413356987E+02  0.61264586137E+02  0.31961071306E+03  0.00000000000E+00 0. -1.
          4    1    6    6  502    0  0.35594424438E+02 -0.12334542039E+02  0.12033660303E+02  0.39546339384E+02  0.00000000000E+00 0. -1.
          3    1    5    5  503    0 -0.58787571624E+02  0.92120356491E+02  0.89193740938E+02  0.14105907302E+03  0.00000000000E+00 0. -1.
         -4    1    5    5    0  503 -0.43626516381E+02  0.24573980257E+03  0.10906562597E+03  0.27237223475E+03  0.00000000000E+00 0.  1.
         -3    1    6    6    0  502  0.40567532896E+03 -0.30949635275E+03 -0.93470970213E+02  0.51874587918E+03  0.00000000000E+00 0.  1.
<mgrwt>
<rscale>  0 0.13160401E+04</rscale>
<asrwt>0</asrwt>
<pdfrwt beam="1">  1        2 0.11409608E+00 0.13160401E+04</pdfrwt>
<pdfrwt beam="2">  1       -2 0.89821607E-01 0.13160401E+04</pdfrwt>
<totfact> 0.39566647E+01</totfact>
</mgrwt>
</event>
<event>
12    1  0.1536832E-007  0.2189050E+04  0.7818608E-02  0.8523000E-01
          1   -1    0    0  501    0  0.00000000000E+00  0.00000000000E+00  0.51072980759E+03  0.51072980759E+03  0.00000000000E+00 0. -1.
         -1   -1    0    0    0  501 -0.00000000000E+00 -0.00000000000E+00 -0.23456328707E+04  0.23456328707E+04  0.00000000000E+00 0.  1.
         23    2    1    2    0    0 -0.50929724003E+03 -0.69172524745E+03 -0.11436327706E+04  0.14338270246E+04  0.10048147087E+03 0.  0.
        254    2    1    2    0    0  0.50929724003E+03  0.69172524745E+03 -0.69127029251E+03  0.14225356536E+04  0.89882455011E+03 0.  0.
        -24    2    4    4    0    0  0.34217193929E+03  0.54053324278E+03  0.46234195054E+02  0.64713214716E+03  0.85933651759E+02 0.  0.
         24    2    4    4    0    0  0.16712530074E+03  0.15119200467E+03 -0.73750448756E+03  0.77540350647E+03  0.80918726184E+02 0.  0.
         11    1    3    3    0    0 -0.10364895346E+03 -0.12978050502E+03 -0.16054501557E+03  0.23099953909E+03  0.00000000000E+00 0. -1.
        -11    1    3    3    0    0 -0.40564828656E+03 -0.56194474242E+03 -0.98308775499E+03  0.12028274855E+04  0.00000000000E+00 0.  1.
          4    1    6    6  502    0  0.43478541612E+02 -0.55916323675E+00 -0.12155533723E+03  0.12909839756E+03  0.00000000000E+00 0. -1.
          1    1    5    5  503    0  0.21108218547E+02  0.82807459396E+02  0.17918294249E+02  0.87313787518E+02  0.00000000000E+00 0. -1.
         -2    1    5    5    0  503  0.32106372074E+03  0.45772578338E+03  0.28315900805E+02  0.55981835964E+03  0.00000000000E+00 0.  1.
         -3    1    6    6    0  502  0.12364675913E+03  0.15175116790E+03 -0.61594915033E+03  0.64630510891E+03  0.00000000000E+00 0.  1.
<mgrwt>
<rscale>  0 0.21890497E+04</rscale>
<asrwt>0</asrwt>
<pdfrwt beam="1">  1        1 0.78573818E-01 0.21890497E+04</pdfrwt>
<pdfrwt beam="2">  1       -1 0.36086659E+00 0.21890497E+04</pdfrwt>
<totfact> 0.51715654E-01</totfact>
</mgrwt>
</event>
<event>
12    1  0.1536832E-007  0.1269812E+04  0.7818608E-02  0.9053853E-01
         -2   -1    0    0    0  501 -0.00000000000E+00  0.00000000000E+00  0.24575354716E+04  0.24575354716E+04  0.00000000000E+00 0.  1.
          2   -1    0    0  501    0  0.00000000000E+00 -0.00000000000E+00 -0.16402830591E+03  0.16402830591E+03  0.00000000000E+00 0. -1.
         23    2    1    2    0    0 -0.59362097467E+02  0.24784307143E+02  0.11844920856E+04  0.11897722382E+04  0.91642552504E+02 0.  0.
        254    2    1    2    0    0  0.59362097467E+02 -0.24784307143E+02  0.11090150801E+04  0.14317915393E+04  0.90331303747E+03 0.  0.
        -24    2    4    4    0    0  0.35660749417E+03 -0.25087307685E+03  0.88347398501E+03  0.98843393956E+03  0.79807049209E+02 0.  0.
         24    2    4    4    0    0 -0.29724539670E+03  0.22608876971E+03  0.22554109507E+03  0.44335759974E+03  0.78906387800E+02 0.  0.
         13    1    3    3    0    0 -0.15707375217E+02  0.50538856838E+02  0.37772824181E+03  0.38141777928E+03  0.00000000000E+00 0. -1.
        -13    1    3    3    0    0 -0.43654722250E+02 -0.25754549695E+02  0.80676384378E+03  0.80835445891E+03  0.00000000000E+00 0.  1.
          2    1    6    6  502    0 -0.14285704325E+03  0.15583335388E+03  0.11198629581E+03  0.23923440270E+03  0.00000000000E+00 0. -1.
          3    1    5    5  503    0  0.22249801142E+03 -0.10882933741E+03  0.47850291156E+03  0.53880815337E+03  0.00000000000E+00 0. -1.
         -4    1    5    5    0  503  0.13410948274E+03 -0.14204373943E+03  0.40497107345E+03  0.44962578618E+03  0.00000000000E+00 0.  1.
         -1    1    6    6    0  502 -0.15438835345E+03  0.70255415829E+02  0.11355479926E+03  0.20412319704E+03  0.00000000000E+00 0.  1.
<mgrwt>
<rscale>  0 0.12698116E+04</rscale>
<asrwt>0</asrwt>
<pdfrwt beam="1">  1        2 0.25235126E-01 0.12698116E+04</pdfrwt>
<pdfrwt beam="2">  1       -2 0.37808235E+00 0.12698116E+04</pdfrwt>
<totfact> 0.22284832E+00</totfact>
</mgrwt>
</event>
<event>
12    1  0.1536832E-007  0.1629303E+04  0.7818608E-02  0.8802745E-01
          2   -1    0    0  501    0  0.00000000000E+00  0.00000000000E+00  0.24182967879E+04  0.24182967879E+04  0.00000000000E+00 0.  1.
         -2   -1    0    0    0  501 -0.00000000000E+00 -0.00000000000E+00 -0.27443166844E+03  0.27443166844E+03  0.00000000000E+00 0. -1.
         23    2    1    2    0    0  0.18510907879E+03 -0.44180681217E+03  0.25511195318E+03  0.55063388098E+03  0.93042634809E+02 0.  0.
        254    2    1    2    0    0 -0.18510907879E+03  0.44180681217E+03  0.18887531663E+04  0.21420945753E+04  0.88978762427E+03 0.  0.
        -24    2    4    4    0    0  0.10161179729E+03  0.63409165491E+03  0.13567732583E+04  0.15029509579E+04  0.75038146163E+02 0.  0.
         24    2    4    4    0    0 -0.28672087608E+03 -0.19228484274E+03  0.53197990796E+03  0.63914361740E+03  0.79496035453E+02 0.  0.
         11    1    3    3    0    0  0.14977768969E+03 -0.26250895214E+03  0.18811714755E+03  0.35599489811E+03  0.00000000000E+00 0.  1.
        -11    1    3    3    0    0  0.35331389109E+02 -0.17929786003E+03  0.66994805627E+02  0.19463898286E+03  0.00000000000E+00 0. -1.
          2    1    6    6  502    0 -0.17813804536E+03 -0.76040735733E+02  0.32115595378E+03  0.37504200210E+03  0.00000000000E+00 0. -1.
          1    1    5    5  503    0  0.96696483609E+02  0.46791070065E+03  0.94616314948E+03  0.10599600649E+04  0.00000000000E+00 0. -1.
         -2    1    5    5    0  503  0.49153136795E+01  0.16618095426E+03  0.41061010881E+03  0.44299089305E+03  0.00000000000E+00 0.  1.
         -1    1    6    6    0  502 -0.10858283073E+03 -0.11624410701E+03  0.21082395419E+03  0.26410161529E+03  0.00000000000E+00 0.  1.
<mgrwt>
<rscale>  0 0.16293032E+04</rscale>
<asrwt>0</asrwt>
<pdfrwt beam="1">  1        2 0.37204564E+00 0.16293032E+04</pdfrwt>
<pdfrwt beam="2">  1       -2 0.42220258E-01 0.16293032E+04</pdfrwt>
<totfact> 0.19772651E+01</totfact>
</mgrwt>
</event>
<event>
12    1  0.1536832E-007  0.1525426E+04  0.7818608E-02  0.8867719E-01
          1   -1    0    0  501    0  0.00000000000E+00  0.00000000000E+00  0.11134145840E+04  0.11134145840E+04  0.00000000000E+00 0. -1.
         -1   -1    0    0    0  501 -0.00000000000E+00 -0.00000000000E+00 -0.52247466984E+03  0.52247466984E+03  0.00000000000E+00 0.  1.
         23    2    1    2    0    0  0.34905521569E+03  0.11149195128E+03  0.51378511339E+03  0.63738934723E+03  0.89554667247E+02 0.  0.
        254    2    1    2    0    0 -0.34905521569E+03 -0.11149195128E+03  0.77154800811E+02  0.99849990665E+03  0.92562368244E+03 0.  0.
        -24    2    4    4    0    0  0.96465240837E+02 -0.42597674219E+03  0.66215287650E+02  0.44730126651E+03  0.70229844993E+02 0.  0.
         24    2    4    4    0    0 -0.44552045652E+03  0.31448479091E+03  0.10939513160E+02  0.55119864014E+03  0.79442476389E+02 0.  0.
         11    1    3    3    0    0  0.14612118841E+03  0.64515185224E+01  0.23658138340E+03  0.27814344279E+03  0.00000000000E+00 0. -1.
        -11    1    3    3    0    0  0.20293402728E+03  0.10504043276E+03  0.27720372998E+03  0.35924590444E+03  0.00000000000E+00 0.  1.
          4    1    6    6  502    0 -0.36708217874E+03  0.25181260187E+03 -0.21549839312E+02  0.44567174914E+03  0.00000000000E+00 0. -1.
          1    1    5    5  503    0  0.10778567387E+03 -0.37884705155E+03  0.57591228415E+02  0.39806982999E+03  0.00000000000E+00 0. -1.
         -2    1    5    5    0  503 -0.11320433037E+02 -0.47129690639E+02  0.86240592357E+01  0.49231436518E+02  0.00000000000E+00 0.  1.
         -3    1    6    6    0  502 -0.78438277786E+02  0.62672189035E+02  0.32489352472E+02  0.10552689100E+03  0.00000000000E+00 0.  1.
<mgrwt>
<rscale>  0 0.15254257E+04</rscale>
<asrwt>0</asrwt>
<pdfrwt beam="1">  1        1 0.17129455E+00 0.15254257E+04</pdfrwt>
<pdfrwt beam="2">  1       -1 0.80380719E-01 0.15254257E+04</pdfrwt>
<totfact> 0.18468425E+01</totfact>
</mgrwt>
</event>
<event>
12    1  0.1536832E-007  0.1414077E+04  0.7818608E-02  0.8943692E-01
          1   -1    0    0  501    0  0.00000000000E+00  0.00000000000E+00  0.54522125975E+04  0.54522125975E+04  0.00000000000E+00 0. -1.
         -1   -1    0    0    0  501 -0.00000000000E+00 -0.00000000000E+00 -0.91688160338E+02  0.91688160338E+02  0.00000000000E+00 0.  1.
         23    2    1    2    0    0 -0.15168557726E+03  0.37625332409E+03  0.14389564213E+04  0.14980558269E+04  0.94871490926E+02 0.  0.
        254    2    1    2    0    0  0.15168557726E+03 -0.37625332409E+03  0.39215680158E+04  0.40458449309E+04  0.90862006590E+03 0.  0.
        -24    2    4    4    0    0 -0.18095021337E+03  0.17895932987E+03  0.54008498146E+03  0.60210406286E+03  0.77897970797E+02 0.  0.
         24    2    4    4    0    0  0.33263579063E+03 -0.55521265395E+03  0.33814830344E+04  0.34437408681E+04  0.77562841542E+02 0.  0.
         11    1    3    3    0    0 -0.10412207883E+03  0.27064733349E+03  0.11664752870E+04  0.12019800255E+04  0.00000000000E+00 0. -1.
        -11    1    3    3    0    0 -0.47563498433E+02  0.10560599060E+03  0.27248113434E+03  0.29607580145E+03  0.00000000000E+00 0.  1.
          2    1    6    6  502    0  0.51854559029E+02 -0.44166236353E+02  0.40334774911E+03  0.40905862469E+03  0.00000000000E+00 0. -1.
          3    1    5    5  503    0 -0.12187929445E+03  0.88529780408E+02  0.38212476953E+03  0.41074496214E+03  0.00000000000E+00 0. -1.
         -4    1    5    5    0  503 -0.59070918920E+02  0.90429549457E+02  0.15796021193E+03  0.19135910073E+03  0.00000000000E+00 0.  1.
         -1    1    6    6    0  502  0.28078123160E+03 -0.51104641760E+03  0.29781352853E+04  0.30346822434E+04  0.00000000000E+00 0.  1.
<mgrwt>
<rscale>  0 0.14140769E+04</rscale>
<asrwt>0</asrwt>
<pdfrwt beam="1">  1        1 0.83880169E+00 0.14140769E+04</pdfrwt>
<pdfrwt beam="2">  1       -1 0.14105875E-01 0.14140769E+04</pdfrwt>
<totfact> 0.70150064E-02</totfact>
</mgrwt>
</event>
<event>
12    1  0.1536832E-007  0.1706850E+04  0.7818608E-02  0.8757467E-01
         -2   -1    0    0    0  501 -0.00000000000E+00  0.00000000000E+00  0.41314513960E+03  0.41314513960E+03  0.00000000000E+00 0. -1.
          2   -1    0    0  501    0  0.00000000000E+00 -0.00000000000E+00 -0.17629018332E+04  0.17629018332E+04  0.00000000000E+00 0.  1.
         23    2    1    2    0    0 -0.13604303504E+03 -0.57248901030E+03 -0.27133270904E+03  0.65452185094E+03  0.92336558618E+02 0.  0.
        254    2    1    2    0    0  0.13604303504E+03  0.57248901030E+03 -0.10784239846E+04  0.15215251219E+04  0.89765752473E+03 0.  0.
        -24    2    4    4    0    0  0.40293194250E+03  0.29637364130E+03 -0.17547652728E+03  0.53663799539E+03  0.83647121457E+02 0.  0.
         24    2    4    4    0    0 -0.26688890746E+03  0.27611536900E+03 -0.90294745731E+03  0.98488712650E+03  0.84965612804E+02 0.  0.
         13    1    3    3    0    0 -0.12217060048E+03 -0.39875982511E+03 -0.22638536416E+03  0.47453702369E+03  0.00000000000E+00 0. -1.
        -13    1    3    3    0    0 -0.13872434557E+02 -0.17372918519E+03 -0.44947344882E+02  0.17998482725E+03  0.00000000000E+00 0.  1.
          4    1    6    6  502    0 -0.71313737697E+02  0.11694577143E+03 -0.25226778617E+03  0.28705574124E+03  0.00000000000E+00 0. -1.
          1    1    5    5  503    0  0.25127594957E+03  0.23116949253E+03 -0.13066456714E+03  0.36558469089E+03  0.00000000000E+00 0. -1.
         -2    1    5    5    0  503  0.15165599293E+03  0.65204148767E+02 -0.44811960141E+02  0.17105330450E+03  0.00000000000E+00 0.  1.
         -3    1    6    6    0  502 -0.19557516977E+03  0.15916959757E+03 -0.65067967114E+03  0.69783138526E+03  0.00000000000E+00 0.  1.
<mgrwt>
<rscale>  0 0.17068501E+04</rscale>
<asrwt>0</asrwt>
<pdfrwt beam="1">  1        2 0.27121566E+00 0.17068501E+04</pdfrwt>
<pdfrwt beam="2">  1       -2 0.63560792E-01 0.17068501E+04</pdfrwt>
<totfact> 0.19709430E+01</totfact>
</mgrwt>
</event>
<event>
12    1  0.1536832E-007  0.1112594E+04  0.7818608E-02  0.9193003E-01
          2   -1    0    0  501    0  0.00000000000E+00  0.00000000000E+00  0.19738353458E+03  0.19738353458E+03  0.00000000000E+00 0. -1.
         -2   -1    0    0    0  501 -0.00000000000E+00 -0.00000000000E+00 -0.15678437808E+04  0.15678437808E+04  0.00000000000E+00 0.  1.
         23    2    1    2    0    0  0.46813039554E+02  0.11211206557E+03 -0.44373792392E+03  0.46823996497E+03  0.87090434344E+02 0.  0.
        254    2    1    2    0    0 -0.46813039554E+02 -0.11211206557E+03 -0.92672232228E+03  0.12969873504E+04  0.89922263567E+03 0.  0.
        -24    2    4    4    0    0 -0.19226244732E+03  0.35443644701E+03 -0.42014251526E+03  0.58863636984E+03  0.85924380417E+02 0.  0.
         24    2    4    4    0    0  0.14544940776E+03 -0.46654851259E+03 -0.50657980702E+03  0.70835098054E+03  0.79466759937E+02 0.  0.
         11    1    3    3    0    0  0.80644639075E+01 -0.12282539212E+02 -0.19313077595E+02  0.24267082927E+02  0.00000000000E+00 0. -1.
        -11    1    3    3    0    0  0.38748575646E+02  0.12439460478E+03 -0.42442484633E+03  0.44397288205E+03  0.00000000000E+00 0.  1.
          4    1    6    6  502    0  0.12629661208E+03 -0.30050415953E+03 -0.30406460018E+03  0.44576772562E+03  0.00000000000E+00 0. -1.
          3    1    5    5  503    0 -0.20096276284E+03  0.34098088222E+03 -0.39795963550E+03  0.56127165043E+03  0.00000000000E+00 0. -1.
         -4    1    5    5    0  503  0.87003155200E+01  0.13455564788E+02 -0.22182879760E+02  0.27364719410E+02  0.00000000000E+00 0.  1.
         -3    1    6    6    0  502  0.19152795678E+02 -0.16604435305E+03 -0.20251520684E+03  0.26258325492E+03  0.00000000000E+00 0.  1.
<mgrwt>
<rscale>  0 0.11125944E+04</rscale>
<asrwt>0</asrwt>
<pdfrwt beam="1">  1        2 0.30366697E-01 0.11125944E+04</pdfrwt>
<pdfrwt beam="2">  1       -2 0.24120674E+00 0.11125944E+04</pdfrwt>
<totfact> 0.12729230E+01</totfact>
</mgrwt>
</event>
<event>
12    1  0.1741943E-007  0.2772349E+04  0.7818608E-02  0.8311905E-01
         -2   -1    0    0    0  501 -0.00000000000E+00  0.00000000000E+00  0.12186483727E+04  0.12186483727E+04  0.00000000000E+00 0.  1.
          2   -1    0    0  501    0  0.00000000000E+00 -0.00000000000E+00 -0.15767307261E+04  0.15767307261E+04  0.00000000000E+00 0. -1.
         23    2    1    2    0    0  0.63103780718E+03 -0.18417897409E+03 -0.12026725027E+04  0.13736547803E+04  0.91518839882E+02 0.  0.
        254    2    1    2    0    0 -0.63103780718E+03  0.18417897409E+03  0.84459014931E+03  0.14217243186E+04  0.93586158649E+03 0.  0.
        -24    2    4    4    0    0 -0.14562111178E+03 -0.19184358842E+03 -0.11597817503E+03  0.27887676643E+03  0.79447109195E+02 0.  0.
         24    2    4    4    0    0 -0.48541669541E+03  0.37602256251E+03  0.96056832433E+03  0.11428475521E+04  0.79916744090E+02 0.  0.
         11    1    3    3    0    0  0.48978049491E+02 -0.17811754492E+02 -0.52947131672E+02  0.74293382493E+02  0.00000000000E+00 0.  1.
        -11    1    3    3    0    0  0.58205975769E+03 -0.16636721960E+03 -0.11497253710E+04  0.12993613978E+04  0.00000000000E+00 0. -1.
          2    1    6    6  502    0 -0.35611967561E+03  0.27448047999E+03  0.76509595649E+03  0.88743032397E+03  0.00000000000E+00 0. -1.
          1    1    5    5  503    0 -0.11138676328E+03 -0.18453697534E+03 -0.11394554398E+03  0.24381241415E+03  0.00000000000E+00 0. -1.
         -2    1    5    5    0  503 -0.34234348503E+02 -0.73066130824E+01 -0.20326310491E+01  0.35064352285E+02  0.00000000000E+00 0.  1.
         -1    1    6    6    0  502 -0.12929701979E+03  0.10154208252E+03  0.19547236784E+03  0.25541722815E+03  0.00000000000E+00 0.  1.
<mgrwt>
<rscale>  0 0.27723494E+04</rscale>
<asrwt>0</asrwt>
<pdfrwt beam="1">  1        2 0.24257396E+00 0.27723494E+04</pdfrwt>
<pdfrwt beam="2">  1       -2 0.18748437E+00 0.27723494E+04</pdfrwt>
<totfact> 0.16155422E+00</totfact>
</mgrwt>
</event>
<event>
12    1  0.1536832E-007  0.1364247E+04  0.7818608E-02  0.8980113E-01
          2   -1    0    0  501    0  0.00000000000E+00  0.00000000000E+00  0.18925960506E+04  0.18925960506E+04  0.00000000000E+00 0. -1.
         -2   -1    0    0    0  501 -0.00000000000E+00 -0.00000000000E+00 -0.24584889590E+03  0.24584889590E+03  0.00000000000E+00 0.  1.
         23    2    1    2    0    0 -0.89931005438E+01  0.33713395119E+03  0.22602856990E+03  0.41593552294E+03  0.90406127730E+02 0.  0.
        254    2    1    2    0    0  0.89931005438E+01 -0.33713395119E+03  0.14207185848E+04  0.17225094236E+04  0.91370522608E+03 0.  0.
        -24    2    4    4    0    0  0.29971659565E+03 -0.25312987289E+03  0.17382937423E+03  0.43698947228E+03  0.82694481549E+02 0.  0.
         24    2    4    4    0    0 -0.29072349510E+03 -0.84004078297E+02  0.12468892106E+04  0.12855199513E+04  0.79069627253E+02 0.  0.
         11    1    3    3    0    0  0.13411650346E+02  0.45760885334E+01  0.18475633331E+02  0.23284371975E+02  0.00000000000E+00 0. -1.
        -11    1    3    3    0    0 -0.22404750890E+02  0.33255786266E+03  0.20755293657E+03  0.39265115097E+03  0.00000000000E+00 0.  1.
          2    1    6    6  502    0 -0.63529725073E+02 -0.38394893939E+02  0.43168176194E+03  0.43801750814E+03  0.00000000000E+00 0. -1.
          3    1    5    5  503    0  0.10260796565E+03 -0.41601771039E+02  0.34007402732E+02  0.11582575451E+03  0.00000000000E+00 0. -1.
         -4    1    5    5    0  503  0.19710863000E+03 -0.21152810185E+03  0.13982197150E+03  0.32116371776E+03  0.00000000000E+00 0.  1.
         -1    1    6    6    0  502 -0.22719377003E+03 -0.45609184359E+02  0.81520744862E+03  0.84750244314E+03  0.00000000000E+00 0.  1.
<mgrwt>
<rscale>  0 0.13642473E+04</rscale>
<asrwt>0</asrwt>
<pdfrwt beam="1">  1        2 0.29116861E+00 0.13642473E+04</pdfrwt>
<pdfrwt beam="2">  1       -2 0.37822908E-01 0.13642473E+04</pdfrwt>
<totfact> 0.49357939E+01</totfact>
</mgrwt>
</event>
<event>
12    1  0.1630133E-007  0.2739317E+04  0.7818608E-02  0.8322360E-01
         -3   -1    0    0    0  501 -0.00000000000E+00  0.00000000000E+00  0.12906813626E+04  0.12906813626E+04  0.00000000000E+00 0.  1.
          3   -1    0    0  501    0  0.00000000000E+00 -0.00000000000E+00 -0.14534680797E+04  0.14534680797E+04  0.00000000000E+00 0. -1.
         23    2    1    2    0    0 -0.47449111557E+00 -0.66749360001E+03 -0.10886244370E+04  0.12802619488E+04  0.91758169703E+02 0.  0.
        254    2    1    2    0    0  0.47449111557E+00  0.66749360001E+03  0.92583771988E+03  0.14638874935E+04  0.91664779438E+03 0.  0.
        -24    2    4    4    0    0  0.43417975220E+03  0.41814944266E+03  0.63818310130E+03  0.88149218058E+03  0.79936099600E+02 0.  0.
         24    2    4    4    0    0 -0.43370526108E+03  0.24934415735E+03  0.28765461858E+03  0.58239531294E+03  0.78526165387E+02 0.  0.
         13    1    3    3    0    0 -0.25633591390E+02 -0.64290702857E+02 -0.13238430352E+03  0.14938533831E+03  0.00000000000E+00 0.  1.
        -13    1    3    3    0    0  0.25159100274E+02 -0.60320289715E+03 -0.95624013345E+03  0.11308766105E+04  0.00000000000E+00 0. -1.
          2    1    6    6  502    0  0.24062043812E+01  0.22316964368E+01  0.74414933773E+01  0.81330260171E+01  0.00000000000E+00 0. -1.
          1    1    5    5  503    0  0.26699729532E+02  0.28319915715E+02  0.16862250147E+02  0.42417315606E+02  0.00000000000E+00 0. -1.
         -2    1    5    5    0  503  0.40748002267E+03  0.38982952694E+03  0.62132085115E+03  0.83907486497E+03  0.00000000000E+00 0.  1.
         -1    1    6    6    0  502 -0.43611146546E+03  0.24711246091E+03  0.28021312520E+03  0.57426228692E+03  0.00000000000E+00 0.  1.
<mgrwt>
<rscale>  0 0.27393168E+04</rscale>
<asrwt>0</asrwt>
<pdfrwt beam="1">  1        3 0.22361047E+00 0.27393168E+04</pdfrwt>
<pdfrwt beam="2">  1       -3 0.19856636E+00 0.27393168E+04</pdfrwt>
<totfact> 0.35857418E-02</totfact>
</mgrwt>
</event>
<event>
12    1  0.1536832E-007  0.3306381E+04  0.7818608E-02  0.8161274E-01
         -2   -1    0    0    0  501 -0.00000000000E+00  0.00000000000E+00  0.93073932246E+03  0.93073932246E+03  0.00000000000E+00 0.  1.
          2   -1    0    0  501    0  0.00000000000E+00 -0.00000000000E+00 -0.29364168040E+04  0.29364168040E+04  0.00000000000E+00 0. -1.
         23    2    1    2    0    0 -0.84878308981E+03  0.68782579817E+03  0.33991954974E+03  0.11479695109E+04  0.93550176596E+02 0.  0.
        254    2    1    2    0    0  0.84878308981E+03 -0.68782579817E+03 -0.23455970313E+04  0.27191866155E+04  0.83583093673E+03 0.  0.
        -24    2    4    4    0    0  0.18615666714E+03  0.91853246521E+02 -0.10132718937E+04  0.10373021334E+04  0.78641348095E+02 0.  0.
         24    2    4    4    0    0  0.66262642267E+03 -0.77967904469E+03 -0.13323251375E+04  0.16818844822E+04  0.81682008386E+02 0.  0.
         11    1    3    3    0    0 -0.20263962622E+03  0.12871537603E+03  0.46457999847E+02  0.24451750835E+03  0.00000000000E+00 0. -1.
        -11    1    3    3    0    0 -0.64614346359E+03  0.55911042214E+03  0.29346154989E+03  0.90345200257E+03  0.00000000000E+00 0.  1.
          4    1    6    6  502    0  0.71177264046E+02 -0.10218667162E+03 -0.12535028723E+03  0.17669468946E+03  0.00000000000E+00 0. -1.
          3    1    5    5  503    0  0.50540485700E+01  0.57705561755E+01 -0.47134747303E+01  0.90033088115E+01  0.00000000000E+00 0. -1.
         -4    1    5    5    0  503  0.18110261857E+03  0.86082690346E+02 -0.10085584190E+04  0.10282988246E+04  0.00000000000E+00 0.  1.
         -3    1    6    6    0  502  0.59144915862E+03 -0.67749237307E+03 -0.12069748503E+04  0.15051897927E+04  0.00000000000E+00 0.  1.
<mgrwt>
<rscale>  0 0.33063809E+04</rscale>
<asrwt>0</asrwt>
<pdfrwt beam="1">  1        2 0.45175642E+00 0.33063809E+04</pdfrwt>
<pdfrwt beam="2">  1       -2 0.14319067E+00 0.33063809E+04</pdfrwt>
<totfact> 0.53892385E-01</totfact>
</mgrwt>
</event>
<event>
12    1  0.1536832E-007  0.2516465E+04  0.7818608E-02  0.8397143E-01
          2   -1    0    0  501    0  0.00000000000E+00  0.00000000000E+00  0.26631948153E+04  0.26631948153E+04  0.00000000000E+00 0. -1.
         -2   -1    0    0    0  501 -0.00000000000E+00 -0.00000000000E+00 -0.59445475969E+03  0.59445475969E+03  0.00000000000E+00 0.  1.
         23    2    1    2    0    0  0.12761952816E+03  0.87993926705E+03  0.11412310183E+03  0.90273279980E+03  0.10640755524E+03 0.  0.
        254    2    1    2    0    0 -0.12761952816E+03 -0.87993926705E+03  0.19546169538E+04  0.23549167752E+04  0.96670870709E+03 0.  0.
        -24    2    4    4    0    0  0.22928305262E+03 -0.50835009620E+03  0.16657806630E+04  0.17582878326E+04  0.75896947499E+02 0.  0.
         24    2    4    4    0    0 -0.35690258078E+03 -0.37158917084E+03  0.28883629080E+03  0.59662894256E+03  0.84153004482E+02 0.  0.
         13    1    3    3    0    0  0.68048108323E+02  0.18551193093E+03  0.83533248086E+01  0.19777512381E+03  0.00000000000E+00 0. -1.
        -13    1    3    3    0    0  0.59571419835E+02  0.69442733612E+03  0.10576977702E+03  0.70495767599E+03  0.00000000000E+00 0.  1.
          4    1    6    6  502    0 -0.32742950391E+03 -0.34839425557E+03  0.28985326387E+03  0.55910960636E+03  0.00000000000E+00 0. -1.
          1    1    5    5  503    0  0.18050180908E+03 -0.33460950390E+03  0.10554393101E+04  0.11218273309E+04  0.00000000000E+00 0. -1.
         -2    1    5    5    0  503  0.48781243549E+02 -0.17374059230E+03  0.61034135291E+03  0.63646050168E+03  0.00000000000E+00 0.  1.
         -3    1    6    6    0  502 -0.29473076876E+02 -0.23194915272E+02 -0.10169730741E+01  0.37519336205E+02  0.00000000000E+00 0.  1.
<mgrwt>
<rscale>  0 0.25164648E+04</rscale>
<asrwt>0</asrwt>
<pdfrwt beam="1">  1        2 0.40972227E+00 0.25164648E+04</pdfrwt>
<pdfrwt beam="2">  1       -2 0.91454580E-01 0.25164648E+04</pdfrwt>
<totfact> 0.25326131E+00</totfact>
</mgrwt>
</event>
<event>
12    1  0.1536832E-007  0.1811365E+04  0.7818608E-02  0.8700279E-01
         -1   -1    0    0    0  501 -0.00000000000E+00  0.00000000000E+00  0.21983508486E+03  0.21983508486E+03  0.00000000000E+00 0.  1.
          1   -1    0    0  501    0  0.00000000000E+00 -0.00000000000E+00 -0.37312557995E+04  0.37312557995E+04  0.00000000000E+00 0. -1.
         23    2    1    2    0    0  0.27607764198E+03 -0.49642261302E+03 -0.51069872292E+03  0.76986750601E+03  0.96065165882E+02 0.  0.
        254    2    1    2    0    0 -0.27607764198E+03  0.49642261302E+03 -0.30007219917E+04  0.31812233784E+04  0.89061520099E+03 0.  0.
        -24    2    4    4    0    0  0.74521083467E+02 -0.23025883206E+02 -0.19660731756E+04  0.19689366502E+04  0.72001512259E+02 0.  0.
         24    2    4    4    0    0 -0.35059872545E+03  0.51944849623E+03 -0.10346488162E+04  0.12122867281E+04  0.79967067452E+02 0.  0.
         13    1    3    3    0    0 -0.62932270639E+01 -0.74288964421E+01 -0.21891479198E+01  0.99792573791E+01  0.00000000000E+00 0. -1.
        -13    1    3    3    0    0  0.28237086904E+03 -0.48899371658E+03 -0.50850957500E+03  0.75988824863E+03  0.00000000000E+00 0.  1.
          4    1    6    6  502    0 -0.26668219288E+03  0.36152127759E+03 -0.67826260152E+03  0.81354605448E+03  0.00000000000E+00 0. -1.
          3    1    5    5  503    0  0.54753994100E+02 -0.49015788678E+02 -0.13727198097E+04  0.13746854998E+04  0.00000000000E+00 0. -1.
         -4    1    5    5    0  503  0.19767089367E+02  0.25989905472E+02 -0.59335336591E+03  0.59425115048E+03  0.00000000000E+00 0.  1.
         -3    1    6    6    0  502 -0.83916532572E+02  0.15792721864E+03 -0.35638621465E+03  0.39874067364E+03  0.00000000000E+00 0.  1.
<mgrwt>
<rscale>  0 0.18113652E+04</rscale>
<asrwt>0</asrwt>
<pdfrwt beam="1">  1        1 0.57403935E+00 0.18113652E+04</pdfrwt>
<pdfrwt beam="2">  1       -1 0.33820782E-01 0.18113652E+04</pdfrwt>
<totfact> 0.12755492E+00</totfact>
</mgrwt>
</event>
<event>
12    1  0.1536832E-007  0.2117010E+04  0.7818608E-02  0.8553787E-01
          1   -1    0    0  501    0  0.00000000000E+00  0.00000000000E+00  0.21108658590E+04  0.21108658590E+04  0.00000000000E+00 0. -1.
         -1   -1    0    0    0  501 -0.00000000000E+00 -0.00000000000E+00 -0.53079300269E+03  0.53079300269E+03  0.00000000000E+00 0.  1.
         23    2    1    2    0    0 -0.73484631670E+02 -0.79368357639E+03  0.10708462723E+04  0.13381519039E+04  0.92764047008E+02 0.  0.
        254    2    1    2    0    0  0.73484631670E+02  0.79368357639E+03  0.50922658401E+03  0.13035069578E+04  0.89693091412E+03 0.  0.
        -24    2    4    4    0    0  0.15095815844E+03  0.79551972598E+03  0.70541141972E+03  0.10769766863E+04  0.81446372803E+02 0.  0.
         24    2    4    4    0    0 -0.77473526770E+02 -0.18361495937E+01 -0.19618483571E+03  0.22653027156E+03  0.82595129267E+02 0.  0.
         11    1    3    3    0    0 -0.81014225083E+02 -0.37848125095E+03  0.52875690456E+03  0.65528255441E+03  0.00000000000E+00 0.  1.
        -11    1    3    3    0    0  0.75295934129E+01 -0.41520232543E+03  0.54208936777E+03  0.68286934949E+03  0.00000000000E+00 0. -1.
          4    1    6    6  502    0  0.10821985583E+02  0.75882834683E+01 -0.75776047062E+02  0.76920132126E+02  0.00000000000E+00 0. -1.
          3    1    5    5  503    0  0.97145755110E+02  0.55211258308E+03  0.53577358456E+03  0.77544757144E+03  0.00000000000E+00 0. -1.
         -4    1    5    5    0  503  0.53812403330E+02  0.24340714290E+03  0.16963783516E+03  0.30152911482E+03  0.00000000000E+00 0.  1.
         -3    1    6    6    0  502 -0.88295512353E+02 -0.94244330621E+01 -0.12040878864E+03  0.14961013944E+03  0.00000000000E+00 0.  1.
<mgrwt>
<rscale>  0 0.21170100E+04</rscale>
<asrwt>0</asrwt>
<pdfrwt beam="1">  1        1 0.32474859E+00 0.21170100E+04</pdfrwt>
<pdfrwt beam="2">  1       -1 0.81660463E-01 0.21170100E+04</pdfrwt>
<totfact> 0.34343348E+00</totfact>
</mgrwt>
</event>
<event>
12    1  0.1536832E-007  0.1822664E+04  0.7818608E-02  0.8694339E-01
         -1   -1    0    0    0  501 -0.00000000000E+00  0.00000000000E+00  0.17780868885E+04  0.17780868885E+04  0.00000000000E+00 0.  1.
          1   -1    0    0  501    0  0.00000000000E+00 -0.00000000000E+00 -0.46708945503E+03  0.46708945503E+03  0.00000000000E+00 0. -1.
         23    2    1    2    0    0 -0.48135948582E+03 -0.29479957031E+03  0.98435840557E+03  0.11382836223E+04  0.90079924749E+02 0.  0.
        254    2    1    2    0    0  0.48135948582E+03  0.29479957031E+03  0.32663902793E+03  0.11068927213E+04  0.89437391548E+03 0.  0.
        -24    2    4    4    0    0  0.23901655705E+02 -0.27195546496E+03  0.23429363707E+03  0.36812389045E+03  0.78042464605E+02 0.  0.
         24    2    4    4    0    0  0.45745783011E+03  0.56675503527E+03  0.92345390865E+02  0.73876883086E+03  0.82296888767E+02 0.  0.
         11    1    3    3    0    0 -0.36970196443E+03 -0.20787940645E+03  0.80427042163E+03  0.90925480545E+03  0.00000000000E+00 0.  1.
        -11    1    3    3    0    0 -0.11165752139E+03 -0.86920163858E+02  0.18008798394E+03  0.22902881681E+03  0.00000000000E+00 0. -1.
          2    1    6    6  502    0  0.26793049528E+02  0.89862517711E+01  0.22416695675E+01  0.28348638527E+02  0.00000000000E+00 0. -1.
          1    1    5    5  503    0 -0.19227774766E+02 -0.95327051100E+02  0.11527295315E+03  0.15081381807E+03  0.00000000000E+00 0. -1.
         -2    1    5    5    0  503  0.43129430471E+02 -0.17662841386E+03  0.11902068392E+03  0.21731007238E+03  0.00000000000E+00 0.  1.
         -1    1    6    6    0  502  0.43066478058E+03  0.55776878350E+03  0.90103721297E+02  0.71042019233E+03  0.00000000000E+00 0.  1.
<mgrwt>
<rscale>  0 0.18226636E+04</rscale>
<asrwt>0</asrwt>
<pdfrwt beam="1">  1        1 0.71859917E-01 0.18226636E+04</pdfrwt>
<pdfrwt beam="2">  1       -1 0.27355183E+00 0.18226636E+04</pdfrwt>
<totfact> 0.22471056E+00</totfact>
</mgrwt>
</event>
<event>
12    1  0.1536832E-007  0.1267026E+04  0.7818608E-02  0.9056130E-01
          2   -1    0    0  501    0  0.00000000000E+00  0.00000000000E+00  0.80377471551E+03  0.80377471551E+03  0.00000000000E+00 0. -1.
         -2   -1    0    0    0  501 -0.00000000000E+00 -0.00000000000E+00 -0.49931749599E+03  0.49931749599E+03  0.00000000000E+00 0.  1.
         23    2    1    2    0    0  0.53943680839E+02  0.85072307011E+02 -0.21885102950E+03  0.25760313355E+03  0.91194205821E+02 0.  0.
        254    2    1    2    0    0 -0.53943680839E+02 -0.85072307011E+02  0.52330824902E+03  0.10454890780E+04  0.89947132834E+03 0.  0.
        -24    2    4    4    0    0  0.46973716525E+02  0.37979054566E+03  0.37294262433E+03  0.54006901083E+03  0.78364193393E+02 0.  0.
         24    2    4    4    0    0 -0.10091739736E+03 -0.46486285267E+03  0.15036562470E+03  0.50542006713E+03  0.80980431485E+02 0.  0.
         13    1    3    3    0    0  0.58801213017E+02  0.88942047769E+01 -0.91525316772E+02  0.10914931581E+03  0.00000000000E+00 0. -1.
        -13    1    3    3    0    0 -0.48575321774E+01  0.76178102234E+02 -0.12732571273E+03  0.14845381774E+03  0.00000000000E+00 0.  1.
          2    1    6    6  502    0 -0.17518456802E+02 -0.26352195236E+03  0.70911394762E+02  0.27345775106E+03  0.00000000000E+00 0. -1.
          1    1    5    5  503    0  0.68175976724E+02  0.25072013658E+03  0.24870472617E+03  0.35967011484E+03  0.00000000000E+00 0. -1.
         -2    1    5    5    0  503 -0.21202260199E+02  0.12907040908E+03  0.12423789815E+03  0.18039889599E+03  0.00000000000E+00 0.  1.
         -1    1    6    6    0  502 -0.83398940562E+02 -0.20134090031E+03  0.79454229937E+02  0.23196231607E+03  0.00000000000E+00 0.  1.
<mgrwt>
<rscale>  0 0.12670261E+04</rscale>
<asrwt>0</asrwt>
<pdfrwt beam="1">  1        2 0.12365765E+00 0.12670261E+04</pdfrwt>
<pdfrwt beam="2">  1       -2 0.76818076E-01 0.12670261E+04</pdfrwt>
<totfact> 0.50931132E+01</totfact>
</mgrwt>
</event>
<event>
12    1  0.1536832E-007  0.1794752E+04  0.7818608E-02  0.8709095E-01
          1   -1    0    0  501    0  0.00000000000E+00  0.00000000000E+00  0.87472907924E+03  0.87472907924E+03  0.00000000000E+00 0. -1.
         -1   -1    0    0    0  501 -0.00000000000E+00 -0.00000000000E+00 -0.92060891463E+03  0.92060891463E+03  0.00000000000E+00 0.  1.
         23    2    1    2    0    0 -0.11680099218E+03 -0.62187955948E+03  0.18538140455E+03  0.66539239895E+03  0.89465754071E+02 0.  0.
        254    2    1    2    0    0  0.11680099218E+03  0.62187955948E+03 -0.23126123995E+03  0.11299455949E+04  0.90714862515E+03 0.  0.
        -24    2    4    4    0    0 -0.39077177041E+03  0.30789933688E+03 -0.78152803018E+02  0.50988614564E+03  0.79821317265E+02 0.  0.
         24    2    4    4    0    0  0.50757276258E+03  0.31398022260E+03 -0.15310843693E+03  0.62005944929E+03  0.69410645413E+02 0.  0.
         13    1    3    3    0    0 -0.12011947099E+03 -0.58076603001E+03  0.15173154009E+03  0.61216037865E+03  0.00000000000E+00 0. -1.
        -13    1    3    3    0    0  0.33184788157E+01 -0.41113529468E+02  0.33649864463E+02  0.53232020301E+02  0.00000000000E+00 0.  1.
          4    1    6    6  502    0  0.12734020683E+03  0.11449810827E+03 -0.35943206738E+02  0.17497788198E+03  0.00000000000E+00 0. -1.
          1    1    5    5  503    0 -0.46006706510E+02  0.26627420152E+02 -0.33205743697E+02  0.62675816408E+02  0.00000000000E+00 0. -1.
         -2    1    5    5    0  503 -0.34476506390E+03  0.28127191673E+03 -0.44947059321E+02  0.44721032923E+03  0.00000000000E+00 0.  1.
         -3    1    6    6    0  502  0.38023255575E+03  0.19948211433E+03 -0.11716523019E+03  0.44508156731E+03  0.00000000000E+00 0.  1.
<mgrwt>
<rscale>  0 0.17947517E+04</rscale>
<asrwt>0</asrwt>
<pdfrwt beam="1">  1        1 0.13457371E+00 0.17947517E+04</pdfrwt>
<pdfrwt beam="2">  1       -1 0.14163214E+00 0.17947517E+04</pdfrwt>
<totfact> 0.73297704E+00</totfact>
</mgrwt>
</event>
<event>
12    1  0.1536832E-007  0.1516472E+04  0.7818608E-02  0.8873573E-01
          2   -1    0    0  501    0  0.00000000000E+00  0.00000000000E+00  0.11157730012E+04  0.11157730012E+04  0.00000000000E+00 0. -1.
         -2   -1    0    0    0  501 -0.00000000000E+00 -0.00000000000E+00 -0.51526750873E+03  0.51526750873E+03  0.00000000000E+00 0.  1.
         23    2    1    2    0    0  0.44230592101E+03  0.59533830632E+02  0.76854459911E+02  0.46119477185E+03  0.87265140914E+02 0.  0.
        254    2    1    2    0    0 -0.44230592101E+03 -0.59533830632E+02  0.52365103261E+03  0.11698457381E+04  0.94612358723E+03 0.  0.
        -24    2    4    4    0    0 -0.49188823941E+03  0.35279417391E+03  0.22801419355E+03  0.65288363923E+03  0.88593480021E+02 0.  0.
         24    2    4    4    0    0  0.49582318395E+02 -0.41232800454E+03  0.29563683906E+03  0.51696209890E+03  0.85882952089E+02 0.  0.
         13    1    3    3    0    0 -0.34568839683E+01 -0.27960780008E+01 -0.57749492937E+00  0.44834807182E+01  0.00000000000E+00 0. -1.
        -13    1    3    3    0    0  0.44576280498E+03  0.62329908633E+02  0.77431954840E+02  0.45671129113E+03  0.00000000000E+00 0.  1.
          2    1    6    6  502    0  0.41660335896E+02 -0.27720228720E+03  0.24548583976E+03  0.37261238457E+03  0.00000000000E+00 0. -1.
          1    1    5    5  503    0 -0.41805824692E+03  0.28537984583E+03  0.22201773378E+03  0.55272617845E+03  0.00000000000E+00 0. -1.
         -2    1    5    5    0  503 -0.73829992481E+02  0.67414328077E+02  0.59964597635E+01  0.10015746078E+03  0.00000000000E+00 0.  1.
         -1    1    6    6    0  502  0.79219824995E+01 -0.13512571735E+03  0.50150999301E+02  0.14434971433E+03  0.00000000000E+00 0.  1.
<mgrwt>
<rscale>  0 0.15164717E+04</rscale>
<asrwt>0</asrwt>
<pdfrwt beam="1">  1        2 0.17165738E+00 0.15164717E+04</pdfrwt>
<pdfrwt beam="2">  1       -2 0.79271925E-01 0.15164717E+04</pdfrwt>
<totfact> 0.29013316E+01</totfact>
</mgrwt>
</event>
<event>
12    1  0.1536832E-007  0.1702848E+04  0.7818608E-02  0.8759741E-01
          1   -1    0    0  501    0  0.00000000000E+00  0.00000000000E+00  0.90007072525E+03  0.90007072525E+03  0.00000000000E+00 0. -1.
         -1   -1    0    0    0  501 -0.00000000000E+00 -0.00000000000E+00 -0.80540687452E+03  0.80540687452E+03  0.00000000000E+00 0.  1.
         23    2    1    2    0    0  0.18814522655E+03 -0.47577233405E+03 -0.29438207414E+03  0.59698987778E+03  0.89320593754E+02 0.  0.
        254    2    1    2    0    0 -0.18814522655E+03  0.47577233405E+03  0.38904592487E+03  0.11084877220E+04  0.90312255982E+03 0.  0.
        -24    2    4    4    0    0  0.27222611990E+03  0.37130817242E+03  0.42093578862E+03  0.62867561430E+03  0.77905523623E+02 0.  0.
         24    2    4    4    0    0 -0.46037134645E+03  0.10446416163E+03 -0.31889863749E+02  0.47981210770E+03  0.79675326115E+02 0.  0.
         11    1    3    3    0    0  0.18730739687E+03 -0.47939553846E+03 -0.29497555544E+03  0.59322400619E+03  0.00000000000E+00 0.  1.
        -11    1    3    3    0    0  0.83782967695E+00  0.36232044045E+01  0.59348130124E+00  0.37658715829E+01  0.00000000000E+00 0. -1.
          4    1    6    6  502    0 -0.45063920319E+03  0.11421265138E+03 -0.29417878875E+02  0.46581716670E+03  0.00000000000E+00 0. -1.
          1    1    5    5  503    0  0.22240090116E+03  0.24408771737E+03  0.30394030317E+03  0.44879915608E+03  0.00000000000E+00 0. -1.
         -2    1    5    5    0  503  0.49825218741E+02  0.12722045505E+03  0.11699548545E+03  0.17987645822E+03  0.00000000000E+00 0.  1.
         -3    1    6    6    0  502 -0.97321432558E+01 -0.97484897437E+01 -0.24719848739E+01  0.13994941009E+02  0.00000000000E+00 0.  1.
<mgrwt>
<rscale>  0 0.17028484E+04</rscale>
<asrwt>0</asrwt>
<pdfrwt beam="1">  1        1 0.13847242E+00 0.17028484E+04</pdfrwt>
<pdfrwt beam="2">  1       -1 0.12390875E+00 0.17028484E+04</pdfrwt>
<totfact> 0.99026910E+00</totfact>
</mgrwt>
</event>
<event>
12    1  0.1536832E-007  0.2558329E+04  0.7818608E-02  0.8382495E-01
          2   -1    0    0  501    0  0.00000000000E+00  0.00000000000E+00  0.22215804829E+04  0.22215804829E+04  0.00000000000E+00 0. -1.
         -2   -1    0    0    0  501 -0.00000000000E+00 -0.00000000000E+00 -0.73653028397E+03  0.73653028397E+03  0.00000000000E+00 0.  1.
         23    2    1    2    0    0 -0.57885877885E+03 -0.56431087059E+03 -0.24097989407E+03  0.84842268008E+03  0.90694488302E+02 0.  0.
        254    2    1    2    0    0  0.57885877885E+03  0.56431087059E+03  0.17260300930E+04  0.21096880868E+04  0.90447758243E+03 0.  0.
        -24    2    4    4    0    0  0.51168152904E+03  0.54055916575E+03  0.18191860860E+04  0.19671764858E+04  0.79517997647E+02 0.  0.
         24    2    4    4    0    0  0.67177249809E+02  0.23751704838E+02 -0.93155992979E+02  0.14251160102E+03  0.80960428743E+02 0.  0.
         13    1    3    3    0    0 -0.49279299799E+03 -0.46540184755E+03 -0.16785410837E+03  0.69829708596E+03  0.00000000000E+00 0.  1.
        -13    1    3    3    0    0 -0.86065780863E+02 -0.98909023039E+02 -0.73125785700E+02  0.15012559411E+03  0.00000000000E+00 0. -1.
          2    1    6    6  502    0  0.75560238658E+02  0.11189651221E+01 -0.43235235557E+02  0.87062548450E+02  0.00000000000E+00 0. -1.
          1    1    5    5  503    0  0.48666511139E+03  0.53430604218E+03  0.17607382846E+04  0.19032932470E+04  0.00000000000E+00 0. -1.
         -2    1    5    5    0  503  0.25016417654E+02  0.62531235700E+01  0.58447801380E+02  0.63883238747E+02  0.00000000000E+00 0.  1.
         -1    1    6    6    0  502 -0.83829888492E+01  0.22632739716E+02 -0.49920757422E+02  0.55449052567E+02  0.00000000000E+00 0.  1.
<mgrwt>
<rscale>  0 0.25583286E+04</rscale>
<asrwt>0</asrwt>
<pdfrwt beam="1">  1        2 0.34178161E+00 0.25583286E+04</pdfrwt>
<pdfrwt beam="2">  1       -2 0.11331235E+00 0.25583286E+04</pdfrwt>
<totfact> 0.27242234E+00</totfact>
</mgrwt>
</event>
<event>
12    1  0.1536832E-007  0.1984816E+04  0.7818608E-02  0.8613753E-01
          1   -1    0    0  501    0  0.00000000000E+00  0.00000000000E+00  0.17787624287E+04  0.17787624287E+04  0.00000000000E+00 0. -1.
         -1   -1    0    0    0  501 -0.00000000000E+00 -0.00000000000E+00 -0.55368471161E+03  0.55368471161E+03  0.00000000000E+00 0.  1.
         23    2    1    2    0    0  0.59351796294E+03  0.41391041191E+03  0.84234760600E+03  0.11136310792E+04  0.83900475462E+02 0.  0.
        254    2    1    2    0    0 -0.59351796294E+03 -0.41391041191E+03  0.38273011112E+03  0.12188160611E+04  0.90301985112E+03 0.  0.
        -24    2    4    4    0    0 -0.18932507099E+02 -0.49510982564E+03  0.38682789800E+03  0.63329273582E+03  0.77017448072E+02 0.  0.
         24    2    4    4    0    0 -0.57458545584E+03  0.81199413726E+02 -0.40977868831E+01  0.58552332532E+03  0.77967825258E+02 0.  0.
         13    1    3    3    0    0  0.50424487492E+03  0.38138442717E+03  0.75280182511E+03  0.98307047716E+03  0.00000000000E+00 0. -1.
        -13    1    3    3    0    0  0.89273088018E+02  0.32525984744E+02  0.89545780895E+02  0.13056060204E+03  0.00000000000E+00 0.  1.
          2    1    6    6  502    0 -0.16375632441E+03  0.25529694465E+02 -0.36394775161E+02  0.16968346632E+03  0.00000000000E+00 0. -1.
          3    1    5    5  503    0 -0.23856146150E+02 -0.42739009533E+02  0.34499164295E+02  0.59882643412E+02  0.00000000000E+00 0. -1.
         -4    1    5    5    0  503  0.49236390508E+01 -0.45237081611E+03  0.35232873370E+03  0.57341009241E+03  0.00000000000E+00 0.  1.
         -3    1    6    6    0  502 -0.41082913143E+03  0.55669719260E+02  0.32296988278E+02  0.41583985899E+03  0.00000000000E+00 0.  1.
<mgrwt>
<rscale>  0 0.19848159E+04</rscale>
<asrwt>0</asrwt>
<pdfrwt beam="1">  1        1 0.27365576E+00 0.19848159E+04</pdfrwt>
<pdfrwt beam="2">  1       -1 0.85182264E-01 0.19848159E+04</pdfrwt>
<totfact> 0.53307188E+00</totfact>
</mgrwt>
</event>
<event>
12    1  0.1536832E-007  0.1352900E+04  0.7818608E-02  0.8988636E-01
          1   -1    0    0  501    0  0.00000000000E+00  0.00000000000E+00  0.18747956481E+04  0.18747956481E+04  0.00000000000E+00 0. -1.
         -1   -1    0    0    0  501 -0.00000000000E+00 -0.00000000000E+00 -0.24407176390E+03  0.24407176390E+03  0.00000000000E+00 0.  1.
         23    2    1    2    0    0  0.25013518175E+03 -0.85936171168E+02  0.51323154433E+02  0.28524665234E+03  0.93696060873E+02 0.  0.
        254    2    1    2    0    0 -0.25013518175E+03  0.85936171168E+02  0.15794007298E+04  0.18336207597E+04  0.89314376806E+03 0.  0.
        -24    2    4    4    0    0 -0.46340030106E+03  0.34330750949E+03  0.88791095167E+03  0.10617103906E+04  0.79013988539E+02 0.  0.
         24    2    4    4    0    0  0.21326511931E+03 -0.25737133833E+03  0.69148977814E+03  0.77191036907E+03  0.77236569729E+02 0.  0.
         11    1    3    3    0    0  0.88956927942E+02 -0.71139143742E+02  0.47316979667E+02  0.12334102872E+03  0.00000000000E+00 0. -1.
        -11    1    3    3    0    0  0.16117825381E+03 -0.14797027425E+02  0.40061747659E+01  0.16190562362E+03  0.00000000000E+00 0.  1.
          4    1    6    6  502    0  0.11508471326E+03 -0.19105542092E+03  0.41588585821E+03  0.47191917968E+03  0.00000000000E+00 0. -1.
          3    1    5    5  503    0 -0.24856025996E+03  0.23208908149E+03  0.50856181096E+03  0.61178644979E+03  0.00000000000E+00 0. -1.
         -4    1    5    5    0  503 -0.21484004110E+03  0.11121842801E+03  0.37934914071E+03  0.44992394085E+03  0.00000000000E+00 0.  1.
         -3    1    6    6    0  502  0.98180406045E+02 -0.66315917405E+02  0.27560391993E+03  0.29999118939E+03  0.00000000000E+00 0.  1.
<mgrwt>
<rscale>  0 0.13529001E+04</rscale>
<asrwt>0</asrwt>
<pdfrwt beam="1">  1        1 0.28843009E+00 0.13529001E+04</pdfrwt>
<pdfrwt beam="2">  1       -1 0.37549503E-01 0.13529001E+04</pdfrwt>
<totfact> 0.24256474E+01</totfact>
</mgrwt>
</event>
<event>
12    1  0.1536832E-007  0.1716631E+04  0.7818608E-02  0.8751935E-01
          2   -1    0    0  501    0  0.00000000000E+00  0.00000000000E+00  0.12775699179E+04  0.12775699179E+04  0.00000000000E+00 0. -1.
         -2   -1    0    0    0  501 -0.00000000000E+00 -0.00000000000E+00 -0.57664609492E+03  0.57664609492E+03  0.00000000000E+00 0.  1.
         23    2    1    2    0    0  0.52635142898E+03 -0.18625171535E+03  0.52418622800E+03  0.77137196878E+03  0.92238735521E+02 0.  0.
        254    2    1    2    0    0 -0.52635142898E+03  0.18625171535E+03  0.17673759494E+03  0.10828440440E+04  0.91081255915E+03 0.  0.
        -24    2    4    4    0    0 -0.18276631369E+03  0.53380481064E+03  0.52780832450E+02  0.57250512524E+03  0.81395336871E+02 0.  0.
         24    2    4    4    0    0 -0.34358511529E+03 -0.34755309529E+03  0.12395676249E+03  0.51033891876E+03  0.78972448002E+02 0.  0.
         11    1    3    3    0    0  0.13579858146E+03 -0.45669294273E+02  0.82830947714E+02  0.16549291545E+03  0.00000000000E+00 0.  1.
        -11    1    3    3    0    0  0.39055284752E+03 -0.14058242108E+03  0.44135528028E+03  0.60587905332E+03  0.00000000000E+00 0. -1.
          2    1    6    6  502    0 -0.14351689980E+03 -0.93304209938E+02  0.33811169586E+02  0.17448773971E+03  0.00000000000E+00 0. -1.
          3    1    5    5  503    0 -0.25368698270E+02  0.18488471269E+03  0.30362132371E+02  0.18907085159E+03  0.00000000000E+00 0. -1.
         -4    1    5    5    0  503 -0.15739761542E+03  0.34892009795E+03  0.22418700079E+02  0.38343427365E+03  0.00000000000E+00 0.  1.
         -1    1    6    6    0  502 -0.20006821549E+03 -0.25424888535E+03  0.90145592905E+02  0.33585117906E+03  0.00000000000E+00 0.  1.
<mgrwt>
<rscale>  0 0.17166312E+04</rscale>
<asrwt>0</asrwt>
<pdfrwt beam="1">  1        2 0.19654922E+00 0.17166312E+04</pdfrwt>
<pdfrwt beam="2">  1       -2 0.88714784E-01 0.17166312E+04</pdfrwt>
<totfact> 0.17691343E+01</totfact>
</mgrwt>
</event>
<event>
12    1  0.1536832E-007  0.1180321E+04  0.7818608E-02  0.9130258E-01
         -4   -1    0    0    0  501 -0.00000000000E+00  0.00000000000E+00  0.21485102766E+04  0.21485102766E+04  0.00000000000E+00 0. -1.
          4   -1    0    0  501    0  0.00000000000E+00 -0.00000000000E+00 -0.16210729157E+03  0.16210729157E+03  0.00000000000E+00 0.  1.
         23    2    1    2    0    0  0.13124314683E+03 -0.12298681785E+02  0.79559114591E+03  0.81118156017E+03  0.87602687975E+02 0.  0.
        254    2    1    2    0    0 -0.13124314683E+03  0.12298681785E+02  0.11908118391E+04  0.14994360080E+04  0.90160938589E+03 0.  0.
        -24    2    4    4    0    0  0.16474500535E+03 -0.34111264509E+03  0.80214798466E+03  0.89065179973E+03  0.79501482076E+02 0.  0.
         24    2    4    4    0    0 -0.29598815218E+03  0.35341132687E+03  0.38866385447E+03  0.60878420826E+03  0.83964684648E+02 0.  0.
         11    1    3    3    0    0  0.12617007440E+03 -0.36094168546E+02  0.71699568599E+03  0.72890636601E+03  0.00000000000E+00 0. -1.
        -11    1    3    3    0    0  0.50730724354E+01  0.23795486761E+02  0.78595459918E+02  0.82275194159E+02  0.00000000000E+00 0.  1.
          2    1    6    6  502    0 -0.66976398113E+02  0.96538436306E+02  0.56054245008E+02  0.13018289431E+03  0.00000000000E+00 0. -1.
          1    1    5    5  503    0  0.21462405492E+02 -0.12978756023E+03  0.25949920724E+03  0.29093862617E+03  0.00000000000E+00 0. -1.
         -2    1    5    5    0  503  0.14328259986E+03 -0.21132508486E+03  0.54264877741E+03  0.59971317356E+03  0.00000000000E+00 0.  1.
         -1    1    6    6    0  502 -0.22901175407E+03  0.25687289057E+03  0.33260960946E+03  0.47860131395E+03  0.00000000000E+00 0.  1.
<mgrwt>
<rscale>  0 0.11803206E+04</rscale>
<asrwt>0</asrwt>
<pdfrwt beam="1">  1        4 0.24939585E-01 0.11803206E+04</pdfrwt>
<pdfrwt beam="2">  1       -4 0.33054002E+00 0.11803206E+04</pdfrwt>
<totfact> 0.60929407E-01</totfact>
</mgrwt>
</event>
<event>
12    1  0.1536832E-007  0.3276215E+04  0.7818608E-02  0.8168974E-01
         -2   -1    0    0    0  501 -0.00000000000E+00  0.00000000000E+00  0.21246115849E+04  0.21246115849E+04  0.00000000000E+00 0.  1.
          2   -1    0    0  501    0  0.00000000000E+00 -0.00000000000E+00 -0.12630057867E+04  0.12630057867E+04  0.00000000000E+00 0. -1.
         23    2    1    2    0    0  0.11135834736E+04 -0.25824749244E+03  0.14238781243E+04  0.18282125774E+04  0.90401301233E+02 0.  0.
        254    2    1    2    0    0 -0.11135834736E+04  0.25824749244E+03 -0.56227232621E+03  0.15594047942E+04  0.89935155718E+03 0.  0.
        -24    2    4    4    0    0 -0.10699180689E+04  0.42308525651E+03 -0.22867283827E+03  0.11757723591E+04  0.80147147067E+02 0.  0.
         24    2    4    4    0    0 -0.43665404701E+02 -0.16483776406E+03 -0.33359948793E+03  0.38363243507E+03  0.82504974730E+02 0.  0.
         13    1    3    3    0    0  0.18584228988E+03 -0.10034741154E+02  0.24455201608E+03  0.30731700459E+03  0.00000000000E+00 0. -1.
        -13    1    3    3    0    0  0.92774118369E+03 -0.24821275129E+03  0.11793261083E+04  0.15208955728E+04  0.00000000000E+00 0.  1.
          4    1    6    6  502    0 -0.17203074911E+02 -0.60303745561E+02 -0.21213349200E+03  0.22120828634E+03  0.00000000000E+00 0. -1.
          1    1    5    5  503    0 -0.91421810787E+03  0.33117214125E+03 -0.19998936748E+03  0.99270614132E+03  0.00000000000E+00 0. -1.
         -2    1    5    5    0  503 -0.15569996099E+03  0.91913115259E+02 -0.28683470789E+02  0.18306621782E+03  0.00000000000E+00 0.  1.
         -3    1    6    6    0  502 -0.26462329790E+02 -0.10453401850E+03 -0.12146599593E+03  0.16242414873E+03  0.00000000000E+00 0.  1.
<mgrwt>
<rscale>  0 0.32762153E+04</rscale>
<asrwt>0</asrwt>
<pdfrwt beam="1">  1        2 0.19430858E+00 0.32762153E+04</pdfrwt>
<pdfrwt beam="2">  1       -2 0.32686332E+00 0.32762153E+04</pdfrwt>
<totfact> 0.31565368E-01</totfact>
</mgrwt>
</event>
<event>
12    1  0.1536832E-007  0.2475497E+04  0.7818608E-02  0.8411767E-01
          2   -1    0    0  501    0  0.00000000000E+00  0.00000000000E+00  0.20437467668E+04  0.20437467668E+04  0.00000000000E+00 0. -1.
         -2   -1    0    0    0  501 -0.00000000000E+00 -0.00000000000E+00 -0.74961420057E+03  0.74961420057E+03  0.00000000000E+00 0.  1.
         23    2    1    2    0    0  0.95557536789E+03 -0.32698965771E+03  0.64349106215E+03  0.12009861467E+04  0.90776965739E+02 0.  0.
        254    2    1    2    0    0 -0.95557536789E+03  0.32698965771E+03  0.65064150407E+03  0.15923748207E+04  0.10451204154E+04 0.  0.
        -24    2    4    4    0    0 -0.55876206135E+03  0.40772798815E+03 -0.13096379366E+03  0.70846650177E+03  0.79473991721E+02 0.  0.
         24    2    4    4    0    0 -0.39681330654E+03 -0.80738330435E+02  0.78160529772E+03  0.88390831888E+03  0.80047464111E+02 0.  0.
         11    1    3    3    0    0  0.11056851131E+02 -0.93260716784E+00 -0.21879911278E+01  0.11309775340E+02  0.00000000000E+00 0. -1.
        -11    1    3    3    0    0  0.94451851676E+03 -0.32605705054E+03  0.64567905328E+03  0.11896763714E+04  0.00000000000E+00 0.  1.
          4    1    6    6  502    0 -0.21584543521E+03 -0.65955015506E+02  0.50359058190E+03  0.55185395727E+03  0.00000000000E+00 0. -1.
          1    1    5    5  503    0 -0.43181909625E+03  0.35301132258E+03 -0.11284710780E+03  0.56905113609E+03  0.00000000000E+00 0. -1.
         -2    1    5    5    0  503 -0.12694296510E+03  0.54716665567E+02 -0.18116685858E+02  0.13941536568E+03  0.00000000000E+00 0.  1.
         -3    1    6    6    0  502 -0.18096787133E+03 -0.14783314929E+02  0.27801471583E+03  0.33205436162E+03  0.00000000000E+00 0.  1.
<mgrwt>
<rscale>  0 0.24754972E+04</rscale>
<asrwt>0</asrwt>
<pdfrwt beam="1">  1        2 0.31442258E+00 0.24754972E+04</pdfrwt>
<pdfrwt beam="2">  1       -2 0.11532526E+00 0.24754972E+04</pdfrwt>
<totfact> 0.33055622E+00</totfact>
</mgrwt>
</event>
<event>
12    1  0.1536832E-007  0.2464396E+04  0.7818608E-02  0.8415780E-01
          2   -1    0    0  501    0  0.00000000000E+00  0.00000000000E+00  0.63385064999E+03  0.63385064999E+03  0.00000000000E+00 0.  1.
         -2   -1    0    0    0  501 -0.00000000000E+00 -0.00000000000E+00 -0.23953788206E+04  0.23953788206E+04  0.00000000000E+00 0. -1.
         23    2    1    2    0    0 -0.82183956148E+03 -0.64057283246E+03 -0.88060284543E+03  0.13673461959E+04  0.91762898161E+02 0.  0.
        254    2    1    2    0    0  0.82183956148E+03  0.64057283246E+03 -0.88092532524E+03  0.16618832748E+04  0.94872165139E+03 0.  0.
        -24    2    4    4    0    0  0.99280203156E+03  0.55457489746E+03 -0.53691230074E+03  0.12600175476E+04  0.78487010155E+02 0.  0.
         24    2    4    4    0    0 -0.17096247008E+03  0.85997934999E+02 -0.34401302449E+03  0.40186572719E+03  0.80791649744E+02 0.  0.
         11    1    3    3    0    0 -0.70852811104E+03 -0.56416844001E+03 -0.80161397380E+03  0.12094970342E+04  0.00000000000E+00 0. -1.
        -11    1    3    3    0    0 -0.11331145044E+03 -0.76404392447E+02 -0.78988871624E+02  0.15784916162E+03  0.00000000000E+00 0.  1.
          4    1    6    6  502    0 -0.86610889882E+01 -0.13280137049E+02 -0.15128621590E+02  0.21914645644E+02  0.00000000000E+00 0. -1.
          1    1    5    5  503    0  0.50763215432E+03  0.31561916858E+03 -0.25151709851E+03  0.64851115219E+03  0.00000000000E+00 0. -1.
         -2    1    5    5    0  503  0.48516987724E+03  0.23895572888E+03 -0.28539520223E+03  0.61150639539E+03  0.00000000000E+00 0.  1.
         -3    1    6    6    0  502 -0.16230138109E+03  0.99278072049E+02 -0.32888440290E+03  0.37995108154E+03  0.00000000000E+00 0.  1.
<mgrwt>
<rscale>  0 0.24643964E+04</rscale>
<asrwt>0</asrwt>
<pdfrwt beam="1">  1        2 0.97515484E-01 0.24643964E+04</pdfrwt>
<pdfrwt beam="2">  1       -2 0.36851982E+00 0.24643964E+04</pdfrwt>
<totfact> 0.49260124E-01</totfact>
</mgrwt>
</event>
<event>
12    1  0.1536832E-007  0.1069955E+04  0.7818608E-02  0.9234981E-01
         -2   -1    0    0    0  501 -0.00000000000E+00  0.00000000000E+00  0.70977294028E+03  0.70977294028E+03  0.00000000000E+00 0.  1.
          2   -1    0    0  501    0  0.00000000000E+00 -0.00000000000E+00 -0.40322885746E+03  0.40322885746E+03  0.00000000000E+00 0. -1.
         23    2    1    2    0    0  0.11966118381E+03  0.31491938766E+02  0.97575276542E+02  0.18338709109E+03  0.93804847775E+02 0.  0.
        254    2    1    2    0    0 -0.11966118381E+03 -0.31491938766E+02  0.20896880628E+03  0.92961470665E+03  0.89733215685E+03 0.  0.
        -24    2    4    4    0    0  0.29162426558E+02  0.28889853194E+03 -0.21686916174E+03  0.37059098967E+03  0.77412140038E+02 0.  0.
         24    2    4    4    0    0 -0.14882361037E+03 -0.32039047071E+03  0.42583796802E+03  0.55902371699E+03  0.79818672138E+02 0.  0.
         11    1    3    3    0    0  0.85321869079E+02  0.64599609215E+02  0.74517683208E+02  0.13040634940E+03  0.00000000000E+00 0.  1.
        -11    1    3    3    0    0  0.34339314733E+02 -0.33107670449E+02  0.23057593334E+02  0.52980741683E+02  0.00000000000E+00 0. -1.
          4    1    6    6  502    0 -0.18870089765E+02 -0.77524363519E+02  0.14591033934E+03  0.16630073467E+03  0.00000000000E+00 0. -1.
          1    1    5    5  503    0  0.34993953514E+02  0.47291942564E+02 -0.42178296136E+02  0.72388626724E+02  0.00000000000E+00 0. -1.
         -2    1    5    5    0  503 -0.58315269560E+01  0.24160658938E+03 -0.17469086561E+03  0.29820236294E+03  0.00000000000E+00 0.  1.
         -3    1    6    6    0  502 -0.12995352061E+03 -0.24286610719E+03  0.27992762869E+03  0.39272298232E+03  0.00000000000E+00 0.  1.
<mgrwt>
<rscale>  0 0.10699550E+04</rscale>
<asrwt>0</asrwt>
<pdfrwt beam="1">  1        2 0.62035209E-01 0.10699550E+04</pdfrwt>
<pdfrwt beam="2">  1       -2 0.10919584E+00 0.10699550E+04</pdfrwt>
<totfact> 0.52414824E+01</totfact>
</mgrwt>
</event>
<event>
12    1  0.1536832E-007  0.1777854E+04  0.7818608E-02  0.8718166E-01
         -2   -1    0    0    0  501 -0.00000000000E+00  0.00000000000E+00  0.84910890394E+03  0.84910890394E+03  0.00000000000E+00 0.  1.
          2   -1    0    0  501    0  0.00000000000E+00 -0.00000000000E+00 -0.93061256164E+03  0.93061256164E+03  0.00000000000E+00 0. -1.
         23    2    1    2    0    0 -0.31821105560E+03 -0.19886030444E+03  0.50349772255E+03  0.63456511684E+03  0.91428848325E+02 0.  0.
        254    2    1    2    0    0  0.31821105560E+03  0.19886030444E+03 -0.58500138025E+03  0.11451563487E+04  0.91013886391E+03 0.  0.
        -24    2    4    4    0    0 -0.31111673615E+03  0.11389724871E+03 -0.24514861926E+03  0.41980757233E+03  0.79839498284E+02 0.  0.
         24    2    4    4    0    0  0.62932779174E+03  0.84963055734E+02 -0.33985276099E+03  0.72534877641E+03  0.85783203456E+02 0.  0.
         13    1    3    3    0    0 -0.19374872671E+03 -0.76357634576E+02  0.23206979410E+03  0.31180995301E+03  0.00000000000E+00 0.  1.
        -13    1    3    3    0    0 -0.12446232888E+03 -0.12250266987E+03  0.27142792845E+03  0.32275516383E+03  0.00000000000E+00 0. -1.
          4    1    6    6  502    0  0.14333996954E+03  0.15216029918E+02 -0.11933276648E+03  0.18713146072E+03  0.00000000000E+00 0. -1.
          3    1    5    5  503    0 -0.13068080950E+03  0.69998708880E+02 -0.67762427116E+02  0.16300012191E+03  0.00000000000E+00 0. -1.
         -4    1    5    5    0  503 -0.18043592665E+03  0.43898539829E+02 -0.17738619215E+03  0.25680745042E+03  0.00000000000E+00 0.  1.
         -1    1    6    6    0  502  0.48598782220E+03  0.69747025816E+02 -0.22051999451E+03  0.53821731570E+03  0.00000000000E+00 0.  1.
<mgrwt>
<rscale>  0 0.17778542E+04</rscale>
<asrwt>0</asrwt>
<pdfrwt beam="1">  1        2 0.14317116E+00 0.17778542E+04</pdfrwt>
<pdfrwt beam="2">  1       -2 0.13063214E+00 0.17778542E+04</pdfrwt>
<totfact> 0.11345111E+01</totfact>
</mgrwt>
</event>
<event>
12    1  0.1536832E-007  0.2196061E+04  0.7818608E-02  0.8520069E-01
         -2   -1    0    0    0  501 -0.00000000000E+00  0.00000000000E+00  0.34305275881E+03  0.34305275881E+03  0.00000000000E+00 0.  1.
          2   -1    0    0  501    0  0.00000000000E+00 -0.00000000000E+00 -0.35145356310E+04  0.35145356310E+04  0.00000000000E+00 0. -1.
         23    2    1    2    0    0  0.43480260096E+03 -0.71211840695E+03 -0.67729212451E+03  0.10781049677E+04  0.86138099303E+02 0.  0.
        254    2    1    2    0    0 -0.43480260096E+03  0.71211840695E+03 -0.24941907477E+04  0.27794834221E+04  0.89909659136E+03 0.  0.
        -24    2    4    4    0    0 -0.24846974755E+03 -0.17028087849E+03 -0.51751581209E+03  0.60543785570E+03  0.89440417711E+02 0.  0.
         24    2    4    4    0    0 -0.18633285341E+03  0.88239928544E+03 -0.19766749356E+04  0.21740455664E+04  0.76693497754E+02 0.  0.
         13    1    3    3    0    0  0.17245734204E+03 -0.28111932152E+03 -0.21432861529E+03  0.39332729766E+03  0.00000000000E+00 0. -1.
        -13    1    3    3    0    0  0.26234525893E+03 -0.43099908542E+03 -0.46296350922E+03  0.68477767004E+03  0.00000000000E+00 0.  1.
          4    1    6    6  502    0 -0.16643423135E+03  0.79885747594E+03 -0.18369368265E+04  0.20100274935E+04  0.00000000000E+00 0. -1.
          3    1    5    5  503    0 -0.22043321731E+03 -0.11227901117E+03 -0.37782190996E+03  0.45160466704E+03  0.00000000000E+00 0. -1.
         -4    1    5    5    0  503 -0.28036530232E+02 -0.58001867317E+02 -0.13969390214E+03  0.15383318866E+03  0.00000000000E+00 0.  1.
         -3    1    6    6    0  502 -0.19898622069E+02  0.83541809505E+02 -0.13973810914E+03  0.16401807291E+03  0.00000000000E+00 0.  1.
<mgrwt>
<rscale>  0 0.21960612E+04</rscale>
<asrwt>0</asrwt>
<pdfrwt beam="1">  1        2 0.54069780E+00 0.21960612E+04</pdfrwt>
<pdfrwt beam="2">  1       -2 0.52777346E-01 0.21960612E+04</pdfrwt>
<totfact> 0.24678727E+00</totfact>
</mgrwt>
</event>
<event>
12    1  0.1536832E-007  0.2446970E+04  0.7818608E-02  0.8422125E-01
         -1   -1    0    0    0  501 -0.00000000000E+00  0.00000000000E+00  0.13002508544E+04  0.13002508544E+04  0.00000000000E+00 0.  1.
          1   -1    0    0  501    0  0.00000000000E+00 -0.00000000000E+00 -0.11512510862E+04  0.11512510862E+04  0.00000000000E+00 0. -1.
         23    2    1    2    0    0  0.78337471332E+02 -0.39503018659E+02 -0.99085966359E+03  0.99934836477E+03  0.95901164441E+02 0.  0.
        254    2    1    2    0    0 -0.78337471332E+02  0.39503018659E+02  0.11398594318E+04  0.14521535758E+04  0.89541791120E+03 0.  0.
        -24    2    4    4    0    0 -0.15125450390E+03 -0.29256314431E+03  0.97790593302E+02  0.35293677931E+03  0.80809972737E+02 0.  0.
         24    2    4    4    0    0  0.72917032573E+02  0.33206616297E+03  0.10420688385E+04  0.10992167965E+04  0.82372758833E+02 0.  0.
         13    1    3    3    0    0 -0.19547475984E+02 -0.22554005025E+02 -0.27864673453E+03  0.28024059239E+03  0.00000000000E+00 0. -1.
        -13    1    3    3    0    0  0.97884947316E+02 -0.16949013634E+02 -0.71221292906E+03  0.71910777238E+03  0.00000000000E+00 0.  1.
          4    1    6    6  502    0  0.89446723883E+02  0.24319394921E+03  0.79194629659E+03  0.83326043350E+03  0.00000000000E+00 0. -1.
          3    1    5    5  503    0 -0.10594066044E+03 -0.20426841473E+03  0.28427032754E+02  0.23185578488E+03  0.00000000000E+00 0. -1.
         -4    1    5    5    0  503 -0.45313843467E+02 -0.88294729576E+02  0.69363560549E+02  0.12108099443E+03  0.00000000000E+00 0.  1.
         -3    1    6    6    0  502 -0.16529691310E+02  0.88872213760E+02  0.25012254190E+03  0.26595636304E+03  0.00000000000E+00 0.  1.
<mgrwt>
<rscale>  0 0.24469697E+04</rscale>
<asrwt>0</asrwt>
<pdfrwt beam="1">  1        1 0.17711555E+00 0.24469697E+04</pdfrwt>
<pdfrwt beam="2">  1       -1 0.20003859E+00 0.24469697E+04</pdfrwt>
<totfact> 0.15582199E+00</totfact>
</mgrwt>
</event>
<event>
12    1  0.1536832E-007  0.1539381E+04  0.7818608E-02  0.8858679E-01
          1   -1    0    0  501    0  0.00000000000E+00  0.00000000000E+00  0.31579376354E+04  0.31579376354E+04  0.00000000000E+00 0. -1.
         -1   -1    0    0    0  501 -0.00000000000E+00 -0.00000000000E+00 -0.18759829742E+03  0.18759829742E+03  0.00000000000E+00 0.  1.
         23    2    1    2    0    0  0.48398912035E+03  0.47325226177E+02  0.12092538836E+04  0.13065880722E+04  0.91609442407E+02 0.  0.
        254    2    1    2    0    0 -0.48398912035E+03 -0.47325226177E+02  0.17610854544E+04  0.20389478606E+04  0.90520785171E+03 0.  0.
        -24    2    4    4    0    0 -0.53715632528E+03  0.15666529578E+03  0.17194872473E+04  0.18100489561E+04  0.80993191622E+02 0.  0.
         24    2    4    4    0    0  0.53167204929E+02 -0.20399052196E+03  0.41598207116E+02  0.22889890451E+03  0.78901285936E+02 0.  0.
         11    1    3    3    0    0  0.20968499825E+02 -0.13636139214E+02  0.36323185646E+02  0.44102109848E+02  0.00000000000E+00 0.  1.
        -11    1    3    3    0    0  0.46302062053E+03  0.60961365391E+02  0.11729306979E+04  0.12624859624E+04  0.00000000000E+00 0. -1.
          4    1    6    6  502    0  0.73496626516E+02 -0.15272919114E+03  0.37565913018E+02  0.17360632983E+03  0.00000000000E+00 0. -1.
          1    1    5    5  503    0 -0.41453405912E+03  0.12655016637E+03  0.12146906024E+04  0.12897002328E+04  0.00000000000E+00 0. -1.
         -2    1    5    5    0  503 -0.12262226616E+03  0.30115129412E+02  0.50479664486E+03  0.52034872330E+03  0.00000000000E+00 0.  1.
         -3    1    6    6    0  502 -0.20329421588E+02 -0.51261330824E+02  0.40322940988E+01  0.55292574688E+02  0.00000000000E+00 0.  1.
<mgrwt>
<rscale>  0 0.15393813E+04</rscale>
<asrwt>0</asrwt>
<pdfrwt beam="1">  1        1 0.48583652E+00 0.15393813E+04</pdfrwt>
<pdfrwt beam="2">  1       -1 0.28861279E-01 0.15393813E+04</pdfrwt>
<totfact> 0.48469376E+00</totfact>
</mgrwt>
</event>
<event>
12    1  0.1536832E-007  0.2447532E+04  0.7818608E-02  0.8421919E-01
         -2   -1    0    0    0  501 -0.00000000000E+00  0.00000000000E+00  0.78725461811E+03  0.78725461811E+03  0.00000000000E+00 0.  1.
          2   -1    0    0  501    0  0.00000000000E+00 -0.00000000000E+00 -0.19023118055E+04  0.19023118055E+04  0.00000000000E+00 0. -1.
         23    2    1    2    0    0 -0.38925185567E+03 -0.87692699313E+03 -0.54619015637E+02  0.96525143149E+03  0.90604253240E+02 0.  0.
        254    2    1    2    0    0  0.38925185567E+03  0.87692699313E+03 -0.10604381718E+04  0.17243149921E+04  0.96343921322E+03 0.  0.
        -24    2    4    4    0    0 -0.13653483905E+03  0.76886984356E+03 -0.80354901637E+03  0.11232146288E+04  0.78214333546E+02 0.  0.
         24    2    4    4    0    0  0.52578669472E+03  0.10805714957E+03 -0.25688915540E+03  0.60110036338E+03  0.84862316531E+02 0.  0.
         11    1    3    3    0    0 -0.37404172717E+03 -0.79582549329E+03 -0.66638633438E+02  0.88186514667E+03  0.00000000000E+00 0.  1.
        -11    1    3    3    0    0 -0.15210128499E+02 -0.81101499835E+02  0.12019617802E+02  0.83386284823E+02  0.00000000000E+00 0. -1.
          4    1    6    6  502    0  0.37386630225E+03  0.10656685442E+03 -0.21134996376E+03  0.44249442211E+03  0.00000000000E+00 0. -1.
          3    1    5    5  503    0 -0.11183760542E+03  0.58393622974E+03 -0.56324311205E+03  0.81898227921E+03  0.00000000000E+00 0. -1.
         -4    1    5    5    0  503 -0.24697233631E+02  0.18493361382E+03 -0.24030590432E+03  0.30423234956E+03  0.00000000000E+00 0.  1.
         -3    1    6    6    0  502  0.15192039247E+03  0.14902951494E+01 -0.45539191641E+02  0.15860594126E+03  0.00000000000E+00 0.  1.
<mgrwt>
<rscale>  0 0.24475324E+04</rscale>
<asrwt>0</asrwt>
<pdfrwt beam="1">  1        2 0.29266335E+00 0.24475324E+04</pdfrwt>
<pdfrwt beam="2">  1       -2 0.12111610E+00 0.24475324E+04</pdfrwt>
<totfact> 0.35191326E+00</totfact>
</mgrwt>
</event>
<event>
12    1  0.1536832E-007  0.3520449E+04  0.7818608E-02  0.8108961E-01
         -2   -1    0    0    0  501 -0.00000000000E+00  0.00000000000E+00  0.17860115213E+04  0.17860115213E+04  0.00000000000E+00 0.  1.
          2   -1    0    0  501    0  0.00000000000E+00 -0.00000000000E+00 -0.17348101540E+04  0.17348101540E+04  0.00000000000E+00 0. -1.
         23    2    1    2    0    0 -0.31183776434E+03  0.45502695074E+03 -0.15261711350E+04  0.16253684507E+04  0.91279515746E+02 0.  0.
        254    2    1    2    0    0  0.31183776434E+03 -0.45502695074E+03  0.15773725023E+04  0.18954532246E+04  0.89462092439E+03 0.  0.
        -24    2    4    4    0    0  0.45733557110E+03 -0.57515337977E+03  0.15056725706E+04  0.16771753150E+04  0.76875954580E+02 0.  0.
         24    2    4    4    0    0 -0.14549780676E+03  0.12012642903E+03  0.71699931690E+02  0.21827790960E+03  0.83092688575E+02 0.  0.
         13    1    3    3    0    0 -0.45342090274E+02  0.12222403880E+03 -0.29691020398E+03  0.32426885456E+03  0.00000000000E+00 0.  1.
        -13    1    3    3    0    0 -0.26649567407E+03  0.33280291195E+03 -0.12292609311E+04  0.13010995962E+04  0.00000000000E+00 0. -1.
          4    1    6    6  502    0 -0.62486923166E+01 -0.12414909088E+02  0.40112824890E+01  0.14466046818E+02  0.00000000000E+00 0. -1.
          1    1    5    5  503    0  0.61881170883E+01 -0.89778356143E+01  0.52980232745E+02  0.54090658964E+02  0.00000000000E+00 0. -1.
         -2    1    5    5    0  503  0.45114745401E+03 -0.56617554416E+03  0.14526923379E+04  0.16230846560E+04  0.00000000000E+00 0.  1.
         -3    1    6    6    0  502 -0.13924911444E+03  0.13254133811E+03  0.67688649201E+02  0.20381186278E+03  0.00000000000E+00 0.  1.
<mgrwt>
<rscale>  0 0.35204494E+04</rscale>
<asrwt>0</asrwt>
<pdfrwt beam="1">  1        2 0.26689387E+00 0.35204494E+04</pdfrwt>
<pdfrwt beam="2">  1       -2 0.27477100E+00 0.35204494E+04</pdfrwt>
<totfact> 0.34872135E-01</totfact>
</mgrwt>
</event>
<event>
12    1  0.1536832E-007  0.1579529E+04  0.7818608E-02  0.8833224E-01
         -1   -1    0    0    0  501 -0.00000000000E+00  0.00000000000E+00  0.29073249067E+03  0.29073249067E+03  0.00000000000E+00 0.  1.
          1   -1    0    0  501    0  0.00000000000E+00 -0.00000000000E+00 -0.21453660007E+04  0.21453660007E+04  0.00000000000E+00 0. -1.
         23    2    1    2    0    0 -0.16769321928E+03 -0.48692949360E+03 -0.81087013659E+03  0.96497794555E+03  0.91927740399E+02 0.  0.
        254    2    1    2    0    0  0.16769321928E+03  0.48692949360E+03 -0.10437633735E+04  0.14711205458E+04  0.89974014753E+03 0.  0.
        -24    2    4    4    0    0  0.15767862359E+03 -0.16103215390E+03 -0.68839163140E+03  0.72781071332E+03  0.70933019900E+02 0.  0.
         24    2    4    4    0    0  0.10014595689E+02  0.64796164750E+03 -0.35537174205E+03  0.74330983251E+03  0.79157079892E+02 0.  0.
         13    1    3    3    0    0 -0.12628795737E+03 -0.37749517620E+03 -0.54868179359E+03  0.67786648158E+03  0.00000000000E+00 0.  1.
        -13    1    3    3    0    0 -0.41405261903E+02 -0.10943431740E+03 -0.26218834300E+03  0.28711146397E+03  0.00000000000E+00 0. -1.
          4    1    6    6  502    0  0.18916586023E+01  0.62435514427E+03 -0.32463584009E+03  0.70371255014E+03  0.00000000000E+00 0. -1.
          1    1    5    5  503    0  0.81018255800E+02 -0.93599091271E+02 -0.48065141199E+03  0.49633711075E+03  0.00000000000E+00 0. -1.
         -2    1    5    5    0  503  0.76660367787E+02 -0.67433062632E+02 -0.20774021940E+03  0.23147360256E+03  0.00000000000E+00 0.  1.
         -3    1    6    6    0  502  0.81229370866E+01  0.23606503228E+02 -0.30735901967E+02  0.39597282373E+02  0.00000000000E+00 0.  1.
<mgrwt>
<rscale>  0 0.15795285E+04</rscale>
<asrwt>0</asrwt>
<pdfrwt beam="1">  1        1 0.33005631E+00 0.15795285E+04</pdfrwt>
<pdfrwt beam="2">  1       -1 0.44728075E-01 0.15795285E+04</pdfrwt>
<totfact> 0.11309331E+01</totfact>
</mgrwt>
</event>
<event>
12    1  0.1536832E-007  0.1466032E+04  0.7818608E-02  0.8907361E-01
         -2   -1    0    0    0  501 -0.00000000000E+00  0.00000000000E+00  0.31391748439E+03  0.31391748439E+03  0.00000000000E+00 0.  1.
          2   -1    0    0  501    0  0.00000000000E+00 -0.00000000000E+00 -0.17116359739E+04  0.17116359739E+04  0.00000000000E+00 0. -1.
         23    2    1    2    0    0  0.37621455877E+03  0.24405322677E+03 -0.55122796350E+03  0.71641749261E+03  0.91117420080E+02 0.  0.
        254    2    1    2    0    0 -0.37621455877E+03 -0.24405322677E+03 -0.84649052597E+03  0.13091359656E+04  0.89229557560E+03 0.  0.
        -24    2    4    4    0    0 -0.48837904254E+03  0.57531648909E+02 -0.84008982357E+03  0.97674789113E+03  0.80383775389E+02 0.  0.
         24    2    4    4    0    0  0.11216448377E+03 -0.30158487568E+03 -0.64007024013E+01  0.33238807450E+03  0.83105682261E+02 0.  0.
         13    1    3    3    0    0  0.16082229282E+03  0.13635804637E+03 -0.20039494272E+03  0.29088736608E+03  0.00000000000E+00 0.  1.
        -13    1    3    3    0    0  0.21539226595E+03  0.10769518040E+03 -0.35083302078E+03  0.42553012653E+03  0.00000000000E+00 0. -1.
          2    1    6    6  502    0  0.87367128571E+02 -0.14077662382E+03 -0.28723346928E+02  0.16815499882E+03  0.00000000000E+00 0. -1.
          1    1    5    5  503    0 -0.45831402276E+03  0.35780449246E+02 -0.75541085100E+03  0.88429493825E+03  0.00000000000E+00 0. -1.
         -2    1    5    5    0  503 -0.30065019784E+02  0.21751199663E+02 -0.84678972567E+02  0.92452952881E+02  0.00000000000E+00 0.  1.
         -1    1    6    6    0  502  0.24797355200E+02 -0.16080825186E+03  0.22322644527E+02  0.16423307569E+03  0.00000000000E+00 0.  1.
<mgrwt>
<rscale>  0 0.14660320E+04</rscale>
<asrwt>0</asrwt>
<pdfrwt beam="1">  1        2 0.26332861E+00 0.14660320E+04</pdfrwt>
<pdfrwt beam="2">  1       -2 0.48294997E-01 0.14660320E+04</pdfrwt>
<totfact> 0.38004134E+01</totfact>
</mgrwt>
</event>
<event>
12    1  0.1536832E-007  0.1655768E+04  0.7818608E-02  0.8787002E-01
         -2   -1    0    0    0  501 -0.00000000000E+00  0.00000000000E+00  0.23955386825E+03  0.23955386825E+03  0.00000000000E+00 0.  1.
          2   -1    0    0  501    0  0.00000000000E+00 -0.00000000000E+00 -0.28611175142E+04  0.28611175142E+04  0.00000000000E+00 0. -1.
         23    2    1    2    0    0 -0.57011745314E+02  0.22212363516E+03 -0.19064494794E+04  0.19224474270E+04  0.93087289426E+02 0.  0.
        254    2    1    2    0    0  0.57011745314E+02 -0.22212363516E+03 -0.71511416648E+03  0.11782239554E+04  0.90787343261E+03 0.  0.
        -24    2    4    4    0    0  0.27180014258E+03 -0.25481446344E+02 -0.81288278373E+03  0.86119315962E+03  0.79690755220E+02 0.  0.
         24    2    4    4    0    0 -0.21478839727E+03 -0.19664218882E+03  0.97768617254E+02  0.31703079581E+03  0.78406740450E+02 0.  0.
         11    1    3    3    0    0 -0.54456885676E+02  0.18727378226E+03 -0.12552242448E+04  0.12702853722E+04  0.00000000000E+00 0. -1.
        -11    1    3    3    0    0 -0.25548596381E+01  0.34849852902E+02 -0.65122523459E+03  0.65216205480E+03  0.00000000000E+00 0.  1.
          2    1    6    6  502    0 -0.38174007728E+02 -0.18002320510E+01  0.17852289765E+02  0.42180563668E+02  0.00000000000E+00 0. -1.
          1    1    5    5  503    0  0.96742058845E+02 -0.32735452111E+02 -0.39665133817E+03  0.40958872036E+03  0.00000000000E+00 0. -1.
         -2    1    5    5    0  503  0.17505808374E+03  0.72540057668E+01 -0.41623144556E+03  0.45160443925E+03  0.00000000000E+00 0.  1.
         -1    1    6    6    0  502 -0.17661438954E+03 -0.19484195677E+03  0.79916327489E+02  0.27485023214E+03  0.00000000000E+00 0.  1.
<mgrwt>
<rscale>  0 0.16557678E+04</rscale>
<asrwt>0</asrwt>
<pdfrwt beam="1">  1        2 0.44017186E+00 0.16557678E+04</pdfrwt>
<pdfrwt beam="2">  1       -2 0.36854446E-01 0.16557678E+04</pdfrwt>
<totfact> 0.14116807E+01</totfact>
</mgrwt>
</event>
<event>
12    1  0.1536832E-007  0.1211302E+04  0.7818608E-02  0.9103021E-01
          1   -1    0    0  501    0  0.00000000000E+00  0.00000000000E+00  0.20768405433E+04  0.20768405433E+04  0.00000000000E+00 0. -1.
         -1   -1    0    0    0  501 -0.00000000000E+00 -0.00000000000E+00 -0.17662087473E+03  0.17662087473E+03  0.00000000000E+00 0.  1.
         23    2    1    2    0    0 -0.18469044566E+03  0.33576630655E+02  0.72786839912E+03  0.75728229584E+03  0.91902765476E+02 0.  0.
        254    2    1    2    0    0  0.18469044566E+03 -0.33576630655E+02  0.11723512694E+04  0.14961791222E+04  0.91044303275E+03 0.  0.
        -24    2    4    4    0    0  0.73436647709E+02 -0.41828368197E+03  0.28029340637E+03  0.51518466784E+03  0.80601913731E+02 0.  0.
         24    2    4    4    0    0  0.11125379795E+03  0.38470705132E+03  0.89205786306E+03  0.98099445434E+03  0.78777950633E+02 0.  0.
         13    1    3    3    0    0 -0.62590877885E+02 -0.29959060498E+02  0.19713627139E+03  0.20899251852E+03  0.00000000000E+00 0. -1.
        -13    1    3    3    0    0 -0.12209956778E+03  0.63535691153E+02  0.53073212773E+03  0.54828977731E+03  0.00000000000E+00 0.  1.
          4    1    6    6  502    0  0.31883525657E+02  0.19738185890E+03  0.51692483310E+03  0.55424492827E+03  0.00000000000E+00 0. -1.
          3    1    5    5  503    0  0.59586221853E+02 -0.36320816367E+03  0.27228669318E+03  0.45783264549E+03  0.00000000000E+00 0. -1.
         -4    1    5    5    0  503  0.13850425856E+02 -0.55075518301E+02  0.80067131946E+01  0.57352022359E+02  0.00000000000E+00 0.  1.
         -1    1    6    6    0  502  0.79370272296E+02  0.18732519242E+03  0.37513302995E+03  0.42674952607E+03  0.00000000000E+00 0.  1.
<mgrwt>
<rscale>  0 0.12113024E+04</rscale>
<asrwt>0</asrwt>
<pdfrwt beam="1">  1        1 0.31951391E+00 0.12113024E+04</pdfrwt>
<pdfrwt beam="2">  1       -1 0.27172444E-01 0.12113024E+04</pdfrwt>
<totfact> 0.31773553E+01</totfact>
</mgrwt>
</event>
<event>
12    1  0.1536832E-007  0.1626141E+04  0.7818608E-02  0.8804647E-01
          2   -1    0    0  501    0  0.00000000000E+00  0.00000000000E+00  0.19026142867E+04  0.19026142867E+04  0.00000000000E+00 0. -1.
         -2   -1    0    0    0  501 -0.00000000000E+00 -0.00000000000E+00 -0.34746088195E+03  0.34746088195E+03  0.00000000000E+00 0.  1.
         23    2    1    2    0    0  0.14012261426E+03 -0.13545116254E+02 -0.20830809801E+03  0.26122802921E+03  0.70922509458E+02 0.  0.
        254    2    1    2    0    0 -0.14012261426E+03  0.13545116254E+02  0.17634615027E+04  0.19888471394E+04  0.90878966493E+03 0.  0.
        -24    2    4    4    0    0  0.20816197064E+03 -0.69358767036E+02  0.15476943651E+04  0.15648066760E+04  0.71554460347E+02 0.  0.
         24    2    4    4    0    0 -0.34828458490E+03  0.82903883291E+02  0.21576713761E+03  0.42404046342E+03  0.71271670386E+02 0.  0.
         11    1    3    3    0    0  0.30979393719E+02  0.27066457580E+02 -0.51813899027E+02  0.66158870104E+02  0.00000000000E+00 0. -1.
        -11    1    3    3    0    0  0.10914322054E+03 -0.40611573834E+02 -0.15649419899E+03  0.19506915911E+03  0.00000000000E+00 0.  1.
          4    1    6    6  502    0 -0.60247255889E+02 -0.23358268659E+01  0.62393864626E+02  0.86765098238E+02  0.00000000000E+00 0. -1.
          3    1    5    5  503    0  0.84750960778E+02 -0.79286995365E+01  0.40653005155E+03  0.41534596717E+03  0.00000000000E+00 0. -1.
         -4    1    5    5    0  503  0.12341100986E+03 -0.61430067500E+02  0.11411643136E+04  0.11494607088E+04  0.00000000000E+00 0.  1.
         -3    1    6    6    0  502 -0.28803732901E+03  0.85239710157E+02  0.15337327299E+03  0.33727536518E+03  0.00000000000E+00 0.  1.
<mgrwt>
<rscale>  0 0.16261415E+04</rscale>
<asrwt>0</asrwt>
<pdfrwt beam="1">  1        2 0.29270988E+00 0.16261415E+04</pdfrwt>
<pdfrwt beam="2">  1       -2 0.53455521E-01 0.16261415E+04</pdfrwt>
<totfact> 0.23890072E+01</totfact>
</mgrwt>
</event>
<event>
12    1  0.1536832E-007  0.1803162E+04  0.7818608E-02  0.8704620E-01
         -2   -1    0    0    0  501 -0.00000000000E+00  0.00000000000E+00  0.79900170717E+03  0.79900170717E+03  0.00000000000E+00 0. -1.
          2   -1    0    0  501    0  0.00000000000E+00 -0.00000000000E+00 -0.10173301264E+04  0.10173301264E+04  0.00000000000E+00 0.  1.
         23    2    1    2    0    0  0.75426959492E+02  0.67111704490E+03 -0.12315078385E+03  0.69246214420E+03  0.90831665292E+02 0.  0.
        254    2    1    2    0    0 -0.75426959492E+02 -0.67111704490E+03 -0.95177635337E+02  0.11238696893E+04  0.89327318450E+03 0.  0.
        -24    2    4    4    0    0 -0.83265629008E+02  0.86601676273E+02 -0.30181047382E+03  0.33447429686E+03  0.79689885469E+02 0.  0.
         24    2    4    4    0    0  0.78386695167E+01 -0.75771872117E+03  0.20663283848E+03  0.78939539246E+03  0.79049671449E+02 0.  0.
         13    1    3    3    0    0  0.34300130999E+02  0.56931673858E+03 -0.11874920256E+03  0.58257996955E+03  0.00000000000E+00 0. -1.
        -13    1    3    3    0    0  0.41126828493E+02  0.10180030632E+03 -0.44015812933E+01  0.10988217465E+03  0.00000000000E+00 0.  1.
          4    1    6    6  502    0  0.34302720876E+02 -0.44861982759E+03  0.14821730764E+03  0.47371383413E+03  0.00000000000E+00 0. -1.
          1    1    5    5  503    0 -0.65425594890E+02  0.71311560881E+02 -0.29430553555E+03  0.30980896604E+03  0.00000000000E+00 0. -1.
         -2    1    5    5    0  503 -0.17840034118E+02  0.15290115392E+02 -0.75049382648E+01  0.24665330819E+02  0.00000000000E+00 0.  1.
         -3    1    6    6    0  502 -0.26464051359E+02 -0.30909889358E+03  0.58415530837E+02  0.31568155833E+03  0.00000000000E+00 0.  1.
<mgrwt>
<rscale>  0 0.18031622E+04</rscale>
<asrwt>0</asrwt>
<pdfrwt beam="1">  1        2 0.15651233E+00 0.18031622E+04</pdfrwt>
<pdfrwt beam="2">  1       -2 0.12292334E+00 0.18031622E+04</pdfrwt>
<totfact> 0.11588432E+01</totfact>
</mgrwt>
</event>
<event>
12    1  0.1536832E-007  0.1557631E+04  0.7818608E-02  0.8847008E-01
         -1   -1    0    0    0  501 -0.00000000000E+00  0.00000000000E+00  0.77769464797E+03  0.77769464797E+03  0.00000000000E+00 0.  1.
          1   -1    0    0  501    0  0.00000000000E+00 -0.00000000000E+00 -0.77993805149E+03  0.77993805149E+03  0.00000000000E+00 0. -1.
         23    2    1    2    0    0  0.35846454288E+03 -0.34110822724E+03 -0.21144867854E+03  0.54668430154E+03  0.96444443590E+02 0.  0.
        254    2    1    2    0    0 -0.35846454288E+03  0.34110822724E+03  0.20920527503E+03  0.10109483979E+04  0.85638669125E+03 0.  0.
        -24    2    4    4    0    0  0.17538112060E+03  0.39512139426E+03  0.39159383609E+02  0.44253272218E+03  0.86152766716E+02 0.  0.
         24    2    4    4    0    0 -0.53384566348E+03 -0.54013167025E+02  0.17004589142E+03  0.56841567573E+03  0.79196973459E+02 0.  0.
         11    1    3    3    0    0  0.12164791589E+03 -0.10911478783E+03 -0.12013580817E+03  0.20282224919E+03  0.00000000000E+00 0.  1.
        -11    1    3    3    0    0  0.23681662699E+03 -0.23199343940E+03 -0.91312870376E+02  0.34386205235E+03  0.00000000000E+00 0. -1.
          4    1    6    6  502    0 -0.48806380418E+03 -0.70710795162E+02  0.16157194601E+03  0.51895258669E+03  0.00000000000E+00 0. -1.
          1    1    5    5  503    0  0.16700195503E+03  0.31004710223E+03  0.10323639060E+02  0.35231439952E+03  0.00000000000E+00 0. -1.
         -2    1    5    5    0  503  0.83791655627E+01  0.85074292034E+02  0.28835744549E+02  0.90218322664E+02  0.00000000000E+00 0.  1.
         -3    1    6    6    0  502 -0.45781859302E+02  0.16697628137E+02  0.84739454104E+01  0.49463089040E+02  0.00000000000E+00 0.  1.
<mgrwt>
<rscale>  0 0.15576311E+04</rscale>
<asrwt>0</asrwt>
<pdfrwt beam="1">  1        1 0.11999047E+00 0.15576311E+04</pdfrwt>
<pdfrwt beam="2">  1       -1 0.11964533E+00 0.15576311E+04</pdfrwt>
<totfact> 0.13829629E+01</totfact>
</mgrwt>
</event>
<event>
12    1  0.1536832E-007  0.2215917E+04  0.7818608E-02  0.8511832E-01
          2   -1    0    0  501    0  0.00000000000E+00  0.00000000000E+00  0.13596684014E+04  0.13596684014E+04  0.00000000000E+00 0.  1.
         -2   -1    0    0    0  501 -0.00000000000E+00 -0.00000000000E+00 -0.90284674639E+03  0.90284674639E+03  0.00000000000E+00 0. -1.
         23    2    1    2    0    0  0.39646106734E+03  0.45459004556E+03 -0.52046873044E+03  0.80463091729E+03  0.11273742171E+03 0.  0.
        254    2    1    2    0    0 -0.39646106734E+03 -0.45459004556E+03  0.97729038544E+03  0.14578842305E+04  0.89805147102E+03 0.  0.
        -24    2    4    4    0    0 -0.35970625591E+03  0.54437059876E+02  0.22772399598E+02  0.37244960026E+03  0.76473122840E+02 0.  0.
         24    2    4    4    0    0 -0.36754811431E+02 -0.50902710544E+03  0.95451798584E+03  0.10854346302E+04  0.81266481315E+02 0.  0.
         13    1    3    3    0    0  0.26081201920E+03  0.35699899548E+03 -0.41903523853E+03  0.60914835899E+03  0.00000000000E+00 0. -1.
        -13    1    3    3    0    0  0.13564904814E+03  0.97591050079E+02 -0.10143349191E+03  0.19548255830E+03  0.00000000000E+00 0.  1.
          2    1    6    6  502    0 -0.50331254288E+02 -0.33077916367E+03  0.67974083048E+03  0.75762503054E+03  0.00000000000E+00 0. -1.
          1    1    5    5  503    0 -0.34615168466E+03  0.66998789784E+02  0.16603120793E+02  0.35296669849E+03  0.00000000000E+00 0. -1.
         -2    1    5    5    0  503 -0.13554571253E+02 -0.12561729907E+02  0.61692788055E+01  0.19482901763E+02  0.00000000000E+00 0.  1.
         -3    1    6    6    0  502  0.13576442857E+02 -0.17824794176E+03  0.27477715536E+03  0.32780959969E+03  0.00000000000E+00 0.  1.
<mgrwt>
<rscale>  0 0.22159171E+04</rscale>
<asrwt>0</asrwt>
<pdfrwt beam="1">  1        2 0.20917976E+00 0.22159171E+04</pdfrwt>
<pdfrwt beam="2">  1       -2 0.13889950E+00 0.22159171E+04</pdfrwt>
<totfact> 0.51091052E+00</totfact>
</mgrwt>
</event>
<event>
12    1  0.1536832E-007  0.1091377E+04  0.7818608E-02  0.9213637E-01
          3   -1    0    0  501    0  0.00000000000E+00  0.00000000000E+00  0.12344331159E+03  0.12344331159E+03  0.00000000000E+00 0. -1.
         -3   -1    0    0    0  501 -0.00000000000E+00 -0.00000000000E+00 -0.24122501126E+04  0.24122501126E+04  0.00000000000E+00 0.  1.
         23    2    1    2    0    0 -0.15054705911E+03  0.21599697981E+02 -0.38128897017E+03  0.42120859094E+03  0.94363310405E+02 0.  0.
        254    2    1    2    0    0  0.15054705911E+03 -0.21599697981E+02 -0.19075178309E+04  0.21144848333E+04  0.89960595326E+03 0.  0.
        -24    2    4    4    0    0  0.17072952106E+03 -0.15107110160E+03 -0.44195242460E+02  0.24483001246E+03  0.77572343297E+02 0.  0.
         24    2    4    4    0    0 -0.20182461944E+02  0.12947140362E+03 -0.18633225884E+04  0.18696548208E+04  0.80423282857E+02 0.  0.
         11    1    3    3    0    0 -0.45560630149E+02  0.11091908735E+02 -0.24182496604E+03  0.24632928299E+03  0.00000000000E+00 0.  1.
        -11    1    3    3    0    0 -0.10498642897E+03  0.10507789246E+02 -0.13946400413E+03  0.17487930795E+03  0.00000000000E+00 0. -1.
          4    1    6    6  502    0  0.16834386893E+02  0.78163653894E+01 -0.51889410570E+03  0.51922594801E+03  0.00000000000E+00 0. -1.
          1    1    5    5  503    0  0.34256563389E+02 -0.38876034703E+02  0.21827816675E+02  0.56225543930E+02  0.00000000000E+00 0. -1.
         -2    1    5    5    0  503  0.13647295767E+03 -0.11219506690E+03 -0.66023059135E+02  0.18860446853E+03  0.00000000000E+00 0.  1.
         -3    1    6    6    0  502 -0.37016848837E+02  0.12165503823E+03 -0.13444284827E+04  0.13504288728E+04  0.00000000000E+00 0.  1.
<mgrwt>
<rscale>  0 0.10913774E+04</rscale>
<asrwt>0</asrwt>
<pdfrwt beam="1">  1        3 0.18991280E-01 0.10913774E+04</pdfrwt>
<pdfrwt beam="2">  1       -3 0.37111537E+00 0.10913774E+04</pdfrwt>
<totfact> 0.10246410E+00</totfact>
</mgrwt>
</event>
<event>
12    1  0.1536832E-007  0.2530454E+04  0.7818608E-02  0.8392216E-01
         -1   -1    0    0    0  501 -0.00000000000E+00  0.00000000000E+00  0.77598787124E+03  0.77598787124E+03  0.00000000000E+00 0.  1.
          1   -1    0    0  501    0  0.00000000000E+00 -0.00000000000E+00 -0.20629176281E+04  0.20629176281E+04  0.00000000000E+00 0. -1.
         23    2    1    2    0    0  0.43850216223E+03 -0.51915659383E+03  0.41135901699E+03  0.80026920543E+03  0.96988891604E+02 0.  0.
        254    2    1    2    0    0 -0.43850216223E+03  0.51915659383E+03 -0.16982887739E+04  0.20386362939E+04  0.90002525758E+03 0.  0.
        -24    2    4    4    0    0 -0.23498478152E+02 -0.20297792895E+03 -0.11191813538E+03  0.24513635912E+03  0.76249245374E+02 0.  0.
         24    2    4    4    0    0 -0.41500368408E+03  0.72213452277E+03 -0.15863706385E+04  0.17934999348E+04  0.79773972764E+02 0.  0.
         13    1    3    3    0    0  0.11799857400E+03 -0.16477428894E+03  0.75729249517E+02  0.21635422112E+03  0.00000000000E+00 0. -1.
        -13    1    3    3    0    0  0.32050358823E+03 -0.35438230489E+03  0.33562976748E+03  0.58391498431E+03  0.00000000000E+00 0.  1.
          4    1    6    6  502    0 -0.35368516436E+03  0.55935610568E+03 -0.12201978430E+04  0.13881121080E+04  0.00000000000E+00 0. -1.
          1    1    5    5  503    0 -0.18448914942E+02 -0.20576038195E+03 -0.95226376693E+02  0.22747694402E+03  0.00000000000E+00 0. -1.
         -2    1    5    5    0  503 -0.50495632102E+01  0.27824530090E+01 -0.16691758688E+02  0.17659415094E+02  0.00000000000E+00 0.  1.
         -3    1    6    6    0  502 -0.61318519725E+02  0.16277841710E+03 -0.36617279549E+03  0.40538782677E+03  0.00000000000E+00 0.  1.
<mgrwt>
<rscale>  0 0.25304538E+04</rscale>
<asrwt>0</asrwt>
<pdfrwt beam="1">  1        1 0.31737194E+00 0.25304538E+04</pdfrwt>
<pdfrwt beam="2">  1       -1 0.11938275E+00 0.25304538E+04</pdfrwt>
<totfact> 0.15000410E+00</totfact>
</mgrwt>
</event>
<event>
12    1  0.1536832E-007  0.1982682E+04  0.7818608E-02  0.8614760E-01
          2   -1    0    0  501    0  0.00000000000E+00  0.00000000000E+00  0.13548430813E+04  0.13548430813E+04  0.00000000000E+00 0. -1.
         -2   -1    0    0    0  501 -0.00000000000E+00 -0.00000000000E+00 -0.72536624047E+03  0.72536624047E+03  0.00000000000E+00 0.  1.
         23    2    1    2    0    0  0.44952060579E+03  0.33987684966E+03 -0.32358222649E+03  0.65601419693E+03  0.89800452704E+02 0.  0.
        254    2    1    2    0    0 -0.44952060579E+03 -0.33987684966E+03  0.95305906729E+03  0.14241951248E+04  0.89578184835E+03 0.  0.
        -24    2    4    4    0    0 -0.14702740178E+03 -0.26854213607E+03  0.10436752423E+04  0.10906411461E+04  0.80673182972E+02 0.  0.
         24    2    4    4    0    0 -0.30249320402E+03 -0.71334713592E+02 -0.90616174958E+02  0.33355397877E+03  0.80350393586E+02 0.  0.
         11    1    3    3    0    0  0.28725013143E+03  0.16736525197E+03 -0.16645495725E+03  0.37179432267E+03  0.00000000000E+00 0.  1.
        -11    1    3    3    0    0  0.16227047436E+03  0.17251159769E+03 -0.15712726924E+03  0.28421987426E+03  0.00000000000E+00 0. -1.
          4    1    6    6  502    0 -0.30252203372E+03 -0.59658139365E+02 -0.82067937777E+02  0.31908278063E+03  0.00000000000E+00 0. -1.
          1    1    5    5  503    0 -0.99020837254E+02 -0.14892284607E+03  0.72846239155E+03  0.75009372494E+03  0.00000000000E+00 0. -1.
         -2    1    5    5    0  503 -0.48006564523E+02 -0.11961929000E+03  0.31521285070E+03  0.34054742111E+03  0.00000000000E+00 0.  1.
         -3    1    6    6    0  502  0.28829706584E-01 -0.11676574227E+02 -0.85482371816E+01  0.14471198144E+02  0.00000000000E+00 0.  1.
<mgrwt>
<rscale>  0 0.19826825E+04</rscale>
<asrwt>0</asrwt>
<pdfrwt beam="1">  1        2 0.20843740E+00 0.19826825E+04</pdfrwt>
<pdfrwt beam="2">  1       -2 0.11159481E+00 0.19826825E+04</pdfrwt>
<totfact> 0.90697864E+00</totfact>
</mgrwt>
</event>
<event>
12    1  0.1536832E-007  0.2911691E+04  0.7818608E-02  0.8269407E-01
          2   -1    0    0  501    0  0.00000000000E+00  0.00000000000E+00  0.16667742138E+04  0.16667742138E+04  0.00000000000E+00 0.  1.
         -2   -1    0    0    0  501 -0.00000000000E+00 -0.00000000000E+00 -0.12716098912E+04  0.12716098912E+04  0.00000000000E+00 0. -1.
         23    2    1    2    0    0  0.96275469910E+03  0.16975245963E+02  0.10817676188E+04  0.14509611423E+04  0.88782239107E+02 0.  0.
        254    2    1    2    0    0 -0.96275469910E+03 -0.16975245963E+02 -0.68660329623E+03  0.14874229626E+04  0.90211873596E+03 0.  0.
        -24    2    4    4    0    0 -0.64089686698E+03  0.97930491173E+02 -0.87131248588E+03  0.10888875494E+04  0.78431319576E+02 0.  0.
         24    2    4    4    0    0 -0.32185783212E+03 -0.11490573714E+03  0.18470918965E+03  0.39853541328E+03  0.88978639993E+02 0.  0.
         13    1    3    3    0    0  0.40184845424E+03  0.61098274042E+01  0.38657352047E+03  0.55763661724E+03  0.00000000000E+00 0.  1.
        -13    1    3    3    0    0  0.56090624487E+03  0.10865418559E+02  0.69519409830E+03  0.89332452511E+03  0.00000000000E+00 0. -1.
          4    1    6    6  502    0 -0.31311274216E+03 -0.10297514812E+03  0.19261352216E+03  0.38176359093E+03  0.00000000000E+00 0. -1.
          1    1    5    5  503    0 -0.52692280327E+03  0.66774272499E+02 -0.75481592645E+03  0.92295911443E+03  0.00000000000E+00 0. -1.
         -2    1    5    5    0  503 -0.11397406371E+03  0.31156218675E+02 -0.11649655942E+03  0.16592843493E+03  0.00000000000E+00 0.  1.
         -3    1    6    6    0  502 -0.87450899606E+01 -0.11930589012E+02 -0.79043325196E+01  0.16771822357E+02  0.00000000000E+00 0.  1.
<mgrwt>
<rscale>  0 0.29116913E+04</rscale>
<asrwt>0</asrwt>
<pdfrwt beam="1">  1        2 0.25642680E+00 0.29116913E+04</pdfrwt>
<pdfrwt beam="2">  1       -2 0.19563229E+00 0.29116913E+04</pdfrwt>
<totfact> 0.12543793E+00</totfact>
</mgrwt>
</event>
<event>
12    1  0.1536832E-007  0.2737491E+04  0.7818608E-02  0.8322942E-01
         -2   -1    0    0    0  501 -0.00000000000E+00  0.00000000000E+00  0.11017441057E+04  0.11017441057E+04  0.00000000000E+00 0.  1.
          2   -1    0    0  501    0  0.00000000000E+00 -0.00000000000E+00 -0.17004535567E+04  0.17004535567E+04  0.00000000000E+00 0. -1.
         23    2    1    2    0    0 -0.40919694952E+03  0.24039853265E+03 -0.14321028360E+04  0.15117799562E+04  0.96573832574E+02 0.  0.
        254    2    1    2    0    0  0.40919694952E+03 -0.24039853265E+03  0.83339338496E+03  0.12904177063E+04  0.86336534833E+03 0.  0.
        -24    2    4    4    0    0  0.76337891562E+02  0.29552298887E+03  0.12858155745E+03  0.34122971616E+03  0.82116938783E+02 0.  0.
         24    2    4    4    0    0  0.33285905796E+03 -0.53592152151E+03  0.70481182750E+03  0.94918799016E+03  0.78683535715E+02 0.  0.
         11    1    3    3    0    0 -0.25884033317E+03  0.17882136074E+03 -0.10611729656E+04  0.11068258490E+04  0.00000000000E+00 0. -1.
        -11    1    3    3    0    0 -0.15035661635E+03  0.61577171903E+02 -0.37092987036E+03  0.40495410715E+03  0.00000000000E+00 0.  1.
          2    1    6    6  502    0  0.24397844270E+03 -0.32744683703E+03  0.47565097296E+03  0.62688975080E+03  0.00000000000E+00 0. -1.
          3    1    5    5  503    0  0.73360524385E+02  0.21371874828E+03  0.58348214517E+02  0.23337091516E+03  0.00000000000E+00 0. -1.
         -4    1    5    5    0  503  0.29773671773E+01  0.81804240590E+02  0.70233342935E+02  0.10785880100E+03  0.00000000000E+00 0.  1.
         -3    1    6    6    0  502  0.88880615261E+02 -0.20847468449E+03  0.22916085454E+03  0.32229823936E+03  0.00000000000E+00 0.  1.
<mgrwt>
<rscale>  0 0.27374913E+04</rscale>
<asrwt>0</asrwt>
<pdfrwt beam="1">  1        2 0.26160824E+00 0.27374913E+04</pdfrwt>
<pdfrwt beam="2">  1       -2 0.16949909E+00 0.27374913E+04</pdfrwt>
<totfact> 0.18424126E+00</totfact>
</mgrwt>
</event>
<event>
12    1  0.1536832E-007  0.1565443E+04  0.7818608E-02  0.8842064E-01
         -2   -1    0    0    0  501 -0.00000000000E+00  0.00000000000E+00  0.20941964415E+03  0.20941964415E+03  0.00000000000E+00 0.  1.
          2   -1    0    0  501    0  0.00000000000E+00 -0.00000000000E+00 -0.29254795521E+04  0.29254795521E+04  0.00000000000E+00 0. -1.
         23    2    1    2    0    0  0.21466914780E+03  0.46597168182E+03 -0.87935334299E+03  0.10221527457E+04  0.91222160225E+02 0.  0.
        254    2    1    2    0    0 -0.21466914780E+03 -0.46597168182E+03 -0.18367065649E+04  0.21127464505E+04  0.90939216354E+03 0.  0.
        -24    2    4    4    0    0 -0.45595532889E+03 -0.19562417094E+03 -0.44136945803E+03  0.66896272149E+03  0.80870551212E+02 0.  0.
         24    2    4    4    0    0  0.24128618110E+03 -0.27034751087E+03 -0.13953371069E+04  0.14437837290E+04  0.78987444618E+02 0.  0.
         13    1    3    3    0    0  0.61211890138E+02  0.13169088357E+03 -0.17386551491E+03  0.22653609334E+03  0.00000000000E+00 0.  1.
        -13    1    3    3    0    0  0.15345725766E+03  0.33428079825E+03 -0.70548782808E+03  0.79561665240E+03  0.00000000000E+00 0. -1.
          2    1    6    6  502    0  0.14676585216E+03 -0.13482818009E+03 -0.89311274245E+03  0.91507880766E+03  0.00000000000E+00 0. -1.
          3    1    5    5  503    0 -0.13880050985E+03 -0.96478255362E+02 -0.12588186670E+03  0.21076024211E+03  0.00000000000E+00 0. -1.
         -4    1    5    5    0  503 -0.31715481905E+03 -0.99145915579E+02 -0.31548759133E+03  0.45820247938E+03  0.00000000000E+00 0.  1.
         -1    1    6    6    0  502  0.94520328933E+02 -0.13551933079E+03 -0.50222436446E+03  0.52870492134E+03  0.00000000000E+00 0.  1.
<mgrwt>
<rscale>  0 0.15654429E+04</rscale>
<asrwt>0</asrwt>
<pdfrwt beam="1">  1        2 0.45007376E+00 0.15654429E+04</pdfrwt>
<pdfrwt beam="2">  1       -2 0.32218408E-01 0.15654429E+04</pdfrwt>
<totfact> 0.16801718E+01</totfact>
</mgrwt>
</event>
<event>
12    1  0.1536832E-007  0.2303160E+04  0.7818608E-02  0.8476676E-01
          1   -1    0    0  501    0  0.00000000000E+00  0.00000000000E+00  0.85149861040E+03  0.85149861040E+03  0.00000000000E+00 0. -1.
         -1   -1    0    0    0  501 -0.00000000000E+00 -0.00000000000E+00 -0.15574151833E+04  0.15574151833E+04  0.00000000000E+00 0.  1.
         23    2    1    2    0    0 -0.16171020311E+03  0.66967100874E+03 -0.10098277948E+04  0.12256816692E+04  0.89072607140E+02 0.  0.
        254    2    1    2    0    0  0.16171020311E+03 -0.66967100874E+03  0.30391122187E+03  0.11832321245E+04  0.91272492022E+03 0.  0.
        -24    2    4    4    0    0 -0.24196435880E+03  0.72550668733E+02  0.18796706814E+03  0.32651318807E+03  0.86422756348E+02 0.  0.
         24    2    4    4    0    0  0.40367456190E+03 -0.74222167747E+03  0.11594415373E+03  0.85671893645E+03  0.81719758101E+02 0.  0.
         11    1    3    3    0    0 -0.62413980130E+02  0.36446139046E+03 -0.47525087451E+03  0.60215529872E+03  0.00000000000E+00 0. -1.
        -11    1    3    3    0    0 -0.99296222975E+02  0.30520961827E+03 -0.53457692027E+03  0.62352637047E+03  0.00000000000E+00 0.  1.
          2    1    6    6  502    0  0.25976541579E+03 -0.40336330846E+03  0.45868687134E+02  0.48195846949E+03  0.00000000000E+00 0. -1.
          3    1    5    5  503    0 -0.28391308949E+02 -0.83420508474E+01  0.54442174986E+02  0.61964559657E+02  0.00000000000E+00 0. -1.
         -4    1    5    5    0  503 -0.21357304985E+03  0.80892719580E+02  0.13352489316E+03  0.26454862841E+03  0.00000000000E+00 0.  1.
         -1    1    6    6    0  502  0.14390914611E+03 -0.33885836901E+03  0.70075466592E+02  0.37476046696E+03  0.00000000000E+00 0.  1.
<mgrwt>
<rscale>  0 0.23031603E+04</rscale>
<asrwt>0</asrwt>
<pdfrwt beam="1">  1        1 0.13099979E+00 0.23031603E+04</pdfrwt>
<pdfrwt beam="2">  1       -1 0.23960233E+00 0.23031603E+04</pdfrwt>
<totfact> 0.14717365E+00</totfact>
</mgrwt>
</event>
<event>
12    1  0.1536832E-007  0.2342662E+04  0.7818608E-02  0.8461287E-01
          1   -1    0    0  501    0  0.00000000000E+00  0.00000000000E+00  0.28052209513E+04  0.28052209513E+04  0.00000000000E+00 0. -1.
         -1   -1    0    0    0  501 -0.00000000000E+00 -0.00000000000E+00 -0.48909386271E+03  0.48909386271E+03  0.00000000000E+00 0.  1.
         23    2    1    2    0    0  0.46281679869E+03  0.57195445062E+03  0.47456150097E+02  0.74290056734E+03  0.91202434329E+02 0.  0.
        254    2    1    2    0    0 -0.46281679869E+03 -0.57195445062E+03  0.22686709385E+04  0.25514142467E+04  0.90637494904E+03 0.  0.
        -24    2    4    4    0    0 -0.61960937369E+03 -0.51334670894E+03  0.22140065378E+04  0.23570716000E+04  0.80752453089E+02 0.  0.
         24    2    4    4    0    0  0.15679257500E+03 -0.58607741681E+02  0.54664400706E+02  0.19434264666E+03  0.82231919887E+02 0.  0.
         11    1    3    3    0    0  0.16937957879E+01  0.25463823346E+02 -0.47341175491E+01  0.25955483284E+02  0.00000000000E+00 0. -1.
        -11    1    3    3    0    0  0.46112300290E+03  0.54649062728E+03  0.52190267646E+02  0.71694508405E+03  0.00000000000E+00 0.  1.
          2    1    6    6  502    0  0.13793895664E+02 -0.36478173091E+02  0.25884649384E+02  0.46807518022E+02  0.00000000000E+00 0. -1.
          3    1    5    5  503    0 -0.19680622306E+03 -0.20589121362E+03  0.72341941963E+03  0.77746995953E+03  0.00000000000E+00 0. -1.
         -4    1    5    5    0  503 -0.42280315063E+03 -0.30745549532E+03  0.14905871182E+04  0.15796016405E+04  0.00000000000E+00 0.  1.
         -1    1    6    6    0  502  0.14299867933E+03 -0.22129568591E+02  0.28779751322E+02  0.14753512864E+03  0.00000000000E+00 0.  1.
<mgrwt>
<rscale>  0 0.23426620E+04</rscale>
<asrwt>0</asrwt>
<pdfrwt beam="1">  1        1 0.43157244E+00 0.23426620E+04</pdfrwt>
<pdfrwt beam="2">  1       -1 0.75245212E-01 0.23426620E+04</pdfrwt>
<totfact> 0.13214856E+00</totfact>
</mgrwt>
</event>
<event>
12    1  0.1536832E-007  0.1692738E+04  0.7818608E-02  0.8765517E-01
         -1   -1    0    0    0  501 -0.00000000000E+00  0.00000000000E+00  0.28675154972E+03  0.28675154972E+03  0.00000000000E+00 0.  1.
          1   -1    0    0  501    0  0.00000000000E+00 -0.00000000000E+00 -0.24981237140E+04  0.24981237140E+04  0.00000000000E+00 0. -1.
         23    2    1    2    0    0 -0.36859062440E+03  0.30046049349E+03 -0.13199046560E+04  0.14060220799E+04  0.92812885991E+02 0.  0.
        254    2    1    2    0    0  0.36859062440E+03 -0.30046049349E+03 -0.89146750825E+03  0.13788531838E+04  0.93828898935E+03 0.  0.
        -24    2    4    4    0    0  0.60985821991E+03  0.45967000769E+02 -0.45497483995E+03  0.76644736953E+03  0.79996573223E+02 0.  0.
         24    2    4    4    0    0 -0.24126759551E+03 -0.34642749426E+03 -0.43649266830E+03  0.61240581422E+03  0.79328244610E+02 0.  0.
         11    1    3    3    0    0 -0.19581379102E+03  0.20857836446E+03 -0.85561097590E+03  0.90217410568E+03  0.00000000000E+00 0. -1.
        -11    1    3    3    0    0 -0.17277683338E+03  0.91882129032E+02 -0.46429368008E+03  0.50384797425E+03  0.00000000000E+00 0.  1.
          2    1    6    6  502    0 -0.78533637513E+02 -0.15087463520E+03 -0.12998750003E+03  0.21407344051E+03  0.00000000000E+00 0. -1.
          3    1    5    5  503    0  0.34478715402E+03  0.48398843240E+02 -0.29862577825E+03  0.45869160123E+03  0.00000000000E+00 0. -1.
         -4    1    5    5    0  503  0.26507106588E+03 -0.24318424714E+01 -0.15634906170E+03  0.30775576830E+03  0.00000000000E+00 0.  1.
         -1    1    6    6    0  502 -0.16273395799E+03 -0.19555285906E+03 -0.30650516827E+03  0.39833237371E+03  0.00000000000E+00 0.  1.
<mgrwt>
<rscale>  0 0.16927384E+04</rscale>
<asrwt>0</asrwt>
<pdfrwt beam="1">  1        1 0.38432672E+00 0.16927384E+04</pdfrwt>
<pdfrwt beam="2">  1       -1 0.44115624E-01 0.16927384E+04</pdfrwt>
<totfact> 0.65860137E+00</totfact>
</mgrwt>
</event>
<event>
12    1  0.1536832E-007  0.1704842E+04  0.7818608E-02  0.8758608E-01
         -1   -1    0    0    0  501 -0.00000000000E+00  0.00000000000E+00  0.62966343833E+03  0.62966343833E+03  0.00000000000E+00 0.  1.
          1   -1    0    0  501    0  0.00000000000E+00 -0.00000000000E+00 -0.11539836121E+04  0.11539836121E+04  0.00000000000E+00 0. -1.
         23    2    1    2    0    0 -0.17047238408E+03  0.38829522716E+03 -0.47415963351E+03  0.64256086104E+03  0.90681226975E+02 0.  0.
        254    2    1    2    0    0  0.17047238408E+03 -0.38829522716E+03 -0.50160540291E+02  0.11410861894E+04  0.10581718172E+04 0.  0.
        -24    2    4    4    0    0  0.10116886450E+03  0.14345312719E+03 -0.43517681988E+03  0.47605310833E+03  0.80210713403E+02 0.  0.
         24    2    4    4    0    0  0.69303519586E+02 -0.53174835434E+03  0.38501627959E+03  0.66503308110E+03  0.80449818120E+02 0.  0.
         11    1    3    3    0    0 -0.15938712701E+01  0.63271227814E+02 -0.10447080046E+03  0.12214719335E+03  0.00000000000E+00 0.  1.
        -11    1    3    3    0    0 -0.16887851281E+03  0.32502399934E+03 -0.36968883305E+03  0.52041366769E+03  0.00000000000E+00 0. -1.
          2    1    6    6  502    0  0.65903577695E+02 -0.50384597151E+03  0.33809918653E+03  0.61034015474E+03  0.00000000000E+00 0. -1.
          3    1    5    5  503    0  0.11228624492E+03  0.12906651392E+03 -0.35816052041E+03  0.39691979566E+03  0.00000000000E+00 0. -1.
         -4    1    5    5    0  503 -0.11117380417E+02  0.14386613270E+02 -0.77016299470E+02  0.79133312662E+02  0.00000000000E+00 0.  1.
         -1    1    6    6    0  502  0.33999418914E+01 -0.27902382837E+02  0.46917093055E+02  0.54692926358E+02  0.00000000000E+00 0.  1.
<mgrwt>
<rscale>  0 0.17048417E+04</rscale>
<asrwt>0</asrwt>
<pdfrwt beam="1">  1        1 0.17753594E+00 0.17048417E+04</pdfrwt>
<pdfrwt beam="2">  1       -1 0.96871299E-01 0.17048417E+04</pdfrwt>
<totfact> 0.11262330E+01</totfact>
</mgrwt>
</event>
<event>
12    1  0.1536832E-007  0.3251242E+04  0.7818608E-02  0.8175414E-01
         -2   -1    0    0    0  501 -0.00000000000E+00  0.00000000000E+00  0.12062883278E+04  0.12062883278E+04  0.00000000000E+00 0.  1.
          2   -1    0    0  501    0  0.00000000000E+00 -0.00000000000E+00 -0.21907235200E+04  0.21907235200E+04  0.00000000000E+00 0. -1.
         23    2    1    2    0    0  0.23289566389E+03  0.10284072941E+04  0.65769634274E+03  0.12461705101E+04  0.92274093350E+02 0.  0.
        254    2    1    2    0    0 -0.23289566389E+03 -0.10284072941E+04 -0.16421315349E+04  0.21508413376E+04  0.90424583433E+03 0.  0.
        -24    2    4    4    0    0 -0.22124931978E+03 -0.42311678786E+03 -0.10318858279E+03  0.49515407209E+03  0.80935738857E+02 0.  0.
         24    2    4    4    0    0 -0.11646344108E+02 -0.60529050620E+03 -0.15389429521E+04  0.16556872655E+04  0.80266288550E+02 0.  0.
         11    1    3    3    0    0  0.67260011304E+01  0.96238421503E+01 -0.14801754438E+01  0.11834202478E+02  0.00000000000E+00 0. -1.
        -11    1    3    3    0    0  0.22616966276E+03  0.10187834519E+04  0.65917651819E+03  0.12343363076E+04  0.00000000000E+00 0.  1.
          4    1    6    6  502    0 -0.38290740486E+02 -0.29499213471E+03 -0.81529503313E+03  0.86786665531E+03  0.00000000000E+00 0. -1.
          3    1    5    5  503    0 -0.85514811134E+02 -0.18993588940E+03 -0.60363875198E+01  0.20838633108E+03  0.00000000000E+00 0. -1.
         -4    1    5    5    0  503 -0.13573450864E+03 -0.23318089845E+03 -0.97152195269E+02  0.28676774101E+03  0.00000000000E+00 0.  1.
         -3    1    6    6    0  502  0.26644396377E+02 -0.31029837149E+03 -0.72364791900E+03  0.78782061022E+03  0.00000000000E+00 0.  1.
<mgrwt>
<rscale>  0 0.32512424E+04</rscale>
<asrwt>0</asrwt>
<pdfrwt beam="1">  1        2 0.33703439E+00 0.32512424E+04</pdfrwt>
<pdfrwt beam="2">  1       -2 0.18558282E+00 0.32512424E+04</pdfrwt>
<totfact> 0.72760601E-01</totfact>
</mgrwt>
</event>
<event>
12    1  0.1536832E-007  0.1577712E+04  0.7818608E-02  0.8834359E-01
         -2   -1    0    0    0  501 -0.00000000000E+00  0.00000000000E+00  0.81025563402E+03  0.81025563402E+03  0.00000000000E+00 0.  1.
          2   -1    0    0  501    0  0.00000000000E+00 -0.00000000000E+00 -0.76802154066E+03  0.76802154066E+03  0.00000000000E+00 0. -1.
         23    2    1    2    0    0 -0.51562353603E+03 -0.18269078760E+02  0.13210169145E+03  0.53998998216E+03  0.89089470768E+02 0.  0.
        254    2    1    2    0    0  0.51562353603E+03  0.18269078760E+02 -0.89867598090E+02  0.10382871925E+04  0.89652814725E+03 0.  0.
        -24    2    4    4    0    0  0.57576133897E+02 -0.28963840749E+03 -0.31346014066E+03  0.43764091735E+03  0.77890271989E+02 0.  0.
         24    2    4    4    0    0  0.45804740214E+03  0.30790748625E+03  0.22359254257E+03  0.60064627517E+03  0.78535852235E+02 0.  0.
         11    1    3    3    0    0 -0.48790510392E+03 -0.32825276219E+02  0.13805244823E+03  0.50812141035E+03  0.00000000000E+00 0.  1.
        -11    1    3    3    0    0 -0.27718432112E+02  0.14556197459E+02 -0.59507567820E+01  0.31868571815E+02  0.00000000000E+00 0. -1.
          2    1    6    6  502    0  0.42695681383E+03  0.26243491440E+03  0.18909364124E+03  0.53564970860E+03  0.00000000000E+00 0. -1.
          3    1    5    5  503    0  0.50289357168E+02 -0.27352448340E+03 -0.25772008814E+03  0.37916263831E+03  0.00000000000E+00 0. -1.
         -4    1    5    5    0  503  0.72867767290E+01 -0.16113924100E+02 -0.55740052518E+02  0.58478279041E+02  0.00000000000E+00 0.  1.
         -1    1    6    6    0  502  0.31090588310E+02  0.45472571855E+02  0.34498901324E+02  0.64996566564E+02  0.00000000000E+00 0.  1.
<mgrwt>
<rscale>  0 0.15777120E+04</rscale>
<asrwt>0</asrwt>
<pdfrwt beam="1">  1        2 0.11815716E+00 0.15777120E+04</pdfrwt>
<pdfrwt beam="2">  1       -2 0.12465471E+00 0.15777120E+04</pdfrwt>
<totfact> 0.16858480E+01</totfact>
</mgrwt>
</event>
<event>
12    1  0.1536832E-007  0.1140888E+04  0.7818608E-02  0.9166231E-01
          2   -1    0    0  501    0  0.00000000000E+00  0.00000000000E+00  0.38094530600E+03  0.38094530600E+03  0.00000000000E+00 0. -1.
         -2   -1    0    0    0  501 -0.00000000000E+00 -0.00000000000E+00 -0.85420747757E+03  0.85420747757E+03  0.00000000000E+00 0.  1.
         23    2    1    2    0    0  0.37091761436E+02 -0.18459990885E+03 -0.16540859126E+03  0.26735805492E+03  0.93098884828E+02 0.  0.
        254    2    1    2    0    0 -0.37091761436E+02  0.18459990885E+03 -0.30785358031E+03  0.96779472864E+03  0.89799770866E+03 0.  0.
        -24    2    4    4    0    0 -0.28361620931E+03  0.12842866078E+03 -0.53271696378E+03  0.62207338234E+03  0.79093959427E+02 0.  0.
         24    2    4    4    0    0  0.24652444787E+03  0.56171248077E+02  0.22486338347E+03  0.34572134630E+03  0.70923871545E+02 0.  0.
         11    1    3    3    0    0  0.16410374741E+02 -0.14986360549E+03 -0.75133163872E+02  0.16844403511E+03  0.00000000000E+00 0.  1.
        -11    1    3    3    0    0  0.20681386694E+02 -0.34736303364E+02 -0.90275427384E+02  0.98914019817E+02  0.00000000000E+00 0. -1.
          2    1    6    6  502    0  0.71927278358E+02  0.17936608957E+02  0.11208217549E+03  0.13437882785E+03  0.00000000000E+00 0. -1.
          3    1    5    5  503    0 -0.90361284424E+02  0.10117576348E+02 -0.11244586239E+03  0.14460843351E+03  0.00000000000E+00 0. -1.
         -2    1    5    5    0  503 -0.19325492488E+03  0.11831108443E+03 -0.42027110139E+03  0.47746494882E+03  0.00000000000E+00 0.  1.
         -1    1    6    6    0  502  0.17459716951E+03  0.38234639121E+02  0.11278120798E+03  0.21134251845E+03  0.00000000000E+00 0.  1.
<mgrwt>
<rscale>  0 0.11408880E+04</rscale>
<asrwt>0</asrwt>
<pdfrwt beam="1">  1        2 0.58606970E-01 0.11408880E+04</pdfrwt>
<pdfrwt beam="2">  1       -2 0.13141654E+00 0.11408880E+04</pdfrwt>
<totfact> 0.35135015E+01</totfact>
</mgrwt>
</event>
<event>
12    1  0.1536832E-007  0.1927823E+04  0.7818608E-02  0.8641130E-01
         -1   -1    0    0    0  501 -0.00000000000E+00  0.00000000000E+00  0.89471748354E+03  0.89471748354E+03  0.00000000000E+00 0.  1.
          1   -1    0    0  501    0  0.00000000000E+00 -0.00000000000E+00 -0.10384565452E+04  0.10384565452E+04  0.00000000000E+00 0. -1.
         23    2    1    2    0    0  0.22274653854E+02 -0.34004358636E+03  0.62528810480E+03  0.71748336125E+03  0.87586293674E+02 0.  0.
        254    2    1    2    0    0 -0.22274653854E+02  0.34004358636E+03 -0.76902716650E+03  0.12156906675E+04  0.87771021156E+03 0.  0.
        -24    2    4    4    0    0 -0.68873007046E+02  0.29561092110E+03 -0.95353654858E+03  0.10040396555E+04  0.82063223597E+02 0.  0.
         24    2    4    4    0    0  0.46598353193E+02  0.44432665258E+02  0.18450938208E+03  0.21165101199E+03  0.81282043150E+02 0.  0.
         13    1    3    3    0    0  0.23288380993E+02 -0.34447419575E+03  0.62327105847E+03  0.71251079469E+03  0.00000000000E+00 0.  1.
        -13    1    3    3    0    0 -0.10137271390E+01  0.44306093894E+01  0.20170463266E+01  0.49725665564E+01  0.00000000000E+00 0. -1.
          4    1    6    6  502    0 -0.20298046003E+02 -0.29337601458E+01  0.51239683479E+02  0.55191691251E+02  0.00000000000E+00 0. -1.
          1    1    5    5  503    0 -0.15633884858E+02  0.61052314135E+02 -0.32498831280E+03  0.33104260582E+03  0.00000000000E+00 0. -1.
         -2    1    5    5    0  503 -0.53239122189E+02  0.23455860697E+03 -0.62854823578E+03  0.67299704972E+03  0.00000000000E+00 0.  1.
         -3    1    6    6    0  502  0.66896399196E+02  0.47366425403E+02  0.13326969860E+03  0.15645932073E+03  0.00000000000E+00 0.  1.
<mgrwt>
<rscale>  0 0.19278228E+04</rscale>
<asrwt>0</asrwt>
<pdfrwt beam="1">  1        1 0.15976254E+00 0.19278228E+04</pdfrwt>
<pdfrwt beam="2">  1       -1 0.13764884E+00 0.19278228E+04</pdfrwt>
<totfact> 0.57767702E+00</totfact>
</mgrwt>
</event>
<event>
12    1  0.1536832E-007  0.3107442E+04  0.7818608E-02  0.8213699E-01
          1   -1    0    0  501    0  0.00000000000E+00  0.00000000000E+00  0.28826842471E+04  0.28826842471E+04  0.00000000000E+00 0. -1.
         -1   -1    0    0    0  501 -0.00000000000E+00 -0.00000000000E+00 -0.83743067312E+03  0.83743067312E+03  0.00000000000E+00 0.  1.
         23    2    1    2    0    0 -0.19077055745E+03  0.48505140917E+03 -0.64505458797E+03  0.83466259003E+03  0.94328906530E+02 0.  0.
        254    2    1    2    0    0  0.19077055745E+03 -0.48505140917E+03  0.26903081620E+04  0.28854523302E+04  0.90355346738E+03 0.  0.
        -24    2    4    4    0    0  0.52964073649E+03 -0.39558014734E+03  0.19896056006E+04  0.20980377171E+04  0.78923087049E+02 0.  0.
         24    2    4    4    0    0 -0.33887017904E+03 -0.89471261837E+02  0.70070256140E+03  0.78741461315E+03  0.78737465754E+02 0.  0.
         13    1    3    3    0    0 -0.78953349762E+01  0.11909735395E+03 -0.17023164222E+03  0.20790701779E+03  0.00000000000E+00 0. -1.
        -13    1    3    3    0    0 -0.18287522248E+03  0.36595405522E+03 -0.47482294575E+03  0.62675557224E+03  0.00000000000E+00 0.  1.
          4    1    6    6  502    0 -0.31424739711E+03 -0.58978262803E+02  0.61385090076E+03  0.69212917179E+03  0.00000000000E+00 0. -1.
          1    1    5    5  503    0  0.22631813784E+03 -0.21596761630E+03  0.89857849974E+03  0.95147529185E+03  0.00000000000E+00 0. -1.
         -2    1    5    5    0  503  0.30332259865E+03 -0.17961253103E+03  0.10910271008E+04  0.11465624252E+04  0.00000000000E+00 0.  1.
         -3    1    6    6    0  502 -0.24622781929E+02 -0.30492999034E+02  0.86851660639E+02  0.95285441363E+02  0.00000000000E+00 0.  1.
<mgrwt>
<rscale>  0 0.31074415E+04</rscale>
<asrwt>0</asrwt>
<pdfrwt beam="1">  1        1 0.44348988E+00 0.31074415E+04</pdfrwt>
<pdfrwt beam="2">  1       -1 0.12883549E+00 0.31074415E+04</pdfrwt>
<totfact> 0.31786999E-01</totfact>
</mgrwt>
</event>
<event>
12    1  0.1536832E-007  0.2872032E+04  0.7818608E-02  0.8281248E-01
         -2   -1    0    0    0  501 -0.00000000000E+00  0.00000000000E+00  0.67935936981E+03  0.67935936981E+03  0.00000000000E+00 0.  1.
          2   -1    0    0  501    0  0.00000000000E+00 -0.00000000000E+00 -0.30354220111E+04  0.30354220111E+04  0.00000000000E+00 0. -1.
         23    2    1    2    0    0  0.81940724889E+03  0.91064143135E+03 -0.15809276448E+04  0.20021378350E+04  0.92345200512E+02 0.  0.
        254    2    1    2    0    0 -0.81940724889E+03 -0.91064143135E+03 -0.77513499650E+03  0.17126435460E+04  0.91193069730E+03 0.  0.
        -24    2    4    4    0    0 -0.51167466741E+03 -0.10208203579E+04 -0.40934431018E+03  0.12155699906E+04  0.78501397185E+02 0.  0.
         24    2    4    4    0    0 -0.30773258148E+03  0.11017892653E+03 -0.36579068632E+03  0.49707355539E+03  0.80253072894E+02 0.  0.
         11    1    3    3    0    0  0.22481833702E+03  0.19230628251E+03 -0.39497016303E+03  0.49348396189E+03  0.00000000000E+00 0.  1.
        -11    1    3    3    0    0  0.59458891187E+03  0.71833514884E+03 -0.11859574818E+04  0.15086538731E+04  0.00000000000E+00 0. -1.
          2    1    6    6  502    0 -0.12167612462E+02  0.90564251115E+01 -0.52525004439E+02  0.54671251313E+02  0.00000000000E+00 0. -1.
          3    1    5    5  503    0 -0.10644746188E+03 -0.19460935627E+03 -0.48134066868E+02  0.22698183205E+03  0.00000000000E+00 0. -1.
         -4    1    5    5    0  503 -0.40522720553E+03 -0.82621100161E+03 -0.36121024331E+03  0.98858815852E+03  0.00000000000E+00 0.  1.
         -1    1    6    6    0  502 -0.29556496902E+03  0.10112250142E+03 -0.31326568189E+03  0.44240230408E+03  0.00000000000E+00 0.  1.
<mgrwt>
<rscale>  0 0.28720323E+04</rscale>
<asrwt>0</asrwt>
<pdfrwt beam="1">  1        2 0.46698799E+00 0.28720323E+04</pdfrwt>
<pdfrwt beam="2">  1       -2 0.10451683E+00 0.28720323E+04</pdfrwt>
<totfact> 0.10629332E+00</totfact>
</mgrwt>
</event>
<event>
12    1  0.1536832E-007  0.2100207E+04  0.7818608E-02  0.8561152E-01
          2   -1    0    0  501    0  0.00000000000E+00  0.00000000000E+00  0.10556312100E+04  0.10556312100E+04  0.00000000000E+00 0. -1.
         -2   -1    0    0    0  501 -0.00000000000E+00 -0.00000000000E+00 -0.10446045017E+04  0.10446045017E+04  0.00000000000E+00 0.  1.
         23    2    1    2    0    0  0.49446720035E+03 -0.59533423182E+03 -0.35801053006E+03  0.85873637069E+03  0.10166589847E+03 0.  0.
        254    2    1    2    0    0 -0.49446720035E+03  0.59533423182E+03  0.36903723834E+03  0.12414993410E+04  0.89789279465E+03 0.  0.
        -24    2    4    4    0    0 -0.33208224382E+02 -0.21420326534E+03  0.16613701049E+03  0.28469072198E+03  0.80383305960E+02 0.  0.
         24    2    4    4    0    0 -0.46125897597E+03  0.80953749716E+03  0.20290022786E+03  0.95680861905E+03  0.78761848636E+02 0.  0.
         13    1    3    3    0    0  0.23671053394E+03 -0.21598243345E+03 -0.17334786951E+03  0.36432097428E+03  0.00000000000E+00 0. -1.
        -13    1    3    3    0    0  0.25775666641E+03 -0.37935179837E+03 -0.18466266055E+03  0.49441539641E+03  0.00000000000E+00 0.  1.
          2    1    6    6  502    0 -0.41953194854E+03  0.73973404251E+03  0.16174835474E+03  0.86566508521E+03  0.00000000000E+00 0. -1.
          3    1    5    5  503    0 -0.10382986418E+02 -0.18939924092E+03  0.11016971596E+03  0.21935643410E+03  0.00000000000E+00 0. -1.
         -4    1    5    5    0  503 -0.22825237964E+02 -0.24804024424E+02  0.55967294525E+02  0.65334287875E+02  0.00000000000E+00 0.  1.
         -1    1    6    6    0  502 -0.41727027433E+02  0.69803454650E+02  0.41151873117E+02  0.91143533838E+02  0.00000000000E+00 0.  1.
<mgrwt>
<rscale>  0 0.21002068E+04</rscale>
<asrwt>0</asrwt>
<pdfrwt beam="1">  1        2 0.16240480E+00 0.21002068E+04</pdfrwt>
<pdfrwt beam="2">  1       -2 0.16070838E+00 0.21002068E+04</pdfrwt>
<totfact> 0.53245456E+00</totfact>
</mgrwt>
</event>
<event>
12    1  0.1536832E-007  0.2430015E+04  0.7818608E-02  0.8428351E-01
          2   -1    0    0  501    0  0.00000000000E+00  0.00000000000E+00  0.16254060216E+04  0.16254060216E+04  0.00000000000E+00 0.  1.
         -2   -1    0    0    0  501 -0.00000000000E+00 -0.00000000000E+00 -0.90823043531E+03  0.90823043531E+03  0.00000000000E+00 0. -1.
         23    2    1    2    0    0 -0.16181710319E+03  0.87848563308E+03 -0.26051907840E+03  0.93489080123E+03  0.90712940664E+02 0.  0.
        254    2    1    2    0    0  0.16181710319E+03 -0.87848563308E+03  0.97769466471E+03  0.15987456557E+04  0.89564447846E+03 0.  0.
        -24    2    4    4    0    0  0.30340616906E+03 -0.46804710258E+03  0.10095324759E+04  0.11562378792E+04  0.81282345535E+02 0.  0.
         24    2    4    4    0    0 -0.14158906587E+03 -0.41043853050E+03 -0.31837811168E+02  0.44250777653E+03  0.79323610477E+02 0.  0.
         11    1    3    3    0    0 -0.27489302389E+00  0.76685159082E+02 -0.45578172181E+02  0.89207953507E+02  0.00000000000E+00 0.  1.
        -11    1    3    3    0    0 -0.16154221017E+03  0.80180047399E+03 -0.21494090622E+03  0.84568284772E+03  0.00000000000E+00 0. -1.
          4    1    6    6  502    0 -0.40774801997E+02 -0.22066172738E+03  0.51443463738E+01  0.22445633586E+03  0.00000000000E+00 0. -1.
          3    1    5    5  503    0  0.23302548351E+03 -0.36692276559E+03  0.84978183558E+03  0.95449586692E+03  0.00000000000E+00 0. -1.
         -4    1    5    5    0  503  0.70380685549E+02 -0.10112433699E+03  0.15975064030E+03  0.20174201225E+03  0.00000000000E+00 0.  1.
         -1    1    6    6    0  502 -0.10081426388E+03 -0.18977680312E+03 -0.36982157542E+02  0.21805144067E+03  0.00000000000E+00 0.  1.
<mgrwt>
<rscale>  0 0.24300150E+04</rscale>
<asrwt>0</asrwt>
<pdfrwt beam="1">  1        2 0.25006246E+00 0.24300150E+04</pdfrwt>
<pdfrwt beam="2">  1       -2 0.13972776E+00 0.24300150E+04</pdfrwt>
<totfact> 0.34954004E+00</totfact>
</mgrwt>
</event>
<event>
12    1  0.1601598E-007  0.2032480E+04  0.7818608E-02  0.8591584E-01
         -2   -1    0    0    0  501 -0.00000000000E+00  0.00000000000E+00  0.10025397645E+04  0.10025397645E+04  0.00000000000E+00 0. -1.
          2   -1    0    0  501    0  0.00000000000E+00 -0.00000000000E+00 -0.10301270127E+04  0.10301270127E+04  0.00000000000E+00 0.  1.
         23    2    1    2    0    0  0.35127471362E+03 -0.94827078074E+02  0.71650206814E+03  0.80889479305E+03  0.92463362551E+02 0.  0.
        254    2    1    2    0    0 -0.35127471362E+03  0.94827078074E+02 -0.74408931640E+03  0.12237719842E+04  0.90086783675E+03 0.  0.
        -24    2    4    4    0    0 -0.48178796384E+03  0.36099068165E+03 -0.67697451042E+03  0.90961963464E+03  0.81728071274E+02 0.  0.
         24    2    4    4    0    0  0.13051325021E+03 -0.26616360357E+03 -0.67114805982E+02  0.31415234953E+03  0.79438839288E+02 0.  0.
         11    1    3    3    0    0  0.98577666427E+02 -0.14787140357E+01  0.26982604441E+03  0.28727310552E+03  0.00000000000E+00 0. -1.
        -11    1    3    3    0    0  0.25269704720E+03 -0.93348364038E+02  0.44667602373E+03  0.52162168753E+03  0.00000000000E+00 0.  1.
          4    1    6    6  502    0 -0.84866809522E+01 -0.44180613756E+02 -0.99037087954E+01  0.46065538457E+02  0.00000000000E+00 0. -1.
          1    1    5    5  503    0 -0.10503483215E+03  0.11790066528E+03 -0.20286712139E+03  0.25707577050E+03  0.00000000000E+00 0. -1.
         -2    1    5    5    0  503 -0.37675313169E+03  0.24309001636E+03 -0.47410738903E+03  0.65254386414E+03  0.00000000000E+00 0.  1.
         -3    1    6    6    0  502  0.13899993116E+03 -0.22198298982E+03 -0.57211097187E+02  0.26808681107E+03  0.00000000000E+00 0.  1.
<mgrwt>
<rscale>  0 0.20324796E+04</rscale>
<asrwt>0</asrwt>
<pdfrwt beam="1">  1        2 0.15848108E+00 0.20324796E+04</pdfrwt>
<pdfrwt beam="2">  1       -2 0.15423689E+00 0.20324796E+04</pdfrwt>
<totfact> 0.62105140E+00</totfact>
</mgrwt>
</event>
<event>
12    1  0.1536832E-007  0.1440335E+04  0.7818608E-02  0.8925129E-01
         -2   -1    0    0    0  501 -0.00000000000E+00  0.00000000000E+00  0.29643853220E+03  0.29643853220E+03  0.00000000000E+00 0.  1.
          2   -1    0    0  501    0  0.00000000000E+00 -0.00000000000E+00 -0.17495735037E+04  0.17495735037E+04  0.00000000000E+00 0. -1.
         23    2    1    2    0    0  0.23295612427E+03 -0.26335053690E+03 -0.91320964881E+02  0.37511104478E+03  0.93523880236E+02 0.  0.
        254    2    1    2    0    0 -0.23295612427E+03  0.26335053690E+03 -0.13618140066E+04  0.16709009911E+04  0.90208130030E+03 0.  0.
        -24    2    4    4    0    0  0.21944581140E+03 -0.19656163081E+03 -0.31497488793E+03  0.43866228571E+03  0.80140389521E+02 0.  0.
         24    2    4    4    0    0 -0.45240193566E+03  0.45991216771E+03 -0.10468391187E+04  0.12322387054E+04  0.79708050271E+02 0.  0.
         13    1    3    3    0    0  0.78624514064E+01 -0.21893180231E+02  0.15731461758E+02  0.28082171778E+02  0.00000000000E+00 0. -1.
        -13    1    3    3    0    0  0.22509367286E+03 -0.24145735667E+03 -0.10705242664E+03  0.34702887301E+03  0.00000000000E+00 0.  1.
          4    1    6    6  502    0 -0.11855140605E+03  0.13597904610E+03 -0.36040140257E+03  0.40303090183E+03  0.00000000000E+00 0. -1.
          1    1    5    5  503    0  0.12050991205E+03 -0.14765289828E+03 -0.23390919803E+03  0.30172426186E+03  0.00000000000E+00 0. -1.
         -2    1    5    5    0  503  0.98935899345E+02 -0.48908732530E+02 -0.81065689904E+02  0.13693802385E+03  0.00000000000E+00 0.  1.
         -3    1    6    6    0  502 -0.33385052961E+03  0.32393312160E+03 -0.68643771614E+03  0.82920780359E+03  0.00000000000E+00 0.  1.
<mgrwt>
<rscale>  0 0.14403347E+04</rscale>
<asrwt>0</asrwt>
<pdfrwt beam="1">  1        2 0.26916515E+00 0.14403347E+04</pdfrwt>
<pdfrwt beam="2">  1       -2 0.45605928E-01 0.14403347E+04</pdfrwt>
<totfact> 0.40719527E+01</totfact>
</mgrwt>
</event>
<event>
12    1  0.1536832E-007  0.2322134E+04  0.7818608E-02  0.8469245E-01
         -1   -1    0    0    0  501 -0.00000000000E+00  0.00000000000E+00  0.94060862171E+03  0.94060862171E+03  0.00000000000E+00 0.  1.
          1   -1    0    0  501    0  0.00000000000E+00 -0.00000000000E+00 -0.14331958932E+04  0.14331958932E+04  0.00000000000E+00 0. -1.
         23    2    1    2    0    0  0.94990842688E+03  0.53485260421E+02  0.44714889214E+02  0.95708597395E+03  0.93954497944E+02 0.  0.
        254    2    1    2    0    0 -0.94990842688E+03 -0.53485260421E+02 -0.53730216072E+03  0.14167185410E+04  0.90178219093E+03 0.  0.
        -24    2    4    4    0    0  0.65197563346E+02 -0.16820458237E+03 -0.30805586252E+03  0.36678206986E+03  0.84185322606E+02 0.  0.
         24    2    4    4    0    0 -0.10151059902E+04  0.11471932195E+03 -0.22924629820E+03  0.10499364711E+04  0.78816457048E+02 0.  0.
         13    1    3    3    0    0  0.19514586153E+03 -0.11365605875E+02  0.40003309478E+02  0.19952781520E+03  0.00000000000E+00 0. -1.
        -13    1    3    3    0    0  0.75476256535E+03  0.64850866296E+02  0.47115797354E+01  0.75755815875E+03  0.00000000000E+00 0.  1.
          2    1    6    6  502    0 -0.33441984803E+02  0.16937053806E+02 -0.15259771663E+02  0.40473334065E+02  0.00000000000E+00 0. -1.
          3    1    5    5  503    0  0.77700487003E+02 -0.11498473641E+03 -0.17801411467E+03  0.22571637138E+03  0.00000000000E+00 0. -1.
         -4    1    5    5    0  503 -0.12502923656E+02 -0.53219845963E+02 -0.13004174785E+03  0.14106569848E+03  0.00000000000E+00 0.  1.
         -1    1    6    6    0  502 -0.98166400542E+03  0.97782268143E+02 -0.21398652654E+03  0.10094631370E+04  0.00000000000E+00 0.  1.
<mgrwt>
<rscale>  0 0.23221339E+04</rscale>
<asrwt>0</asrwt>
<pdfrwt beam="1">  1        1 0.22049167E+00 0.23221339E+04</pdfrwt>
<pdfrwt beam="2">  1       -1 0.14470902E+00 0.23221339E+04</pdfrwt>
<totfact> 0.25235778E+00</totfact>
</mgrwt>
</event>
<event>
12    1  0.1536832E-007  0.1351826E+04  0.7818608E-02  0.8989447E-01
          2   -1    0    0  501    0  0.00000000000E+00  0.00000000000E+00  0.15441505679E+04  0.15441505679E+04  0.00000000000E+00 0. -1.
         -2   -1    0    0    0  501 -0.00000000000E+00 -0.00000000000E+00 -0.29586366595E+03  0.29586366595E+03  0.00000000000E+00 0.  1.
         23    2    1    2    0    0  0.10218806015E+03  0.21045824999E+03 -0.29672550932E+02  0.25086539880E+03  0.85544803509E+02 0.  0.
        254    2    1    2    0    0 -0.10218806015E+03 -0.21045824999E+03  0.12779594528E+04  0.15891488350E+04  0.91513855896E+03 0.  0.
        -24    2    4    4    0    0 -0.43982957508E+02 -0.36666930576E+03  0.13406414643E+04  0.13928438665E+04  0.79458292832E+02 0.  0.
         24    2    4    4    0    0 -0.58205102647E+02  0.15621105577E+03 -0.62682011490E+02  0.19630496849E+03  0.82564388034E+02 0.  0.
         13    1    3    3    0    0  0.30624588374E+02  0.36524516880E+02  0.26551672668E+02  0.54560948194E+02  0.00000000000E+00 0. -1.
        -13    1    3    3    0    0  0.71563471781E+02  0.17393373311E+03 -0.56224223600E+02  0.19630445060E+03  0.00000000000E+00 0.  1.
          4    1    6    6  502    0  0.62790926463E+01 -0.50691246598E+01 -0.13592616763E+02  0.15807664588E+02  0.00000000000E+00 0. -1.
          3    1    5    5  503    0 -0.65049303789E+02 -0.23939551300E+03  0.92052539171E+03  0.95336699143E+03  0.00000000000E+00 0. -1.
         -4    1    5    5    0  503  0.21066346281E+02 -0.12727379276E+03  0.42011607262E+03  0.43947687510E+03  0.00000000000E+00 0.  1.
         -3    1    6    6    0  502 -0.64484195293E+02  0.16128018043E+03 -0.49089394727E+02  0.18049730390E+03  0.00000000000E+00 0.  1.
<mgrwt>
<rscale>  0 0.13518255E+04</rscale>
<asrwt>0</asrwt>
<pdfrwt beam="1">  1        2 0.23756162E+00 0.13518255E+04</pdfrwt>
<pdfrwt beam="2">  1       -2 0.45517488E-01 0.13518255E+04</pdfrwt>
<totfact> 0.53566895E+01</totfact>
</mgrwt>
</event>
<event>
12    1  0.1536832E-007  0.2341711E+04  0.7818608E-02  0.8461654E-01
         -2   -1    0    0    0  501 -0.00000000000E+00  0.00000000000E+00  0.20618778252E+04  0.20618778252E+04  0.00000000000E+00 0.  1.
          2   -1    0    0  501    0  0.00000000000E+00 -0.00000000000E+00 -0.66488039489E+03  0.66488039489E+03  0.00000000000E+00 0. -1.
         23    2    1    2    0    0  0.86233632994E+03  0.28488297265E+02  0.19201173356E+02  0.86790425741E+03  0.91943384470E+02 0.  0.
        254    2    1    2    0    0 -0.86233632994E+03 -0.28488297265E+02  0.13777962570E+04  0.18588539627E+04  0.90143219373E+03 0.  0.
        -24    2    4    4    0    0 -0.20675798910E+03 -0.31402454458E+03  0.10798297307E+03  0.39875795883E+03  0.77377688013E+02 0.  0.
         24    2    4    4    0    0 -0.65557834084E+03  0.28553624731E+03  0.12698132839E+04  0.14600960039E+04  0.90225578618E+02 0.  0.
         11    1    3    3    0    0  0.49373778004E+03  0.46412658591E+02 -0.23109252843E+02  0.49645258372E+03  0.00000000000E+00 0. -1.
        -11    1    3    3    0    0  0.36859854990E+03 -0.17924361326E+02  0.42310426199E+02  0.37145167369E+03  0.00000000000E+00 0.  1.
          4    1    6    6  502    0 -0.91803133472E+02  0.87678451717E+01  0.18070650588E+03  0.20287812029E+03  0.00000000000E+00 0. -1.
          1    1    5    5  503    0 -0.13577387162E+02 -0.17652064500E+02 -0.11867957384E+02  0.25234683191E+02  0.00000000000E+00 0. -1.
         -2    1    5    5    0  503 -0.19318060194E+03 -0.29637248008E+03  0.11985093046E+03  0.37352327564E+03  0.00000000000E+00 0.  1.
         -3    1    6    6    0  502 -0.56377520737E+03  0.27676840214E+03  0.10891067780E+04  0.12572178836E+04  0.00000000000E+00 0.  1.
<mgrwt>
<rscale>  0 0.23417106E+04</rscale>
<asrwt>0</asrwt>
<pdfrwt beam="1">  1        2 0.10228929E+00 0.23417106E+04</pdfrwt>
<pdfrwt beam="2">  1       -2 0.31721197E+00 0.23417106E+04</pdfrwt>
<totfact> 0.98452485E-01</totfact>
</mgrwt>
</event>
<event>
12    1  0.1536832E-007  0.1367867E+04  0.7818608E-02  0.8977412E-01
         -2   -1    0    0    0  501 -0.00000000000E+00  0.00000000000E+00  0.12776432097E+03  0.12776432097E+03  0.00000000000E+00 0.  1.
          2   -1    0    0  501    0  0.00000000000E+00 -0.00000000000E+00 -0.36611558507E+04  0.36611558507E+04  0.00000000000E+00 0. -1.
         23    2    1    2    0    0 -0.84276638669E+02  0.55177842903E+01 -0.20794446251E+04  0.20831037827E+04  0.89991237067E+02 0.  0.
        254    2    1    2    0    0  0.84276638669E+02 -0.55177842903E+01 -0.14539469046E+04  0.17058163890E+04  0.88809625250E+03 0.  0.
        -24    2    4    4    0    0 -0.24656781812E+03  0.22579361109E+03 -0.11320075638E+04  0.11831916162E+04  0.81992879868E+02 0.  0.
         24    2    4    4    0    0  0.33084445678E+03 -0.23131139538E+03 -0.32193934083E+03  0.52262477282E+03  0.80800357500E+02 0.  0.
         13    1    3    3    0    0  0.10535586358E+02  0.15642944581E+02 -0.13363682123E+03  0.13496110656E+03  0.00000000000E+00 0.  1.
        -13    1    3    3    0    0 -0.94812225028E+02 -0.10125160291E+02 -0.19458078039E+04  0.19481426761E+04  0.00000000000E+00 0. -1.
          2    1    6    6  502    0  0.90080658529E+02 -0.10778872098E+03 -0.96583172605E+02  0.17047358342E+03  0.00000000000E+00 0. -1.
          3    1    5    5  503    0 -0.16434078375E+03  0.19348992029E+03 -0.89283011310E+03  0.92821972254E+03  0.00000000000E+00 0. -1.
         -4    1    5    5    0  503 -0.82227034364E+02  0.32303690796E+02 -0.23917745069E+03  0.25497189362E+03  0.00000000000E+00 0.  1.
         -1    1    6    6    0  502  0.24076379826E+03 -0.12352267439E+03 -0.22535616823E+03  0.35215118940E+03  0.00000000000E+00 0.  1.
<mgrwt>
<rscale>  0 0.13678671E+04</rscale>
<asrwt>0</asrwt>
<pdfrwt beam="1">  1        2 0.56325486E+00 0.13678671E+04</pdfrwt>
<pdfrwt beam="2">  1       -2 0.19656046E-01 0.13678671E+04</pdfrwt>
<totfact> 0.13694917E+01</totfact>
</mgrwt>
</event>
<event>
12    1  0.1536832E-007  0.1114206E+04  0.7818608E-02  0.9191456E-01
          2   -1    0    0  501    0  0.00000000000E+00  0.00000000000E+00  0.79721135946E+03  0.79721135946E+03  0.00000000000E+00 0. -1.
         -2   -1    0    0    0  501 -0.00000000000E+00 -0.00000000000E+00 -0.38931156110E+03  0.38931156110E+03  0.00000000000E+00 0.  1.
         23    2    1    2    0    0 -0.43970246945E+02  0.58162002783E+02  0.23899530799E+03  0.26521727074E+03  0.88911429361E+02 0.  0.
        254    2    1    2    0    0  0.43970246945E+02 -0.58162002783E+02  0.16890449037E+03  0.92130564983E+03  0.90275089164E+03 0.  0.
        -24    2    4    4    0    0 -0.11744308189E+02 -0.46983178980E+03  0.14152623706E+03  0.49702478092E+03  0.78256741563E+02 0.  0.
         24    2    4    4    0    0  0.55714555134E+02  0.41166978701E+03  0.27378253310E+02  0.42428086890E+03  0.81783627774E+02 0.  0.
         13    1    3    3    0    0 -0.14677110449E+02  0.69567299408E+02  0.21258822529E+03  0.22416239705E+03  0.00000000000E+00 0. -1.
        -13    1    3    3    0    0 -0.29293136496E+02 -0.11405296625E+02  0.26407082702E+02  0.41054873690E+02  0.00000000000E+00 0.  1.
          2    1    6    6  502    0  0.96360231730E+00  0.17990256881E+03 -0.21452761137E+02  0.18117970018E+03  0.00000000000E+00 0. -1.
          1    1    5    5  503    0  0.16632985043E+02 -0.31197225697E+03  0.12224343812E+03  0.33547995987E+03  0.00000000000E+00 0. -1.
         -2    1    5    5    0  503 -0.28377293232E+02 -0.15785953283E+03  0.19282798940E+02  0.16154482106E+03  0.00000000000E+00 0.  1.
         -1    1    6    6    0  502  0.54750952816E+02  0.23176721820E+03  0.48831014447E+02  0.24310116873E+03  0.00000000000E+00 0.  1.
<mgrwt>
<rscale>  0 0.11142057E+04</rscale>
<asrwt>0</asrwt>
<pdfrwt beam="1">  1        2 0.12264790E+00 0.11142057E+04</pdfrwt>
<pdfrwt beam="2">  1       -2 0.59894086E-01 0.11142057E+04</pdfrwt>
<totfact> 0.89278591E+01</totfact>
</mgrwt>
</event>
<event>
12    1  0.1536832E-007  0.1160349E+04  0.7818608E-02  0.9148288E-01
          2   -1    0    0  501    0  0.00000000000E+00  0.00000000000E+00  0.67712780396E+03  0.67712780396E+03  0.00000000000E+00 0. -1.
         -2   -1    0    0    0  501 -0.00000000000E+00 -0.00000000000E+00 -0.49710366798E+03  0.49710366798E+03  0.00000000000E+00 0.  1.
         23    2    1    2    0    0  0.17927749738E+03  0.99906756256E+02 -0.42068622803E+02  0.22846401498E+03  0.91127691191E+02 0.  0.
        254    2    1    2    0    0 -0.17927749738E+03 -0.99906756256E+02  0.22209275878E+03  0.94576745697E+03  0.89611891406E+03 0.  0.
        -24    2    4    4    0    0 -0.49547410514E+03 -0.37746658485E+01 -0.58395897773E+02  0.50525726159E+03  0.79787107629E+02 0.  0.
         24    2    4    4    0    0  0.31619660776E+03 -0.96132090408E+02  0.28048865655E+03  0.44051019538E+03  0.78445345414E+02 0.  0.
         13    1    3    3    0    0  0.14143844649E+03  0.67602211794E+02  0.91861433373E+01  0.15703273039E+03  0.00000000000E+00 0.  1.
        -13    1    3    3    0    0  0.37839050890E+02  0.32304544462E+02 -0.51254766140E+02  0.71431284583E+02  0.00000000000E+00 0. -1.
          2    1    6    6  502    0  0.25381432268E+03 -0.75908662338E+02  0.17917326387E+03  0.31982322290E+03  0.00000000000E+00 0. -1.
          1    1    5    5  503    0 -0.41839111237E+03 -0.29114509741E+02 -0.62388885316E+02  0.42401786589E+03  0.00000000000E+00 0. -1.
         -2    1    5    5    0  503 -0.77082992771E+02  0.25339843893E+02  0.39929875432E+01  0.81239395693E+02  0.00000000000E+00 0.  1.
         -1    1    6    6    0  502  0.62382285077E+02 -0.20223428069E+02  0.10131539268E+03  0.12068697249E+03  0.00000000000E+00 0.  1.
<mgrwt>
<rscale>  0 0.11603495E+04</rscale>
<asrwt>0</asrwt>
<pdfrwt beam="1">  1        2 0.10417351E+00 0.11603495E+04</pdfrwt>
<pdfrwt beam="2">  1       -2 0.76477488E-01 0.11603495E+04</pdfrwt>
<totfact> 0.64662767E+01</totfact>
</mgrwt>
</event>
<event>
12    1  0.1536832E-007  0.1889461E+04  0.7818608E-02  0.8660120E-01
          2   -1    0    0  501    0  0.00000000000E+00  0.00000000000E+00  0.10988381503E+04  0.10988381503E+04  0.00000000000E+00 0. -1.
         -2   -1    0    0    0  501 -0.00000000000E+00 -0.00000000000E+00 -0.81223593258E+03  0.81223593258E+03  0.00000000000E+00 0.  1.
         23    2    1    2    0    0 -0.62609437326E+03  0.31384782397E+03  0.30430999247E+03  0.76900109080E+03  0.90903714380E+02 0.  0.
        254    2    1    2    0    0  0.62609437326E+03 -0.31384782397E+03 -0.17707774766E+02  0.11420729921E+04  0.90195483982E+03 0.  0.
        -24    2    4    4    0    0 -0.18923916731E+03  0.40038690082E+02 -0.12303000473E+03  0.24334760899E+03  0.81652419386E+02 0.  0.
         24    2    4    4    0    0  0.81533354057E+03 -0.35388651405E+03  0.10532222996E+03  0.89872538307E+03  0.81302489773E+02 0.  0.
         11    1    3    3    0    0 -0.39653330495E+02  0.47952895859E+02  0.23198300415E+02  0.66408041553E+02  0.00000000000E+00 0.  1.
        -11    1    3    3    0    0 -0.58644104277E+03  0.26589492811E+03  0.28111169205E+03  0.70259304924E+03  0.00000000000E+00 0. -1.
          4    1    6    6  502    0  0.20423346768E+03 -0.12696912523E+03  0.20415991825E+02  0.24134887778E+03  0.00000000000E+00 0. -1.
          3    1    5    5  503    0 -0.45361239496E+02  0.45803894792E+02 -0.51810945122E+02  0.82704370266E+02  0.00000000000E+00 0. -1.
         -4    1    5    5    0  503 -0.14387792782E+03 -0.57652047091E+01 -0.71219059606E+02  0.16064323873E+03  0.00000000000E+00 0.  1.
         -3    1    6    6    0  502  0.61110007289E+03 -0.22691738882E+03  0.84906238137E+02  0.65737650529E+03  0.00000000000E+00 0.  1.
<mgrwt>
<rscale>  0 0.18894611E+04</rscale>
<asrwt>0</asrwt>
<pdfrwt beam="1">  1        2 0.16905202E+00 0.18894611E+04</pdfrwt>
<pdfrwt beam="2">  1       -2 0.12495937E+00 0.18894611E+04</pdfrwt>
<totfact> 0.98168762E+00</totfact>
</mgrwt>
</event>
<event>
12    1  0.1536832E-007  0.2233147E+04  0.7818608E-02  0.8504757E-01
         -1   -1    0    0    0  501 -0.00000000000E+00  0.00000000000E+00  0.37436106503E+03  0.37436106503E+03  0.00000000000E+00 0.  1.
          1   -1    0    0  501    0  0.00000000000E+00 -0.00000000000E+00 -0.33303039810E+04  0.33303039810E+04  0.00000000000E+00 0. -1.
         23    2    1    2    0    0  0.36315631855E+03  0.49304055377E+03 -0.24197025317E+04  0.24975151333E+04  0.87464278264E+02 0.  0.
        254    2    1    2    0    0 -0.36315631855E+03 -0.49304055377E+03 -0.53624038427E+03  0.12071499127E+04  0.89145143594E+03 0.  0.
        -24    2    4    4    0    0 -0.27988258717E+03 -0.64133486777E+03 -0.67366056659E+03  0.97458274299E+03  0.79676149121E+02 0.  0.
         24    2    4    4    0    0 -0.83273731383E+02  0.14829431400E+03  0.13742018233E+03  0.23256716970E+03  0.79230448744E+02 0.  0.
         13    1    3    3    0    0  0.56139192671E+02  0.46255902391E+02 -0.38641164361E+03  0.39319864672E+03  0.00000000000E+00 0.  1.
        -13    1    3    3    0    0  0.30701712588E+03  0.44678465137E+03 -0.20332908881E+04  0.21043164866E+04  0.00000000000E+00 0. -1.
          2    1    6    6  502    0 -0.88093008136E+02  0.15563825503E+03  0.13079728467E+03  0.22156618467E+03  0.00000000000E+00 0. -1.
          1    1    5    5  503    0 -0.20099048293E+03 -0.48795061255E+03 -0.55086323627E+03  0.76285206927E+03  0.00000000000E+00 0. -1.
         -2    1    5    5    0  503 -0.78892104235E+02 -0.15338425522E+03 -0.12279733032E+03  0.21173067372E+03  0.00000000000E+00 0.  1.
         -1    1    6    6    0  502  0.48192767532E+01 -0.73439410304E+01  0.66228976562E+01  0.11000985031E+02  0.00000000000E+00 0.  1.
<mgrwt>
<rscale>  0 0.22331468E+04</rscale>
<asrwt>0</asrwt>
<pdfrwt beam="1">  1        1 0.51235446E+00 0.22331468E+04</pdfrwt>
<pdfrwt beam="2">  1       -1 0.57594010E-01 0.22331468E+04</pdfrwt>
<totfact> 0.94154532E-01</totfact>
</mgrwt>
</event>
<event>
12    1  0.1536832E-007  0.2189751E+04  0.7818608E-02  0.8522706E-01
          2   -1    0    0  501    0  0.00000000000E+00  0.00000000000E+00  0.22307222766E+04  0.22307222766E+04  0.00000000000E+00 0. -1.
         -2   -1    0    0    0  501 -0.00000000000E+00 -0.00000000000E+00 -0.53738291304E+03  0.53738291304E+03  0.00000000000E+00 0.  1.
         23    2    1    2    0    0 -0.47044713851E+03 -0.39546451514E+03  0.15447210044E+04  0.16647366477E+04  0.86443229271E+02 0.  0.
        254    2    1    2    0    0  0.47044713851E+03  0.39546451514E+03  0.14861835918E+03  0.11033685420E+04  0.90422454614E+03 0.  0.
        -24    2    4    4    0    0  0.60877506724E+03  0.14141671372E+03 -0.18280767599E+03  0.65606179804E+03  0.79954155776E+02 0.  0.
         24    2    4    4    0    0 -0.13832792874E+03  0.25404780142E+03  0.33142603517E+03  0.44730674392E+03  0.81025953205E+02 0.  0.
         13    1    3    3    0    0 -0.10352415644E+03 -0.47172341713E+02  0.32103239918E+03  0.34059401362E+03  0.00000000000E+00 0.  1.
        -13    1    3    3    0    0 -0.36692298206E+03 -0.34829217343E+03  0.12236886052E+04  0.13241426341E+04  0.00000000000E+00 0. -1.
          4    1    6    6  502    0 -0.75116678398E+02  0.69379992098E+02  0.85179293913E+02  0.13308497582E+03  0.00000000000E+00 0. -1.
          1    1    5    5  503    0  0.16825816222E+03  0.76378964070E+02 -0.52607504072E+02  0.19212523205E+03  0.00000000000E+00 0. -1.
         -2    1    5    5    0  503  0.44051690502E+03  0.65037749648E+02 -0.13020017192E+03  0.46393656599E+03  0.00000000000E+00 0.  1.
         -3    1    6    6    0  502 -0.63211250339E+02  0.18466780933E+03  0.24624674126E+03  0.31422176810E+03  0.00000000000E+00 0.  1.
<mgrwt>
<rscale>  0 0.21897507E+04</rscale>
<asrwt>0</asrwt>
<pdfrwt beam="1">  1        2 0.34318804E+00 0.21897507E+04</pdfrwt>
<pdfrwt beam="2">  1       -2 0.82674296E-01 0.21897507E+04</pdfrwt>
<totfact> 0.58247687E+00</totfact>
</mgrwt>
</event>
<event>
12    1  0.1536832E-007  0.2706454E+04  0.7818608E-02  0.8332914E-01
          2   -1    0    0  501    0  0.00000000000E+00  0.00000000000E+00  0.10643398999E+04  0.10643398999E+04  0.00000000000E+00 0. -1.
         -2   -1    0    0    0  501 -0.00000000000E+00 -0.00000000000E+00 -0.17205247247E+04  0.17205247247E+04  0.00000000000E+00 0.  1.
         23    2    1    2    0    0 -0.15794122220E+03 -0.13384302479E+03 -0.15079089620E+04  0.15249478693E+04  0.93899848291E+02 0.  0.
        254    2    1    2    0    0  0.15794122220E+03  0.13384302479E+03  0.85172413713E+03  0.12599167553E+04  0.90503968947E+03 0.  0.
        -24    2    4    4    0    0  0.28561734838E+03 -0.19952577484E+02 -0.75577322350E+02  0.30807694253E+03  0.84994681139E+02 0.  0.
         24    2    4    4    0    0 -0.12767612618E+03  0.15379560227E+03  0.92730145948E+03  0.95183981275E+03  0.78464972555E+02 0.  0.
         13    1    3    3    0    0 -0.76169262859E+01 -0.58483765830E+02 -0.36473083234E+03  0.36946846752E+03  0.00000000000E+00 0. -1.
        -13    1    3    3    0    0 -0.15032429591E+03 -0.75359258960E+02 -0.11431781297E+04  0.11554794018E+04  0.00000000000E+00 0.  1.
          2    1    6    6  502    0 -0.34904513447E+02  0.35736271623E+02  0.10932983590E+03  0.12020157730E+03  0.00000000000E+00 0. -1.
          1    1    5    5  503    0  0.88991602312E+02 -0.24896239333E+02  0.11223169083E+02  0.93087526228E+02  0.00000000000E+00 0. -1.
         -2    1    5    5    0  503  0.19662574607E+03  0.49436618493E+01 -0.86800491433E+02  0.21498941630E+03  0.00000000000E+00 0.  1.
         -1    1    6    6    0  502 -0.92771612737E+02  0.11805933065E+03  0.81797162358E+03  0.83163823545E+03  0.00000000000E+00 0.  1.
<mgrwt>
<rscale>  0 0.27064539E+04</rscale>
<asrwt>0</asrwt>
<pdfrwt beam="1">  1        2 0.16374460E+00 0.27064539E+04</pdfrwt>
<pdfrwt beam="2">  1       -2 0.26469611E+00 0.27064539E+04</pdfrwt>
<totfact> 0.10498429E+00</totfact>
</mgrwt>
</event>
<event>
12    1  0.1536832E-007  0.1140264E+04  0.7818608E-02  0.9166813E-01
          2   -1    0    0  501    0  0.00000000000E+00  0.00000000000E+00  0.66055674887E+03  0.66055674887E+03  0.00000000000E+00 0. -1.
         -2   -1    0    0    0  501 -0.00000000000E+00 -0.00000000000E+00 -0.49208556249E+03  0.49208556249E+03  0.00000000000E+00 0.  1.
         23    2    1    2    0    0 -0.10193078333E+03 -0.15678087739E+03  0.11675009907E+03  0.23924350157E+03  0.92934058907E+02 0.  0.
        254    2    1    2    0    0  0.10193078333E+03  0.15678087739E+03  0.51721087308E+02  0.91339880978E+03  0.89255374445E+03 0.  0.
        -24    2    4    4    0    0 -0.20790024078E+03  0.27161711714E+03  0.32384861056E+03  0.47789822812E+03  0.80687207403E+02 0.  0.
         24    2    4    4    0    0  0.30983102411E+03 -0.11483623975E+03 -0.27212752325E+03  0.43550058166E+03  0.80154489897E+02 0.  0.
         11    1    3    3    0    0 -0.42806024895E+02 -0.13775903414E+03  0.97889050251E+02  0.17433351202E+03  0.00000000000E+00 0. -1.
        -11    1    3    3    0    0 -0.59124758435E+02 -0.19021843250E+02  0.18861048818E+02  0.64909989548E+02  0.00000000000E+00 0.  1.
          4    1    6    6  502    0  0.26221019316E+03 -0.12622696523E+03 -0.23070205641E+03  0.37136352942E+03  0.00000000000E+00 0. -1.
          3    1    5    5  503    0 -0.13799567931E+03  0.23372826616E+03  0.23954230669E+03  0.36201136253E+03  0.00000000000E+00 0. -1.
         -2    1    5    5    0  503 -0.69904561473E+02  0.37888850985E+02  0.84306303876E+02  0.11588686559E+03  0.00000000000E+00 0.  1.
         -3    1    6    6    0  502  0.47620830950E+02  0.11390725476E+02 -0.41425466842E+02  0.64137052243E+02  0.00000000000E+00 0.  1.
<mgrwt>
<rscale>  0 0.11402639E+04</rscale>
<asrwt>0</asrwt>
<pdfrwt beam="1">  1        2 0.10162411E+00 0.11402639E+04</pdfrwt>
<pdfrwt beam="2">  1       -2 0.75705471E-01 0.11402639E+04</pdfrwt>
<totfact> 0.68307779E+01</totfact>
</mgrwt>
</event>
<event>
12    1  0.1536832E-007  0.1371129E+04  0.7818608E-02  0.8974986E-01
         -2   -1    0    0    0  501 -0.00000000000E+00  0.00000000000E+00  0.22569539033E+03  0.22569539033E+03  0.00000000000E+00 0. -1.
          2   -1    0    0  501    0  0.00000000000E+00 -0.00000000000E+00 -0.20824461796E+04  0.20824461796E+04  0.00000000000E+00 0.  1.
         23    2    1    2    0    0  0.16916440607E+03 -0.18437727431E+02  0.42985017892E+02  0.19802793614E+03  0.91710444633E+02 0.  0.
        254    2    1    2    0    0 -0.16916440607E+03  0.18437727431E+02 -0.18997358071E+04  0.21101136338E+04  0.90256681993E+03 0.  0.
        -24    2    4    4    0    0  0.25490677104E+03  0.24219998074E+03 -0.12328073745E+04  0.12843922162E+04  0.78810214255E+02 0.  0.
         24    2    4    4    0    0 -0.42407117710E+03 -0.22376225330E+03 -0.66692843262E+03  0.82572141754E+03  0.84358851892E+02 0.  0.
         13    1    3    3    0    0  0.10668833128E+03 -0.32727555316E+02  0.66329246926E+02  0.12981934334E+03  0.00000000000E+00 0. -1.
        -13    1    3    3    0    0  0.62476074786E+02  0.14289827885E+02 -0.23344229034E+02  0.68208592794E+02  0.00000000000E+00 0.  1.
          2    1    6    6  502    0 -0.81581838460E+02 -0.25990269322E+02 -0.17246519598E+03  0.19254956321E+03  0.00000000000E+00 0. -1.
          3    1    5    5  503    0  0.20253484527E+02  0.31802377797E+02 -0.68592134093E+02  0.78271806727E+02  0.00000000000E+00 0. -1.
         -4    1    5    5    0  503  0.23465328651E+03  0.21039760294E+03 -0.11642152404E+04  0.12061204095E+04  0.00000000000E+00 0.  1.
         -1    1    6    6    0  502 -0.34248933864E+03 -0.19777198398E+03 -0.49446323664E+03  0.63317185433E+03  0.00000000000E+00 0.  1.
<mgrwt>
<rscale>  0 0.13711287E+04</rscale>
<asrwt>0</asrwt>
<pdfrwt beam="1">  1        2 0.32037634E+00 0.13711287E+04</pdfrwt>
<pdfrwt beam="2">  1       -2 0.34722368E-01 0.13711287E+04</pdfrwt>
<totfact> 0.45643943E+01</totfact>
</mgrwt>
</event>
<event>
12    1  0.1536832E-007  0.1734599E+04  0.7818608E-02  0.8741874E-01
          1   -1    0    0  501    0  0.00000000000E+00  0.00000000000E+00  0.97347093209E+03  0.97347093209E+03  0.00000000000E+00 0. -1.
         -1   -1    0    0    0  501 -0.00000000000E+00 -0.00000000000E+00 -0.77270760024E+03  0.77270760024E+03  0.00000000000E+00 0.  1.
         23    2    1    2    0    0  0.34688043167E+03  0.20292004688E+03  0.56627412622E+03  0.70045649437E+03  0.92034423868E+02 0.  0.
        254    2    1    2    0    0 -0.34688043167E+03 -0.20292004688E+03 -0.36551079437E+03  0.10457220380E+04  0.89355126353E+03 0.  0.
        -24    2    4    4    0    0 -0.30774405519E+03  0.30955932586E+03 -0.75645490060E+02  0.45011284306E+03  0.79661481219E+02 0.  0.
         24    2    4    4    0    0 -0.39136376483E+02 -0.51247937275E+03 -0.28986530431E+03  0.59560919489E+03  0.81004042772E+02 0.  0.
         13    1    3    3    0    0  0.32340456802E+03  0.17300752484E+03  0.54489033664E+03  0.65683148313E+03  0.00000000000E+00 0. -1.
        -13    1    3    3    0    0  0.23475863659E+02  0.29912522042E+02  0.21383789586E+02  0.43625011249E+02  0.00000000000E+00 0.  1.
          4    1    6    6  502    0 -0.63187655903E+02 -0.30832759017E+03 -0.17764650043E+03  0.36140954862E+03  0.00000000000E+00 0. -1.
          3    1    5    5  503    0 -0.19557306037E+03  0.20966519701E+03 -0.86592870998E+02  0.29951067108E+03  0.00000000000E+00 0. -1.
         -2    1    5    5    0  503 -0.11217099482E+03  0.99894128853E+02  0.10947380939E+02  0.15060217199E+03  0.00000000000E+00 0.  1.
         -3    1    6    6    0  502  0.24051279420E+02 -0.20415178258E+03 -0.11221880387E+03  0.23419964627E+03  0.00000000000E+00 0.  1.
<mgrwt>
<rscale>  0 0.17345990E+04</rscale>
<asrwt>0</asrwt>
<pdfrwt beam="1">  1        1 0.14976476E+00 0.17345990E+04</pdfrwt>
<pdfrwt beam="2">  1       -1 0.11887809E+00 0.17345990E+04</pdfrwt>
<totfact> 0.95451033E+00</totfact>
</mgrwt>
</event>
<event>
12    1  0.1536832E-007  0.1866697E+04  0.7818608E-02  0.8671613E-01
          2   -1    0    0  501    0  0.00000000000E+00  0.00000000000E+00  0.12893529357E+04  0.12893529357E+04  0.00000000000E+00 0. -1.
         -2   -1    0    0    0  501 -0.00000000000E+00 -0.00000000000E+00 -0.67564089374E+03  0.67564089374E+03  0.00000000000E+00 0.  1.
         23    2    1    2    0    0  0.51895905260E+03 -0.48714052372E+03  0.35370174542E+03  0.80068636744E+03  0.96795383020E+02 0.  0.
        254    2    1    2    0    0 -0.51895905260E+03  0.48714052372E+03  0.26001029658E+03  0.11643074620E+04  0.88395821378E+03 0.  0.
        -24    2    4    4    0    0 -0.75545856279E+03  0.30717533672E+03  0.12996788395E+03  0.83047355234E+03  0.87865480698E+02 0.  0.
         24    2    4    4    0    0  0.23649951020E+03  0.17996518700E+03  0.13004241262E+03  0.33383390969E+03  0.78832501706E+02 0.  0.
         13    1    3    3    0    0  0.76580425930E+01  0.22434157787E+01  0.12849307437E+02  0.15125582049E+02  0.00000000000E+00 0.  1.
        -13    1    3    3    0    0  0.51130101000E+03 -0.48938393950E+03  0.34085243798E+03  0.78556078539E+03  0.00000000000E+00 0. -1.
          2    1    6    6  502    0  0.89978618551E+02  0.80390092577E+02  0.94233532611E+02  0.15309695441E+03  0.00000000000E+00 0. -1.
          3    1    5    5  503    0 -0.66334140804E+03  0.29448548470E+03  0.99148134921E+02  0.73251203197E+03  0.00000000000E+00 0. -1.
         -4    1    5    5    0  503 -0.92117154751E+02  0.12689852019E+02  0.30819749033E+02  0.97961520374E+02  0.00000000000E+00 0.  1.
         -1    1    6    6    0  502  0.14652089165E+03  0.99575094423E+02  0.35808880013E+02  0.18073695529E+03  0.00000000000E+00 0.  1.
<mgrwt>
<rscale>  0 0.18666972E+04</rscale>
<asrwt>0</asrwt>
<pdfrwt beam="1">  1        2 0.19836199E+00 0.18666972E+04</pdfrwt>
<pdfrwt beam="2">  1       -2 0.10394475E+00 0.18666972E+04</pdfrwt>
<totfact> 0.11862225E+01</totfact>
</mgrwt>
</event>
<event>
12    1  0.1536832E-007  0.2142072E+04  0.7818608E-02  0.8542934E-01
          2   -1    0    0  501    0  0.00000000000E+00  0.00000000000E+00  0.21728243964E+04  0.21728243964E+04  0.00000000000E+00 0. -1.
         -2   -1    0    0    0  501 -0.00000000000E+00 -0.00000000000E+00 -0.52793856709E+03  0.52793856709E+03  0.00000000000E+00 0.  1.
         23    2    1    2    0    0 -0.67335396247E+03 -0.28890703092E+02 -0.17385698953E+02  0.68226401935E+03  0.10460257199E+03 0.  0.
        254    2    1    2    0    0  0.67335396247E+03  0.28890703092E+02  0.16622715283E+04  0.20184989441E+04  0.92571654535E+03 0.  0.
        -24    2    4    4    0    0 -0.18037286645E+03  0.14441201785E+03  0.60252481634E+03  0.65054139961E+03  0.82333203801E+02 0.  0.
         24    2    4    4    0    0  0.85372682892E+03 -0.11552131476E+03  0.10597467119E+04  0.13679575445E+04  0.77782244935E+02 0.  0.
         13    1    3    3    0    0 -0.55382635002E+03 -0.23915060560E+00  0.18765620402E+02  0.55414423365E+03  0.00000000000E+00 0.  1.
        -13    1    3    3    0    0 -0.11952761245E+03 -0.28651552487E+02 -0.36151319355E+02  0.12811978570E+03  0.00000000000E+00 0. -1.
          4    1    6    6  502    0  0.15872175711E+02 -0.46427888921E+01  0.70674295493E+01  0.17984160000E+02  0.00000000000E+00 0. -1.
          1    1    5    5  503    0 -0.12496909305E+03  0.52417008388E+02  0.38041661890E+03  0.40383365502E+03  0.00000000000E+00 0. -1.
         -2    1    5    5    0  503 -0.55403773398E+02  0.91995009464E+02  0.22210819743E+03  0.24670774459E+03  0.00000000000E+00 0.  1.
         -3    1    6    6    0  502  0.83785465321E+03 -0.11087852587E+03  0.10526792824E+04  0.13499733845E+04  0.00000000000E+00 0.  1.
<mgrwt>
<rscale>  0 0.21420717E+04</rscale>
<asrwt>0</asrwt>
<pdfrwt beam="1">  1        2 0.33428067E+00 0.21420717E+04</pdfrwt>
<pdfrwt beam="2">  1       -2 0.81221319E-01 0.21420717E+04</pdfrwt>
<totfact> 0.65615358E+00</totfact>
</mgrwt>
</event>
<event>
12    1  0.1536832E-007  0.1512815E+04  0.7818608E-02  0.8875976E-01
          2   -1    0    0  501    0  0.00000000000E+00  0.00000000000E+00  0.18868778601E+04  0.18868778601E+04  0.00000000000E+00 0. -1.
         -2   -1    0    0    0  501 -0.00000000000E+00 -0.00000000000E+00 -0.30322684115E+03  0.30322684115E+03  0.00000000000E+00 0.  1.
         23    2    1    2    0    0  0.10282413269E+03 -0.45013359586E+03  0.73696933217E+03  0.87438425165E+03  0.90724674617E+02 0.  0.
        254    2    1    2    0    0 -0.10282413269E+03  0.45013359586E+03  0.84668168674E+03  0.13157204496E+04  0.89501808158E+03 0.  0.
        -24    2    4    4    0    0  0.14795114668E+03  0.58794710691E+03  0.81190159129E+03  0.10161545659E+04  0.76253298575E+02 0.  0.
         24    2    4    4    0    0 -0.25077527937E+03 -0.13781351106E+03  0.34780095444E+02  0.29956588365E+03  0.81542988878E+02 0.  0.
         13    1    3    3    0    0  0.31050532244E+02 -0.19815502252E+03  0.24169546546E+03  0.31408000020E+03  0.00000000000E+00 0.  1.
        -13    1    3    3    0    0  0.71773600451E+02 -0.25197857334E+03  0.49527386671E+03  0.56030425144E+03  0.00000000000E+00 0. -1.
          2    1    6    6  502    0  0.42268323786E+01 -0.30331503600E+01  0.84677531765E+01  0.99382572376E+01  0.00000000000E+00 0. -1.
          3    1    5    5  503    0  0.73267249856E+01  0.10066091990E+03  0.10009309360E+03  0.14214404342E+03  0.00000000000E+00 0. -1.
         -4    1    5    5    0  503  0.14062442169E+03  0.48728618702E+03  0.71180849769E+03  0.87401052249E+03  0.00000000000E+00 0.  1.
         -3    1    6    6    0  502 -0.25500211175E+03 -0.13478036070E+03  0.26312342268E+02  0.28962762642E+03  0.00000000000E+00 0.  1.
<mgrwt>
<rscale>  0 0.15128146E+04</rscale>
<asrwt>0</asrwt>
<pdfrwt beam="1">  1        2 0.29028889E+00 0.15128146E+04</pdfrwt>
<pdfrwt beam="2">  1       -2 0.46650284E-01 0.15128146E+04</pdfrwt>
<totfact> 0.32472898E+01</totfact>
</mgrwt>
</event>
<event>
12    1  0.1536832E-007  0.1085651E+04  0.7818608E-02  0.9219292E-01
         -1   -1    0    0    0  501 -0.00000000000E+00  0.00000000000E+00  0.29857296435E+03  0.29857296435E+03  0.00000000000E+00 0.  1.
          1   -1    0    0  501    0  0.00000000000E+00 -0.00000000000E+00 -0.98689216646E+03  0.98689216646E+03  0.00000000000E+00 0. -1.
         23    2    1    2    0    0 -0.27396643039E+02  0.80097076452E+02 -0.23894981950E+03  0.26896977741E+03  0.89897759777E+02 0.  0.
        254    2    1    2    0    0  0.27396643039E+02 -0.80097076452E+02 -0.44936938260E+03  0.10164953534E+04  0.90783470068E+03 0.  0.
        -24    2    4    4    0    0 -0.29896214453E+03 -0.24783461393E+03  0.39569885457E+02  0.39931620891E+03  0.84186098244E+02 0.  0.
         24    2    4    4    0    0  0.32635878757E+03  0.16773753748E+03 -0.48893926806E+03  0.61717914449E+03  0.84867831616E+02 0.  0.
         11    1    3    3    0    0 -0.44275024061E+02  0.77076533979E+02 -0.12298659659E+03  0.15174575047E+03  0.00000000000E+00 0.  1.
        -11    1    3    3    0    0  0.16878381022E+02  0.30205424725E+01 -0.11596322291E+03  0.11722402693E+03  0.00000000000E+00 0. -1.
          2    1    6    6  502    0  0.21892200073E+03  0.15078070549E+03 -0.37500515469E+03  0.45966349604E+03  0.00000000000E+00 0. -1.
          3    1    5    5  503    0 -0.20714499222E+03 -0.20447618717E+03  0.20716723520E+01  0.29107361740E+03  0.00000000000E+00 0. -1.
         -4    1    5    5    0  503 -0.91817152314E+02 -0.43358426758E+02  0.37498213105E+02  0.10824259151E+03  0.00000000000E+00 0.  1.
         -1    1    6    6    0  502  0.10743678683E+03  0.16956831991E+02 -0.11393411337E+03  0.15751564845E+03  0.00000000000E+00 0.  1.
<mgrwt>
<rscale>  0 0.10856506E+04</rscale>
<asrwt>0</asrwt>
<pdfrwt beam="1">  1        1 0.15182956E+00 0.10856506E+04</pdfrwt>
<pdfrwt beam="2">  1       -1 0.45934303E-01 0.10856506E+04</pdfrwt>
<totfact> 0.72784790E+01</totfact>
</mgrwt>
</event>
<event>
12    1  0.1536832E-007  0.1842825E+04  0.7818608E-02  0.8683852E-01
          2   -1    0    0  501    0  0.00000000000E+00  0.00000000000E+00  0.24261354290E+04  0.24261354290E+04  0.00000000000E+00 0. -1.
         -2   -1    0    0    0  501 -0.00000000000E+00 -0.00000000000E+00 -0.34993951533E+03  0.34993951533E+03  0.00000000000E+00 0.  1.
         23    2    1    2    0    0  0.90979984677E+02 -0.53351043162E+03  0.14208095273E+03  0.56755000215E+03  0.94948773298E+02 0.  0.
        254    2    1    2    0    0 -0.90979984677E+02  0.53351043162E+03  0.19341149610E+04  0.22085249422E+04  0.91862451516E+03 0.  0.
        -24    2    4    4    0    0 -0.16974297303E+03  0.42600455925E+03  0.19894656828E+04  0.20432290720E+04  0.80738938712E+02 0.  0.
         24    2    4    4    0    0  0.78762988354E+02  0.10750587237E+03 -0.55350721868E+02  0.16529587017E+03  0.80609561201E+02 0.  0.
         11    1    3    3    0    0  0.36909242426E+02 -0.12368504505E+03  0.73464144701E+02  0.14851687817E+03  0.00000000000E+00 0. -1.
        -11    1    3    3    0    0  0.54070742251E+02 -0.40982538657E+03  0.68616808032E+02  0.41903312398E+03  0.00000000000E+00 0.  1.
          4    1    6    6  502    0  0.88701046504E+02  0.72321995639E+02 -0.23562489163E+02  0.11684835300E+03  0.00000000000E+00 0. -1.
          1    1    5    5  503    0 -0.16929276517E+03  0.41363412121E+03  0.18502780353E+04  0.19034920632E+04  0.00000000000E+00 0. -1.
         -4    1    5    5    0  503 -0.45020785760E+00  0.12370438041E+02  0.13918764754E+03  0.13973700889E+03  0.00000000000E+00 0.  1.
         -3    1    6    6    0  502 -0.99380581494E+01  0.35183876727E+02 -0.31788232705E+02  0.48447517169E+02  0.00000000000E+00 0.  1.
<mgrwt>
<rscale>  0 0.18428246E+04</rscale>
<asrwt>0</asrwt>
<pdfrwt beam="1">  1        2 0.37325159E+00 0.18428246E+04</pdfrwt>
<pdfrwt beam="2">  1       -2 0.53836850E-01 0.18428246E+04</pdfrwt>
<totfact> 0.11752484E+01</totfact>
</mgrwt>
</event>
<event>
12    1  0.1536832E-007  0.1214051E+04  0.7818608E-02  0.9100646E-01
          1   -1    0    0  501    0  0.00000000000E+00  0.00000000000E+00  0.59755537516E+03  0.59755537516E+03  0.00000000000E+00 0. -1.
         -1   -1    0    0    0  501 -0.00000000000E+00 -0.00000000000E+00 -0.61664584943E+03  0.61664584943E+03  0.00000000000E+00 0.  1.
         23    2    1    2    0    0  0.16469467365E+03  0.10653028624E+03 -0.16325241079E+03  0.27914966345E+03  0.11313773712E+03 0.  0.
        254    2    1    2    0    0 -0.16469467365E+03 -0.10653028624E+03  0.14416193652E+03  0.93505156115E+03  0.90280990283E+03 0.  0.
        -24    2    4    4    0    0  0.27475863816E+03 -0.31104826060E+03  0.13406710463E+03  0.44331811834E+03  0.79458390595E+02 0.  0.
         24    2    4    4    0    0 -0.43945331181E+03  0.20451797436E+03  0.10094831884E+02  0.49173344280E+03  0.82176992143E+02 0.  0.
         11    1    3    3    0    0  0.76210578290E+02 -0.10068075066E+02 -0.34701656937E+02  0.84342298837E+02  0.00000000000E+00 0. -1.
        -11    1    3    3    0    0  0.88484095360E+02  0.11659836131E+03 -0.12855075385E+03  0.19480736461E+03  0.00000000000E+00 0.  1.
          4    1    6    6  502    0 -0.42443940561E+03  0.21222687595E+03  0.12378463225E+02  0.47470230910E+03  0.00000000000E+00 0. -1.
          1    1    5    5  503    0  0.16057379140E+03 -0.12408333305E+03  0.53132529254E+02  0.20977054533E+03  0.00000000000E+00 0. -1.
         -2    1    5    5    0  503  0.11418484676E+03 -0.18696492756E+03  0.80934575380E+02  0.23354757301E+03  0.00000000000E+00 0.  1.
         -3    1    6    6    0  502 -0.15013906205E+02 -0.77089015873E+01 -0.22836313414E+01  0.17031133706E+02  0.00000000000E+00 0.  1.
<mgrwt>
<rscale>  0 0.12140511E+04</rscale>
<asrwt>0</asrwt>
<pdfrwt beam="1">  1        1 0.91931597E-01 0.12140511E+04</pdfrwt>
<pdfrwt beam="2">  1       -1 0.94868592E-01 0.12140511E+04</pdfrwt>
<totfact> 0.36607718E+01</totfact>
</mgrwt>
</event>
<event>
12    1  0.1536832E-007  0.1373574E+04  0.7818608E-02  0.8973172E-01
         -3   -1    0    0    0  501 -0.00000000000E+00  0.00000000000E+00  0.59854506975E+03  0.59854506975E+03  0.00000000000E+00 0.  1.
          3   -1    0    0  501    0  0.00000000000E+00 -0.00000000000E+00 -0.78803841021E+03  0.78803841021E+03  0.00000000000E+00 0. -1.
         23    2    1    2    0    0 -0.29114232857E+03 -0.11772938031E+03 -0.27110125797E+03  0.42421646409E+03  0.88541819827E+02 0.  0.
        254    2    1    2    0    0  0.29114232857E+03  0.11772938031E+03  0.81607917504E+02  0.96236701588E+03  0.90601675403E+03 0.  0.
        -24    2    4    4    0    0 -0.10892346104E+03  0.32667344710E+03  0.29074661163E+03  0.45819687119E+03  0.82649374984E+02 0.  0.
         24    2    4    4    0    0  0.40006578961E+03 -0.20894406679E+03 -0.20913869413E+03  0.50417014469E+03  0.82087041310E+02 0.  0.
         11    1    3    3    0    0 -0.18987322709E+03 -0.10533948496E+03 -0.14107207278E+03  0.25893933494E+03  0.00000000000E+00 0.  1.
        -11    1    3    3    0    0 -0.10126910147E+03 -0.12389895351E+02 -0.13002918519E+03  0.16527712915E+03  0.00000000000E+00 0. -1.
          2    1    6    6  502    0  0.14528499188E+03 -0.12095053313E+03 -0.92717473316E+02  0.21055472017E+03  0.00000000000E+00 0. -1.
          1    1    5    5  503    0 -0.61725991193E+01  0.56316229875E+02  0.15039781955E+02  0.58615815003E+02  0.00000000000E+00 0. -1.
         -4    1    5    5    0  503 -0.10275086192E+03  0.27035721723E+03  0.27570682967E+03  0.39958105619E+03  0.00000000000E+00 0.  1.
         -1    1    6    6    0  502  0.25478079773E+03 -0.87993533668E+02 -0.11642122081E+03  0.29361542451E+03  0.00000000000E+00 0.  1.
<mgrwt>
<rscale>  0 0.13735742E+04</rscale>
<asrwt>0</asrwt>
<pdfrwt beam="1">  1        3 0.12123668E+00 0.13735742E+04</pdfrwt>
<pdfrwt beam="2">  1       -3 0.92083857E-01 0.13735742E+04</pdfrwt>
<totfact> 0.14933657E+00</totfact>
</mgrwt>
</event>
<event>
12    1  0.1536832E-007  0.1451482E+04  0.7818608E-02  0.8917374E-01
          2   -1    0    0  501    0  0.00000000000E+00  0.00000000000E+00  0.97314722145E+03  0.97314722145E+03  0.00000000000E+00 0. -1.
         -2   -1    0    0    0  501 -0.00000000000E+00 -0.00000000000E+00 -0.54123334513E+03  0.54123334513E+03  0.00000000000E+00 0.  1.
         23    2    1    2    0    0  0.89358299772E+02 -0.87240205076E+02  0.57931140334E+03  0.59947984722E+03  0.90435756536E+02 0.  0.
        254    2    1    2    0    0 -0.89358299772E+02  0.87240205076E+02 -0.14739752702E+03  0.91490071936E+03  0.89427151145E+03 0.  0.
        -24    2    4    4    0    0 -0.15726046183E+02  0.37136925248E+03  0.21913532004E+03  0.43838206849E+03  0.77434612900E+02 0.  0.
         24    2    4    4    0    0 -0.73632253588E+02 -0.28412904740E+03 -0.36653284706E+03  0.47651865087E+03  0.81072019267E+02 0.  0.
         13    1    3    3    0    0 -0.83441991862E+01 -0.61237194320E+01  0.53742423347E+01  0.11662250229E+02  0.00000000000E+00 0.  1.
        -13    1    3    3    0    0  0.97702498958E+02 -0.81116485644E+02  0.57393716100E+03  0.58781759699E+03  0.00000000000E+00 0. -1.
          4    1    6    6  502    0  0.16302086166E+02 -0.36498441036E+02 -0.35646667588E+02  0.53559118005E+02  0.00000000000E+00 0. -1.
          3    1    5    5  503    0 -0.26833623106E+02  0.55243730513E+02  0.19960183802E+02  0.64578030532E+02  0.00000000000E+00 0. -1.
         -4    1    5    5    0  503  0.11107576922E+02  0.31612552196E+03  0.19917513623E+03  0.37380403796E+03  0.00000000000E+00 0.  1.
         -3    1    6    6    0  502 -0.89934339754E+02 -0.24763060637E+03 -0.33088617947E+03  0.42295953287E+03  0.00000000000E+00 0.  1.
<mgrwt>
<rscale>  0 0.14514816E+04</rscale>
<asrwt>0</asrwt>
<pdfrwt beam="1">  1        2 0.14971496E+00 0.14514816E+04</pdfrwt>
<pdfrwt beam="2">  1       -2 0.83266669E-01 0.14514816E+04</pdfrwt>
<totfact> 0.32109871E+01</totfact>
</mgrwt>
</event>
<event>
12    1  0.1536832E-007  0.1259154E+04  0.7818608E-02  0.9062599E-01
          2   -1    0    0  501    0  0.00000000000E+00  0.00000000000E+00  0.98611020216E+03  0.98611020216E+03  0.00000000000E+00 0. -1.
         -2   -1    0    0    0  501 -0.00000000000E+00 -0.00000000000E+00 -0.40195025720E+03  0.40195025720E+03  0.00000000000E+00 0.  1.
         23    2    1    2    0    0 -0.17066680181E+03  0.17806829469E+03 -0.35326865149E+02  0.26496188275E+03  0.90118461456E+02 0.  0.
        254    2    1    2    0    0  0.17066680181E+03 -0.17806829469E+03  0.61948681011E+03  0.11230985766E+04  0.90374278977E+03 0.  0.
        -24    2    4    4    0    0  0.11513845491E+03 -0.31479420735E+03  0.80326437983E+03  0.87431517945E+03  0.82711016986E+02 0.  0.
         24    2    4    4    0    0  0.55528346905E+02  0.13672591266E+03 -0.18377756972E+03  0.24878339716E+03  0.79634233015E+02 0.  0.
         13    1    3    3    0    0 -0.51214532800E+02  0.78735966265E+02  0.26749985742E+02  0.97661878390E+02  0.00000000000E+00 0. -1.
        -13    1    3    3    0    0 -0.11945226901E+03  0.99332328425E+02 -0.62076850891E+02  0.16730000436E+03  0.00000000000E+00 0.  1.
          4    1    6    6  502    0 -0.43944802534E-01  0.98797141951E+02 -0.92113846081E+02  0.13507715510E+03  0.00000000000E+00 0. -1.
          3    1    5    5  503    0  0.20409473305E+02 -0.14144234056E+03  0.41060938716E+03  0.43476723788E+03  0.00000000000E+00 0. -1.
         -4    1    5    5    0  503  0.94728981601E+02 -0.17335186678E+03  0.39265499267E+03  0.43954794157E+03  0.00000000000E+00 0.  1.
         -3    1    6    6    0  502  0.55572291707E+02  0.37928770707E+02 -0.91663723639E+02  0.11370624206E+03  0.00000000000E+00 0.  1.
<mgrwt>
<rscale>  0 0.12591541E+04</rscale>
<asrwt>0</asrwt>
<pdfrwt beam="1">  1        2 0.15170926E+00 0.12591541E+04</pdfrwt>
<pdfrwt beam="2">  1       -2 0.61838501E-01 0.12591541E+04</pdfrwt>
<totfact> 0.61404848E+01</totfact>
</mgrwt>
</event>
<event>
12    1  0.1536832E-007  0.1536636E+04  0.7818608E-02  0.8860449E-01
         -2   -1    0    0    0  501 -0.00000000000E+00  0.00000000000E+00  0.26383274097E+03  0.26383274097E+03  0.00000000000E+00 0.  1.
          2   -1    0    0  501    0  0.00000000000E+00 -0.00000000000E+00 -0.22374499721E+04  0.22374499721E+04  0.00000000000E+00 0. -1.
         23    2    1    2    0    0 -0.49937819825E+02 -0.30092558206E+02 -0.15202741533E+04  0.15241318679E+04  0.91351527446E+02 0.  0.
        254    2    1    2    0    0  0.49937819825E+02  0.30092558206E+02 -0.45334307781E+03  0.97715084517E+03  0.86365761741E+03 0.  0.
        -24    2    4    4    0    0  0.40407817521E+03  0.20318093235E+03 -0.19504139088E+03  0.49909139224E+03  0.80556878654E+02 0.  0.
         24    2    4    4    0    0 -0.35414035539E+03 -0.17308837415E+03 -0.25830168693E+03  0.47805945293E+03  0.80287623494E+02 0.  0.
         11    1    3    3    0    0  0.20587481429E+02 -0.31059640162E+02 -0.45330493040E+03  0.45483393185E+03  0.00000000000E+00 0.  1.
        -11    1    3    3    0    0 -0.70525301254E+02  0.96708195651E+00 -0.10669692229E+04  0.10692979361E+04  0.00000000000E+00 0. -1.
          2    1    6    6  502    0 -0.35661536666E+03 -0.17654479379E+03 -0.25443778711E+03  0.47231469537E+03  0.00000000000E+00 0. -1.
          3    1    5    5  503    0  0.34818297615E+03  0.20382066207E+03 -0.17372626995E+03  0.43926650684E+03  0.00000000000E+00 0. -1.
         -4    1    5    5    0  503  0.55895199063E+02 -0.63972971375E+00 -0.21315120936E+02  0.59824885398E+02  0.00000000000E+00 0.  1.
         -1    1    6    6    0  502  0.24750112774E+01  0.34564196435E+01 -0.38638998175E+01  0.57447575558E+01  0.00000000000E+00 0.  1.
<mgrwt>
<rscale>  0 0.15366360E+04</rscale>
<asrwt>0</asrwt>
<pdfrwt beam="1">  1        2 0.34422309E+00 0.15366360E+04</pdfrwt>
<pdfrwt beam="2">  1       -2 0.40589651E-01 0.15366360E+04</pdfrwt>
<totfact> 0.27266678E+01</totfact>
</mgrwt>
</event>
<event>
12    1  0.1536832E-007  0.1487015E+04  0.7818608E-02  0.8893134E-01
         -2   -1    0    0    0  501 -0.00000000000E+00  0.00000000000E+00  0.20134078970E+03  0.20134078970E+03  0.00000000000E+00 0. -1.
          2   -1    0    0  501    0  0.00000000000E+00 -0.00000000000E+00 -0.27456090162E+04  0.27456090162E+04  0.00000000000E+00 0.  1.
         23    2    1    2    0    0 -0.11085340330E+03 -0.35844837163E+03 -0.25614311273E+03  0.46260348155E+03  0.87286738941E+02 0.  0.
        254    2    1    2    0    0  0.11085340330E+03  0.35844837163E+03 -0.22881251138E+04  0.24843463244E+04  0.89201256206E+03 0.  0.
        -24    2    4    4    0    0  0.37723533481E+03  0.51685628603E+03 -0.16133784414E+04  0.17375806573E+04  0.82156113439E+02 0.  0.
         24    2    4    4    0    0 -0.26638193151E+03 -0.15840791440E+03 -0.67474667239E+03  0.74676566713E+03  0.79520367989E+02 0.  0.
         11    1    3    3    0    0 -0.79948702189E+02 -0.31771674646E+03 -0.18906432064E+03  0.37826054949E+03  0.00000000000E+00 0. -1.
        -11    1    3    3    0    0 -0.30904701108E+02 -0.40731625174E+02 -0.67078792095E+02  0.84342932062E+02  0.00000000000E+00 0.  1.
          2    1    6    6  502    0 -0.12992720510E+03 -0.37168372375E+02 -0.33184250301E+03  0.35830435852E+03  0.00000000000E+00 0. -1.
          1    1    5    5  503    0  0.10392794006E+03  0.88814166335E+02 -0.37287477772E+03  0.39714553092E+03  0.00000000000E+00 0. -1.
         -2    1    5    5    0  503  0.27330739474E+03  0.42804211970E+03 -0.12405036637E+04  0.13404351263E+04  0.00000000000E+00 0.  1.
         -1    1    6    6    0  502 -0.13645472640E+03 -0.12123954203E+03 -0.34290416938E+03  0.38846130861E+03  0.00000000000E+00 0.  1.
<mgrwt>
<rscale>  0 0.14870146E+04</rscale>
<asrwt>0</asrwt>
<pdfrwt beam="1">  1        2 0.42240140E+00 0.14870146E+04</pdfrwt>
<pdfrwt beam="2">  1       -2 0.30975505E-01 0.14870146E+04</pdfrwt>
<totfact> 0.23408003E+01</totfact>
</mgrwt>
</event>
<event>
12    1  0.1536832E-007  0.2429431E+04  0.7818608E-02  0.8428567E-01
         -4   -1    0    0    0  501 -0.00000000000E+00  0.00000000000E+00  0.25253858394E+04  0.25253858394E+04  0.00000000000E+00 0.  1.
          4   -1    0    0  501    0  0.00000000000E+00 -0.00000000000E+00 -0.58428029162E+03  0.58428029162E+03  0.00000000000E+00 0. -1.
         23    2    1    2    0    0  0.58702673436E+03 -0.71011799242E+03  0.14739782443E+04  0.17408504130E+04  0.95290848083E+02 0.  0.
        254    2    1    2    0    0 -0.58702673436E+03  0.71011799242E+03  0.46712730352E+03  0.13688157181E+04  0.89809832553E+03 0.  0.
        -24    2    4    4    0    0 -0.47370434552E+03  0.81402270266E+03  0.84214480663E+02  0.94895878611E+03  0.80012071427E+02 0.  0.
         24    2    4    4    0    0 -0.11332238884E+03 -0.10390471024E+03  0.38291282286E+03  0.41985693196E+03  0.77585184031E+02 0.  0.
         13    1    3    3    0    0  0.18230691483E+00 -0.73055869544E+01  0.24191889459E+01  0.76978770914E+01  0.00000000000E+00 0. -1.
        -13    1    3    3    0    0  0.58684442744E+03 -0.70281240547E+03  0.14715590553E+04  0.17331525359E+04  0.00000000000E+00 0.  1.
          2    1    6    6  502    0 -0.11576585828E+02 -0.28336575652E+02  0.16460226989E+03  0.16742426978E+03  0.00000000000E+00 0. -1.
          1    1    5    5  503    0 -0.25065539650E+03  0.36270092657E+03  0.18683871533E+02  0.44128129009E+03  0.00000000000E+00 0. -1.
         -2    1    5    5    0  503 -0.22304894902E+03  0.45132177609E+03  0.65530609130E+02  0.50767749602E+03  0.00000000000E+00 0.  1.
         -1    1    6    6    0  502 -0.10174580301E+03 -0.75568134590E+02  0.21831055296E+03  0.25243266217E+03  0.00000000000E+00 0.  1.
<mgrwt>
<rscale>  0 0.24294305E+04</rscale>
<asrwt>0</asrwt>
<pdfrwt beam="1">  1        4 0.89889277E-01 0.24294305E+04</pdfrwt>
<pdfrwt beam="2">  1       -4 0.38852089E+00 0.24294305E+04</pdfrwt>
<totfact> 0.15572311E-02</totfact>
</mgrwt>
</event>
<event>
12    1  0.1536832E-007  0.1289858E+04  0.7818608E-02  0.9037647E-01
          1   -1    0    0  501    0  0.00000000000E+00  0.00000000000E+00  0.97274548339E+03  0.97274548339E+03  0.00000000000E+00 0. -1.
         -1   -1    0    0    0  501 -0.00000000000E+00 -0.00000000000E+00 -0.42758715584E+03  0.42758715584E+03  0.00000000000E+00 0.  1.
         23    2    1    2    0    0  0.11646071933E+03  0.12138173041E+03  0.43509059902E+03  0.47645060146E+03  0.96977949327E+02 0.  0.
        254    2    1    2    0    0 -0.11646071933E+03 -0.12138173041E+03  0.11006772853E+03  0.92388203777E+03  0.90174635637E+03 0.  0.
        -24    2    4    4    0    0 -0.16633332298E+03  0.35578835551E+03 -0.67479577377E+02  0.40665361856E+03  0.81003357185E+02 0.  0.
         24    2    4    4    0    0  0.49872603655E+02 -0.47717008592E+03  0.17754730590E+03  0.51722841921E+03  0.76312674654E+02 0.  0.
         13    1    3    3    0    0  0.66274138257E+02  0.12155543945E+03  0.26332141796E+03  0.29749984104E+03  0.00000000000E+00 0. -1.
        -13    1    3    3    0    0  0.50186581070E+02 -0.17370904279E+00  0.17176918106E+03  0.17895076042E+03  0.00000000000E+00 0.  1.
          4    1    6    6  502    0 -0.16303366701E+02 -0.34083838392E+02  0.12640717886E+02  0.39840877927E+02  0.00000000000E+00 0. -1.
          1    1    5    5  503    0 -0.40479478363E+02  0.15643052985E+03 -0.57423275792E+00  0.16158412230E+03  0.00000000000E+00 0. -1.
         -2    1    5    5    0  503 -0.12585384462E+03  0.19935782567E+03 -0.66905344619E+02  0.24506949626E+03  0.00000000000E+00 0.  1.
         -3    1    6    6    0  502  0.66175970356E+02 -0.44308624753E+03  0.16490658802E+03  0.47738754128E+03  0.00000000000E+00 0.  1.
<mgrwt>
<rscale>  0 0.12898581E+04</rscale>
<asrwt>0</asrwt>
<pdfrwt beam="1">  1        1 0.14965315E+00 0.12898581E+04</pdfrwt>
<pdfrwt beam="2">  1       -1 0.65782640E-01 0.12898581E+04</pdfrwt>
<totfact> 0.36618363E+01</totfact>
</mgrwt>
</event>
<event>
12    1  0.1536832E-007  0.4443835E+04  0.7818608E-02  0.7920544E-01
          2   -1    0    0  501    0  0.00000000000E+00  0.00000000000E+00  0.41326756791E+04  0.41326756791E+04  0.00000000000E+00 0. -1.
         -2   -1    0    0    0  501 -0.00000000000E+00 -0.00000000000E+00 -0.11946053762E+04  0.11946053762E+04  0.00000000000E+00 0.  1.
         23    2    1    2    0    0  0.16356010793E+04 -0.13536902402E+04  0.11968134302E+04  0.24389327961E+04  0.91447471638E+02 0.  0.
        254    2    1    2    0    0 -0.16356010793E+04  0.13536902402E+04  0.17412568727E+04  0.28883482592E+04  0.89605357678E+03 0.  0.
        -24    2    4    4    0    0 -0.14815717036E+04  0.73021521498E+03  0.13220532485E+04  0.21171690506E+04  0.79441953634E+02 0.  0.
         24    2    4    4    0    0 -0.15402937568E+03  0.62347502523E+03  0.41920362424E+03  0.77117920854E+03  0.80867406608E+02 0.  0.
         13    1    3    3    0    0  0.81513365258E+03 -0.67361222322E+03  0.64855899461E+03  0.12404938808E+04  0.00000000000E+00 0. -1.
        -13    1    3    3    0    0  0.82046742672E+03 -0.68007801699E+03  0.54825443560E+03  0.11984389153E+04  0.00000000000E+00 0.  1.
          2    1    6    6  502    0 -0.10092621451E+03  0.53198777122E+03  0.34783779196E+03  0.64357456368E+03  0.00000000000E+00 0. -1.
          1    1    5    5  503    0 -0.92124820567E+03  0.47551018257E+03  0.87181863656E+03  0.13545759208E+04  0.00000000000E+00 0. -1.
         -2    1    5    5    0  503 -0.56032349796E+03  0.25470503241E+03  0.45023461191E+03  0.76259312983E+03  0.00000000000E+00 0.  1.
         -1    1    6    6    0  502 -0.53103161167E+02  0.91487254006E+02  0.71365832285E+02  0.12760464486E+03  0.00000000000E+00 0.  1.
<mgrwt>
<rscale>  0 0.44438346E+04</rscale>
<asrwt>0</asrwt>
<pdfrwt beam="1">  1        2 0.63579625E+00 0.44438346E+04</pdfrwt>
<pdfrwt beam="2">  1       -2 0.18378544E+00 0.44438346E+04</pdfrwt>
<totfact> 0.34351845E-02</totfact>
</mgrwt>
</event>
<event>
12    1  0.1536832E-007  0.1873834E+04  0.7818608E-02  0.8667992E-01
          2   -1    0    0  501    0  0.00000000000E+00  0.00000000000E+00  0.36229633398E+03  0.36229633398E+03  0.00000000000E+00 0. -1.
         -2   -1    0    0    0  501 -0.00000000000E+00 -0.00000000000E+00 -0.24229156158E+04  0.24229156158E+04  0.00000000000E+00 0.  1.
         23    2    1    2    0    0  0.65016625769E+03  0.14176839871E+03 -0.40186520883E+03  0.78281706132E+03  0.92154565375E+02 0.  0.
        254    2    1    2    0    0 -0.65016625769E+03 -0.14176839871E+03 -0.16587540730E+04  0.20023948884E+04  0.90294284047E+03 0.  0.
        -24    2    4    4    0    0 -0.38243649377E+02 -0.36900301635E+03 -0.26948647890E+03  0.46533002623E+03  0.79267068910E+02 0.  0.
         24    2    4    4    0    0 -0.61192260831E+03  0.22723461764E+03 -0.13892675941E+04  0.15370648622E+04  0.80119240486E+02 0.  0.
         13    1    3    3    0    0  0.51061027545E+03  0.84521699320E+02 -0.34298750853E+03  0.62089226284E+03  0.00000000000E+00 0. -1.
        -13    1    3    3    0    0  0.13955598224E+03  0.57246699386E+02 -0.58877700293E+02  0.16192479847E+03  0.00000000000E+00 0.  1.
          2    1    6    6  502    0 -0.46399727585E+03  0.15637914884E+03 -0.96303711969E+03  0.10803649402E+04  0.00000000000E+00 0. -1.
          3    1    5    5  503    0  0.23604351904E+02 -0.10616894511E+03 -0.89190815767E+02  0.14065565027E+03  0.00000000000E+00 0. -1.
         -4    1    5    5    0  503 -0.61848001281E+02 -0.26283407123E+03 -0.18029566314E+03  0.32467437597E+03  0.00000000000E+00 0.  1.
         -3    1    6    6    0  502 -0.14792533246E+03  0.70855468805E+02 -0.42623047438E+03  0.45669992198E+03  0.00000000000E+00 0.  1.
<mgrwt>
<rscale>  0 0.18738340E+04</rscale>
<asrwt>0</asrwt>
<pdfrwt beam="1">  1        2 0.55737898E-01 0.18738340E+04</pdfrwt>
<pdfrwt beam="2">  1       -2 0.37275624E+00 0.18738340E+04</pdfrwt>
<totfact> 0.93347790E-01</totfact>
</mgrwt>
</event>
<event>
12    1  0.1536832E-007  0.1367896E+04  0.7818608E-02  0.8977390E-01
          2   -1    0    0  501    0  0.00000000000E+00  0.00000000000E+00  0.19109896174E+04  0.19109896174E+04  0.00000000000E+00 0. -1.
         -2   -1    0    0    0  501 -0.00000000000E+00 -0.00000000000E+00 -0.24478688502E+03  0.24478688502E+03  0.00000000000E+00 0.  1.
         23    2    1    2    0    0 -0.36432418909E+03 -0.11785631789E+03  0.55691195067E+03  0.68216399099E+03  0.92598938362E+02 0.  0.
        254    2    1    2    0    0  0.36432418909E+03  0.11785631789E+03  0.11092907817E+04  0.14736125114E+04  0.89128310260E+03 0.  0.
        -24    2    4    4    0    0 -0.16316729841E+03  0.29396877478E+03  0.69042501280E+03  0.77264517918E+03  0.85162590327E+02 0.  0.
         24    2    4    4    0    0  0.52749148751E+03 -0.17611245689E+03  0.41886576889E+03  0.70096733222E+03  0.81509518639E+02 0.  0.
         11    1    3    3    0    0 -0.16093262023E+03 -0.12134194995E+02  0.27452568439E+03  0.31845077851E+03  0.00000000000E+00 0.  1.
        -11    1    3    3    0    0 -0.20339156886E+03 -0.10572212289E+03  0.28238626627E+03  0.36371321248E+03  0.00000000000E+00 0. -1.
          2    1    6    6  502    0  0.30148586147E+02 -0.21723149036E+02  0.89221910467E+01  0.38215676676E+02  0.00000000000E+00 0. -1.
          3    1    5    5  503    0 -0.25502992303E+02  0.16685560039E+02  0.27717724322E+02  0.41195664479E+02  0.00000000000E+00 0. -1.
         -4    1    5    5    0  503 -0.13766430611E+03  0.27728321474E+03  0.66270728848E+03  0.73144951470E+03  0.00000000000E+00 0.  1.
         -1    1    6    6    0  502  0.49734290136E+03 -0.15438930785E+03  0.40994357785E+03  0.66275165555E+03  0.00000000000E+00 0.  1.
<mgrwt>
<rscale>  0 0.13678965E+04</rscale>
<asrwt>0</asrwt>
<pdfrwt beam="1">  1        2 0.29399839E+00 0.13678965E+04</pdfrwt>
<pdfrwt beam="2">  1       -2 0.37659522E-01 0.13678965E+04</pdfrwt>
<totfact> 0.48607481E+01</totfact>
</mgrwt>
</event>
<event>
12    1  0.1536832E-007  0.1581146E+04  0.7818608E-02  0.8832215E-01
          2   -1    0    0  501    0  0.00000000000E+00  0.00000000000E+00  0.60366758998E+03  0.60366758998E+03  0.00000000000E+00 0. -1.
         -2   -1    0    0    0  501 -0.00000000000E+00 -0.00000000000E+00 -0.10353477090E+04  0.10353477090E+04  0.00000000000E+00 0.  1.
         23    2    1    2    0    0 -0.36930963420E+03  0.21785622136E+03  0.12872846069E+03  0.45741952875E+03  0.93865167093E+02 0.  0.
        254    2    1    2    0    0  0.36930963420E+03 -0.21785622136E+03 -0.56040857971E+03  0.11815957702E+04  0.94776571416E+03 0.  0.
        -24    2    4    4    0    0  0.41918838008E+03 -0.40992361011E+03 -0.70757041503E+03  0.92236564789E+03  0.79663241587E+02 0.  0.
         24    2    4    4    0    0 -0.49878745877E+02  0.19206738876E+03  0.14716183532E+03  0.25923012235E+03  0.78523114070E+02 0.  0.
         13    1    3    3    0    0 -0.15550331291E+03  0.10905903316E+03  0.10322347720E+03  0.21617178189E+03  0.00000000000E+00 0. -1.
        -13    1    3    3    0    0 -0.21380632129E+03  0.10879718820E+03  0.25504983492E+02  0.24124774687E+03  0.00000000000E+00 0.  1.
          2    1    6    6  502    0 -0.35927141965E+02  0.17433417022E+03  0.15429760684E+03  0.23556509485E+03  0.00000000000E+00 0. -1.
          3    1    5    5  503    0  0.30993091849E+03 -0.33379652229E+03 -0.58464253679E+03  0.74113709147E+03  0.00000000000E+00 0. -1.
         -4    1    5    5    0  503  0.10925746159E+03 -0.76127087824E+02 -0.12292787824E+03  0.18122855642E+03  0.00000000000E+00 0.  1.
         -1    1    6    6    0  502 -0.13951603912E+02  0.17733218532E+02 -0.71357715150E+01  0.23665027495E+02  0.00000000000E+00 0.  1.
<mgrwt>
<rscale>  0 0.15811462E+04</rscale>
<asrwt>0</asrwt>
<pdfrwt beam="1">  1        2 0.92871938E-01 0.15811462E+04</pdfrwt>
<pdfrwt beam="2">  1       -2 0.15928426E+00 0.15811462E+04</pdfrwt>
<totfact> 0.12045140E+01</totfact>
</mgrwt>
</event>
<event>
12    1  0.1536832E-007  0.2037984E+04  0.7818608E-02  0.8589065E-01
          1   -1    0    0  501    0  0.00000000000E+00  0.00000000000E+00  0.16598278786E+04  0.16598278786E+04  0.00000000000E+00 0. -1.
         -1   -1    0    0    0  501 -0.00000000000E+00 -0.00000000000E+00 -0.62557396673E+03  0.62557396673E+03  0.00000000000E+00 0.  1.
         23    2    1    2    0    0  0.48501999850E+03 -0.63187813123E+03  0.50346553726E+03  0.94643458815E+03  0.88014264569E+02 0.  0.
        254    2    1    2    0    0 -0.48501999850E+03  0.63187813123E+03  0.53078837464E+03  0.13389672572E+04  0.93625992414E+03 0.  0.
        -24    2    4    4    0    0 -0.59499337856E+03  0.80260158695E+03  0.49008162424E+03  0.11155196661E+04  0.77573829587E+02 0.  0.
         24    2    4    4    0    0  0.10997338006E+03 -0.17072345572E+03  0.40706750396E+02  0.22344759115E+03  0.83851915954E+02 0.  0.
         11    1    3    3    0    0  0.40095118982E+03 -0.47733819195E+03  0.36354043866E+03  0.72164759866E+03  0.00000000000E+00 0. -1.
        -11    1    3    3    0    0  0.84068808680E+02 -0.15453993927E+03  0.13992509860E+03  0.22478698949E+03  0.00000000000E+00 0.  1.
          2    1    6    6  502    0 -0.57846982591E+01  0.56976656454E+01 -0.15078992895E+01  0.82583223492E+01  0.00000000000E+00 0. -1.
          1    1    5    5  503    0 -0.32774883698E+03  0.38084665149E+03  0.23115679676E+03  0.55307950313E+03  0.00000000000E+00 0. -1.
         -2    1    5    5    0  503 -0.26724454158E+03  0.42175493546E+03  0.25892482749E+03  0.56244016293E+03  0.00000000000E+00 0.  1.
         -1    1    6    6    0  502  0.11575807832E+03 -0.17642112136E+03  0.42214649685E+02  0.21518926880E+03  0.00000000000E+00 0.  1.
<mgrwt>
<rscale>  0 0.20379844E+04</rscale>
<asrwt>0</asrwt>
<pdfrwt beam="1">  1        1 0.25535813E+00 0.20379844E+04</pdfrwt>
<pdfrwt beam="2">  1       -1 0.96242149E-01 0.20379844E+04</pdfrwt>
<totfact> 0.48810516E+00</totfact>
</mgrwt>
</event>
<event>
12    1  0.1536832E-007  0.1624139E+04  0.7818608E-02  0.8805854E-01
         -1   -1    0    0    0  501 -0.00000000000E+00  0.00000000000E+00  0.35014579801E+03  0.35014579801E+03  0.00000000000E+00 0.  1.
          1   -1    0    0  501    0  0.00000000000E+00 -0.00000000000E+00 -0.18833774875E+04  0.18833774875E+04  0.00000000000E+00 0. -1.
         23    2    1    2    0    0 -0.28196245177E+03 -0.22648780129E+03  0.47657292529E+02  0.37525803551E+03  0.88021743610E+02 0.  0.
        254    2    1    2    0    0  0.28196245177E+03  0.22648780129E+03 -0.15808889820E+04  0.18582652500E+04  0.90727075205E+03 0.  0.
        -24    2    4    4    0    0 -0.24246585107E+03 -0.15093733876E+03 -0.72212321806E+03  0.78069304419E+03  0.80298929133E+02 0.  0.
         24    2    4    4    0    0  0.52442830284E+03  0.37742514005E+03 -0.85876576399E+03  0.10775722058E+04  0.78793655859E+02 0.  0.
         11    1    3    3    0    0 -0.47757374971E+02 -0.38419919404E+02 -0.25050032466E+02  0.66214508967E+02  0.00000000000E+00 0. -1.
        -11    1    3    3    0    0 -0.23420507680E+03 -0.18806788188E+03  0.72707324994E+02  0.30904352655E+03  0.00000000000E+00 0.  1.
          4    1    6    6  502    0  0.22145341382E+03  0.20709618772E+03 -0.41118733951E+03  0.51088694800E+03  0.00000000000E+00 0. -1.
          1    1    5    5  503    0 -0.12818827904E+03 -0.12143631811E+03 -0.47706696109E+03  0.50869627442E+03  0.00000000000E+00 0. -1.
         -2    1    5    5    0  503 -0.11427757204E+03 -0.29501020654E+02 -0.24505625696E+03  0.27199676977E+03  0.00000000000E+00 0.  1.
         -3    1    6    6    0  502  0.30297488902E+03  0.17032895233E+03 -0.44757842447E+03  0.56668525782E+03  0.00000000000E+00 0.  1.
<mgrwt>
<rscale>  0 0.16241388E+04</rscale>
<asrwt>0</asrwt>
<pdfrwt beam="1">  1        1 0.28975038E+00 0.16241388E+04</pdfrwt>
<pdfrwt beam="2">  1       -1 0.53868584E-01 0.16241388E+04</pdfrwt>
<totfact> 0.11913873E+01</totfact>
</mgrwt>
</event>
<event>
12    1  0.1536832E-007  0.1102768E+04  0.7818608E-02  0.9202498E-01
          1   -1    0    0  501    0  0.00000000000E+00  0.00000000000E+00  0.19090711363E+04  0.19090711363E+04  0.00000000000E+00 0. -1.
         -1   -1    0    0    0  501 -0.00000000000E+00 -0.00000000000E+00 -0.15925241932E+03  0.15925241932E+03  0.00000000000E+00 0.  1.
         23    2    1    2    0    0 -0.51441789321E+01 -0.56320785379E+02  0.59466599111E+03  0.60413720607E+03  0.90308523025E+02 0.  0.
        254    2    1    2    0    0  0.51441789321E+01  0.56320785379E+02  0.11551527258E+04  0.14641863495E+04  0.89792279885E+03 0.  0.
        -24    2    4    4    0    0 -0.23135748070E+03 -0.31439781068E+03  0.79647465954E+03  0.89103460131E+03  0.84844034529E+02 0.  0.
         24    2    4    4    0    0  0.23650165963E+03  0.37071859606E+03  0.35867806631E+03  0.57315174823E+03  0.80546004114E+02 0.  0.
         11    1    3    3    0    0  0.12542430491E+02  0.20550979844E+01  0.96707738612E+01  0.15970593521E+02  0.00000000000E+00 0.  1.
        -11    1    3    3    0    0 -0.17686609423E+02 -0.58375883364E+02  0.58499521725E+03  0.58816661255E+03  0.00000000000E+00 0. -1.
          4    1    6    6  502    0  0.22852395257E+03  0.32792609882E+03  0.34359534010E+03  0.52708299244E+03  0.00000000000E+00 0. -1.
          3    1    5    5  503    0 -0.23643750855E+03 -0.31501363231E+03  0.79032388102E+03  0.88303347666E+03  0.00000000000E+00 0. -1.
         -4    1    5    5    0  503  0.50800278479E+01  0.61582162598E+00  0.61507785214E+01  0.80011246478E+01  0.00000000000E+00 0.  1.
         -3    1    6    6    0  502  0.79777070609E+01  0.42792497244E+02  0.15082726210E+02  0.46068755792E+02  0.00000000000E+00 0.  1.
<mgrwt>
<rscale>  0 0.11027678E+04</rscale>
<asrwt>0</asrwt>
<pdfrwt beam="1">  1        1 0.29370323E+00 0.11027678E+04</pdfrwt>
<pdfrwt beam="2">  1       -1 0.24500374E-01 0.11027678E+04</pdfrwt>
<totfact> 0.49732114E+01</totfact>
</mgrwt>
</event>
<event>
12    1  0.1536832E-007  0.1484085E+04  0.7818608E-02  0.8895106E-01
          1   -1    0    0  501    0  0.00000000000E+00  0.00000000000E+00  0.30768871293E+03  0.30768871293E+03  0.00000000000E+00 0. -1.
         -1   -1    0    0    0  501 -0.00000000000E+00 -0.00000000000E+00 -0.17895588084E+04  0.17895588084E+04  0.00000000000E+00 0.  1.
         23    2    1    2    0    0 -0.32032793706E+03  0.26342436451E+03 -0.77708233085E+03  0.88546754469E+03  0.90517626449E+02 0.  0.
        254    2    1    2    0    0  0.32032793706E+03 -0.26342436451E+03 -0.70478776465E+03  0.12117799767E+04  0.89424970538E+03 0.  0.
        -24    2    4    4    0    0  0.60178642312E+03 -0.22716994143E+03 -0.63361901375E+03  0.90616823960E+03  0.76907363265E+02 0.  0.
         24    2    4    4    0    0 -0.28145848606E+03 -0.36254423085E+02 -0.71168750898E+02  0.30561173707E+03  0.88319194774E+02 0.  0.
         13    1    3    3    0    0 -0.71937032971E+02  0.10737282802E+03 -0.27768923713E+03  0.30629262696E+03  0.00000000000E+00 0. -1.
        -13    1    3    3    0    0 -0.24839090409E+03  0.15605153649E+03 -0.49939309372E+03  0.57917491774E+03  0.00000000000E+00 0.  1.
          4    1    6    6  502    0 -0.28193012882E+03 -0.42239011907E+02 -0.57688351040E+02  0.29085507991E+03  0.00000000000E+00 0. -1.
          3    1    5    5  503    0  0.50889557953E+03 -0.21879313060E+03 -0.52801665583E+03  0.76527559330E+03  0.00000000000E+00 0. -1.
         -4    1    5    5    0  503  0.92890843587E+02 -0.83768108304E+01 -0.10560235792E+03  0.14089264629E+03  0.00000000000E+00 0.  1.
         -3    1    6    6    0  502  0.47164276446E+00  0.59845888224E+01 -0.13480399858E+02  0.14756657162E+02  0.00000000000E+00 0.  1.
<mgrwt>
<rscale>  0 0.14840850E+04</rscale>
<asrwt>0</asrwt>
<pdfrwt beam="1">  1        1 0.47336726E-01 0.14840850E+04</pdfrwt>
<pdfrwt beam="2">  1       -1 0.27531674E+00 0.14840850E+04</pdfrwt>
<totfact> 0.39272834E+00</totfact>
</mgrwt>
</event>
<event>
12    1  0.1536832E-007  0.1902006E+04  0.7818608E-02  0.8653858E-01
         -1   -1    0    0    0  501 -0.00000000000E+00  0.00000000000E+00  0.11892871800E+04  0.11892871800E+04  0.00000000000E+00 0.  1.
          1   -1    0    0  501    0  0.00000000000E+00 -0.00000000000E+00 -0.76046152457E+03  0.76046152457E+03  0.00000000000E+00 0. -1.
         23    2    1    2    0    0 -0.26933336109E+03  0.40318677346E+03  0.73548454780E+03  0.88564188080E+03  0.91235888103E+02 0.  0.
        254    2    1    2    0    0  0.26933336109E+03 -0.40318677346E+03 -0.30665889235E+03  0.10641068238E+04  0.89620512302E+03 0.  0.
        -24    2    4    4    0    0  0.57049566796E+02 -0.61333895702E+03 -0.40292460094E+03  0.74033050045E+03  0.79383163114E+02 0.  0.
         24    2    4    4    0    0  0.21228379429E+03  0.21015218356E+03  0.96265708591E+02  0.32377632336E+03  0.79596930489E+02 0.  0.
         11    1    3    3    0    0 -0.27051390412E+03  0.36122980102E+03  0.67808042743E+03  0.81452919379E+03  0.00000000000E+00 0.  1.
        -11    1    3    3    0    0  0.11805430300E+01  0.41956972443E+02  0.57404120374E+02  0.71112687014E+02  0.00000000000E+00 0. -1.
          4    1    6    6  502    0  0.13430753866E+03  0.78320303615E+02  0.57626761014E+02  0.16581142447E+03  0.00000000000E+00 0. -1.
          3    1    5    5  503    0  0.66854191126E+02 -0.56549519370E+03 -0.38874418077E+03  0.68947540569E+03  0.00000000000E+00 0. -1.
         -4    1    5    5    0  503 -0.98046243299E+01 -0.47843763317E+02 -0.14180420165E+02  0.50855094756E+02  0.00000000000E+00 0.  1.
         -3    1    6    6    0  502  0.77976255635E+02  0.13183187994E+03  0.38638947577E+02  0.15796489889E+03  0.00000000000E+00 0.  1.
<mgrwt>
<rscale>  0 0.19020065E+04</rscale>
<asrwt>0</asrwt>
<pdfrwt beam="1">  1        1 0.11699408E+00 0.19020065E+04</pdfrwt>
<pdfrwt beam="2">  1       -1 0.18296726E+00 0.19020065E+04</pdfrwt>
<totfact> 0.44424537E+00</totfact>
</mgrwt>
</event>
<event>
12    1  0.1536832E-007  0.1590584E+04  0.7818608E-02  0.8826354E-01
         -2   -1    0    0    0  501 -0.00000000000E+00  0.00000000000E+00  0.15690795306E+03  0.15690795306E+03  0.00000000000E+00 0.  1.
          2   -1    0    0  501    0  0.00000000000E+00 -0.00000000000E+00 -0.40309567895E+04  0.40309567895E+04  0.00000000000E+00 0. -1.
         23    2    1    2    0    0 -0.18303664282E+03  0.45901269535E+03 -0.19120323841E+04  0.19769901852E+04  0.91800256954E+02 0.  0.
        254    2    1    2    0    0  0.18303664282E+03 -0.45901269535E+03 -0.19620164523E+04  0.22108745574E+04  0.89121416186E+03 0.  0.
        -24    2    4    4    0    0 -0.19192880586E+03 -0.65133131595E+02 -0.52584738003E+02  0.22402335452E+03  0.79638667419E+02 0.  0.
         24    2    4    4    0    0  0.37496544868E+03 -0.39387956375E+03 -0.19094317143E+04  0.19868512029E+04  0.76863725813E+02 0.  0.
         13    1    3    3    0    0 -0.18719375563E+03  0.42623386291E+03 -0.18357927147E+04  0.18938985452E+04  0.00000000000E+00 0. -1.
        -13    1    3    3    0    0  0.41571128102E+01  0.32778832433E+02 -0.76239669396E+02  0.83091639966E+02  0.00000000000E+00 0.  1.
          4    1    6    6  502    0  0.21812249538E+03 -0.23959247479E+03 -0.99979215142E+03  0.10509835027E+04  0.00000000000E+00 0. -1.
          1    1    5    5  503    0 -0.10373864463E+03 -0.40391797743E+01 -0.53378282475E+02  0.11673586596E+03  0.00000000000E+00 0. -1.
         -2    1    5    5    0  503 -0.88190161232E+02 -0.61093951821E+02  0.79354447209E+00  0.10728748855E+03  0.00000000000E+00 0.  1.
         -3    1    6    6    0  502  0.15684295329E+03 -0.15428708896E+03 -0.90963956288E+03  0.93586770014E+03  0.00000000000E+00 0.  1.
<mgrwt>
<rscale>  0 0.15905838E+04</rscale>
<asrwt>0</asrwt>
<pdfrwt beam="1">  1        2 0.62014713E+00 0.15905838E+04</pdfrwt>
<pdfrwt beam="2">  1       -2 0.24139688E-01 0.15905838E+04</pdfrwt>
<totfact> 0.48363934E+00</totfact>
</mgrwt>
</event>
<event>
12    1  0.1536832E-007  0.2675920E+04  0.7818608E-02  0.8342860E-01
         -2   -1    0    0    0  501 -0.00000000000E+00  0.00000000000E+00  0.24171767850E+04  0.24171767850E+04  0.00000000000E+00 0.  1.
          2   -1    0    0  501    0  0.00000000000E+00 -0.00000000000E+00 -0.74059017997E+03  0.74059017997E+03  0.00000000000E+00 0. -1.
         23    2    1    2    0    0  0.74900228969E+03 -0.23845157872E+03  0.17909128584E+04  0.19579741772E+04  0.91817354167E+02 0.  0.
        254    2    1    2    0    0 -0.74900228969E+03  0.23845157872E+03 -0.11432625342E+03  0.11997927878E+04  0.89920445733E+03 0.  0.
        -24    2    4    4    0    0 -0.81503146498E+03  0.74564956065E+02  0.18525573886E+03  0.84268218368E+03  0.77183886485E+02 0.  0.
         24    2    4    4    0    0  0.66029175293E+02  0.16388662266E+03 -0.29958199228E+03  0.35711060412E+03  0.80993434291E+02 0.  0.
         11    1    3    3    0    0  0.49468471690E+03 -0.17851986013E+03  0.12881418516E+04  0.13913632666E+04  0.00000000000E+00 0.  1.
        -11    1    3    3    0    0  0.25431757279E+03 -0.59931718590E+02  0.50277100680E+03  0.56661091059E+03  0.00000000000E+00 0. -1.
          2    1    6    6  502    0  0.51414848890E+02  0.11134626209E+03 -0.12887928547E+03  0.17790825442E+03  0.00000000000E+00 0. -1.
          1    1    5    5  503    0 -0.42521521210E+03  0.74031111595E+02  0.11391420668E+03  0.44639111614E+03  0.00000000000E+00 0. -1.
         -2    1    5    5    0  503 -0.38981625288E+03  0.53384446956E+00  0.71341532184E+02  0.39629106754E+03  0.00000000000E+00 0.  1.
         -1    1    6    6    0  502  0.14614326403E+02  0.52540360572E+02 -0.17070270681E+03  0.17920234970E+03  0.00000000000E+00 0.  1.
<mgrwt>
<rscale>  0 0.26759203E+04</rscale>
<asrwt>0</asrwt>
<pdfrwt beam="1">  1        2 0.11393695E+00 0.26759203E+04</pdfrwt>
<pdfrwt beam="2">  1       -2 0.37187335E+00 0.26759203E+04</pdfrwt>
<totfact> 0.37843361E-01</totfact>
</mgrwt>
</event>
<event>
12    1  0.1536832E-007  0.2430162E+04  0.7818608E-02  0.8428297E-01
         -1   -1    0    0    0  501 -0.00000000000E+00  0.00000000000E+00  0.94269981254E+03  0.94269981254E+03  0.00000000000E+00 0.  1.
          1   -1    0    0  501    0  0.00000000000E+00 -0.00000000000E+00 -0.15661638914E+04  0.15661638914E+04  0.00000000000E+00 0. -1.
         23    2    1    2    0    0 -0.75737567811E+02 -0.10019074563E+04 -0.56756008775E+03  0.11576154273E+04  0.91620380855E+02 0.  0.
        254    2    1    2    0    0  0.75737567811E+02  0.10019074563E+04 -0.55903991159E+02  0.13512482767E+04  0.90177154480E+03 0.  0.
        -24    2    4    4    0    0 -0.24250431962E+03  0.96987434105E+02 -0.24900467112E+03  0.36956664801E+03  0.79757593188E+02 0.  0.
         24    2    4    4    0    0  0.31824188743E+03  0.90492002215E+03  0.19310067996E+03  0.98168162871E+03  0.79074661775E+02 0.  0.
         13    1    3    3    0    0 -0.10375960331E+02 -0.91282662613E+01 -0.10472112026E+02  0.17339288567E+02  0.00000000000E+00 0.  1.
        -13    1    3    3    0    0 -0.65361607480E+02 -0.99277919000E+03 -0.55708797572E+03  0.11402761387E+04  0.00000000000E+00 0. -1.
          4    1    6    6  502    0  0.68116869170E+00  0.11893188315E+02 -0.57657257506E+01  0.13234633071E+02  0.00000000000E+00 0. -1.
          3    1    5    5  503    0  0.39558917014E+01 -0.47956669535E+01 -0.80913039337E+01  0.10203759113E+02  0.00000000000E+00 0. -1.
         -4    1    5    5    0  503 -0.24646021132E+03  0.10178310106E+03 -0.24091336718E+03  0.35936288889E+03  0.00000000000E+00 0.  1.
         -3    1    6    6    0  502  0.31756071874E+03  0.89302683384E+03  0.19886640571E+03  0.96844699564E+03  0.00000000000E+00 0.  1.
<mgrwt>
<rscale>  0 0.24301625E+04</rscale>
<asrwt>0</asrwt>
<pdfrwt beam="1">  1        1 0.24094829E+00 0.24301625E+04</pdfrwt>
<pdfrwt beam="2">  1       -1 0.14503074E+00 0.24301625E+04</pdfrwt>
<totfact> 0.20094861E+00</totfact>
</mgrwt>
</event>
<event>
12    1  0.1536832E-007  0.1454700E+04  0.7818608E-02  0.8915148E-01
         -1   -1    0    0    0  501 -0.00000000000E+00  0.00000000000E+00  0.20653644553E+03  0.20653644553E+03  0.00000000000E+00 0.  1.
          1   -1    0    0  501    0  0.00000000000E+00 -0.00000000000E+00 -0.25614763069E+04  0.25614763069E+04  0.00000000000E+00 0. -1.
         23    2    1    2    0    0  0.17674084154E+03  0.20280562557E+03 -0.14367608135E+04  0.14643694040E+04  0.87912850872E+02 0.  0.
        254    2    1    2    0    0 -0.17674084154E+03 -0.20280562557E+03 -0.91817904788E+03  0.13036433484E+04  0.88547488339E+03 0.  0.
        -24    2    4    4    0    0 -0.43214820451E+03 -0.39617019714E+03 -0.64429316808E+03  0.87478233442E+03  0.80172005201E+02 0.  0.
         24    2    4    4    0    0  0.25540736297E+03  0.19336457157E+03 -0.27388587981E+03  0.42886101401E+03  0.79281243590E+02 0.  0.
         13    1    3    3    0    0  0.18550647771E+03  0.18959602479E+03 -0.13070796340E+04  0.13337227881E+04  0.00000000000E+00 0. -1.
        -13    1    3    3    0    0 -0.87656361777E+01  0.13209600784E+02 -0.12968117941E+03  0.13064661581E+03  0.00000000000E+00 0.  1.
          4    1    6    6  502    0  0.91726653104E+02  0.24960028995E+02 -0.83905678419E+02  0.12679489267E+03  0.00000000000E+00 0. -1.
          1    1    5    5  503    0 -0.16336639588E+03 -0.99388052880E+02 -0.21543393251E+03  0.28805961819E+03  0.00000000000E+00 0. -1.
         -2    1    5    5    0  503 -0.26878180863E+03 -0.29678214426E+03 -0.42885923557E+03  0.58672271622E+03  0.00000000000E+00 0.  1.
         -3    1    6    6    0  502  0.16368070987E+03  0.16840454257E+03 -0.18998020139E+03  0.30206612134E+03  0.00000000000E+00 0.  1.
<mgrwt>
<rscale>  0 0.14547003E+04</rscale>
<asrwt>0</asrwt>
<pdfrwt beam="1">  1        1 0.39407327E+00 0.14547003E+04</pdfrwt>
<pdfrwt beam="2">  1       -1 0.31774838E-01 0.14547003E+04</pdfrwt>
<totfact> 0.11026181E+01</totfact>
</mgrwt>
</event>
<event>
12    1  0.1536832E-007  0.2625206E+04  0.7818608E-02  0.8359689E-01
          2   -1    0    0  501    0  0.00000000000E+00  0.00000000000E+00  0.96671568871E+03  0.96671568871E+03  0.00000000000E+00 0. -1.
         -2   -1    0    0    0  501 -0.00000000000E+00 -0.00000000000E+00 -0.17822475896E+04  0.17822475896E+04  0.00000000000E+00 0.  1.
         23    2    1    2    0    0  0.28821843761E+03 -0.20788550995E+03  0.79450449237E+03  0.87568491352E+03  0.96438718010E+02 0.  0.
        254    2    1    2    0    0 -0.28821843761E+03  0.20788550995E+03 -0.16100363933E+04  0.18732783648E+04  0.88919536174E+03 0.  0.
        -24    2    4    4    0    0 -0.22638529199E+02  0.31719603069E+03 -0.11242683022E+03  0.34630637696E+03  0.78501526594E+02 0.  0.
         24    2    4    4    0    0 -0.26557990841E+03 -0.10931052074E+03 -0.14976095631E+04  0.15269719878E+04  0.79546028288E+02 0.  0.
         11    1    3    3    0    0  0.55463169522E+02 -0.14621413377E+02  0.20782415671E+03  0.21559413029E+03  0.00000000000E+00 0.  1.
        -11    1    3    3    0    0  0.23275526809E+03 -0.19326409658E+03  0.58668033566E+03  0.66009078323E+03  0.00000000000E+00 0. -1.
          4    1    6    6  502    0 -0.24692604354E+03 -0.73967255915E+02 -0.13180679685E+04  0.13430364088E+04  0.00000000000E+00 0. -1.
          1    1    5    5  503    0 -0.12201736501E+01  0.13039351222E+03 -0.66495220467E+01  0.13056865242E+03  0.00000000000E+00 0. -1.
         -2    1    5    5    0  503 -0.21418355549E+02  0.18680251847E+03 -0.10577730818E+03  0.21573772453E+03  0.00000000000E+00 0.  1.
         -3    1    6    6    0  502 -0.18653864867E+02 -0.35343264824E+02 -0.17954159457E+03  0.18393557901E+03  0.00000000000E+00 0.  1.
<mgrwt>
<rscale>  0 0.26252061E+04</rscale>
<asrwt>0</asrwt>
<pdfrwt beam="1">  1        2 0.14872549E+00 0.26252061E+04</pdfrwt>
<pdfrwt beam="2">  1       -2 0.27419194E+00 0.26252061E+04</pdfrwt>
<totfact> 0.10677073E+00</totfact>
</mgrwt>
</event>
<event>
12    1  0.1536832E-007  0.1573213E+04  0.7818608E-02  0.8837175E-01
          1   -1    0    0  501    0  0.00000000000E+00  0.00000000000E+00  0.14535270736E+04  0.14535270736E+04  0.00000000000E+00 0. -1.
         -1   -1    0    0    0  501 -0.00000000000E+00 -0.00000000000E+00 -0.42568850400E+03  0.42568850400E+03  0.00000000000E+00 0.  1.
         23    2    1    2    0    0 -0.32906727158E+03 -0.35879174586E+03  0.11125713900E+03  0.50766041635E+03  0.91236841423E+02 0.  0.
        254    2    1    2    0    0  0.32906727158E+03  0.35879174586E+03  0.91658143060E+03  0.13715551612E+04  0.89667455372E+03 0.  0.
        -24    2    4    4    0    0 -0.10198344446E+03  0.13318031435E+03 -0.12222052862E+03  0.22164369356E+03  0.77784639879E+02 0.  0.
         24    2    4    4    0    0  0.43105071604E+03  0.22561143151E+03  0.10388019592E+04  0.11499114677E+04  0.80508603242E+02 0.  0.
         11    1    3    3    0    0 -0.97900438240E+02 -0.10377356281E+03  0.76041151342E+02  0.16166541016E+03  0.00000000000E+00 0. -1.
        -11    1    3    3    0    0 -0.23116683334E+03 -0.25501818305E+03  0.35215987656E+02  0.34599500619E+03  0.00000000000E+00 0.  1.
          2    1    6    6  502    0  0.35815852190E+03  0.15139557692E+03  0.83481907664E+03  0.92093487188E+03  0.00000000000E+00 0. -1.
          1    1    5    5  503    0 -0.11288475629E+03  0.11106373907E+03 -0.93955691419E+02  0.18413526085E+03  0.00000000000E+00 0. -1.
         -2    1    5    5    0  503  0.10901311828E+02  0.22116575277E+02 -0.28264837206E+02  0.37508432703E+02  0.00000000000E+00 0.  1.
         -1    1    6    6    0  502  0.72892194142E+02  0.74215854589E+02  0.20398288258E+03  0.22897659580E+03  0.00000000000E+00 0.  1.
<mgrwt>
<rscale>  0 0.15732130E+04</rscale>
<asrwt>0</asrwt>
<pdfrwt beam="1">  1        1 0.22361955E+00 0.15732130E+04</pdfrwt>
<pdfrwt beam="2">  1       -1 0.65490540E-01 0.15732130E+04</pdfrwt>
<totfact> 0.16016607E+01</totfact>
</mgrwt>
</event>
<event>
12    1  0.1536832E-007  0.1228292E+04  0.7818608E-02  0.9088447E-01
         -2   -1    0    0    0  501 -0.00000000000E+00  0.00000000000E+00  0.29065969867E+03  0.29065969867E+03  0.00000000000E+00 0.  1.
          2   -1    0    0  501    0  0.00000000000E+00 -0.00000000000E+00 -0.12976519357E+04  0.12976519357E+04  0.00000000000E+00 0. -1.
         23    2    1    2    0    0 -0.20942130948E+03 -0.17074134147E+03 -0.22826971129E+03  0.36496926742E+03  0.89920045111E+02 0.  0.
        254    2    1    2    0    0  0.20942130948E+03  0.17074134147E+03 -0.77872252577E+03  0.12233423670E+04  0.90396232454E+03 0.  0.
        -24    2    4    4    0    0  0.33758786831E+03 -0.17230221293E+03 -0.33386199690E+02  0.38877844229E+03  0.79877515275E+02 0.  0.
         24    2    4    4    0    0 -0.12816655883E+03  0.34304355439E+03 -0.74533632608E+03  0.83456392471E+03  0.82856251619E+02 0.  0.
         11    1    3    3    0    0  0.67391141979E+01 -0.18717932801E+02 -0.10260219345E+02  0.22384118690E+02  0.00000000000E+00 0. -1.
        -11    1    3    3    0    0 -0.21616042368E+03 -0.15202340867E+03 -0.21800949195E+03  0.34258514873E+03  0.00000000000E+00 0.  1.
          4    1    6    6  502    0 -0.44409340245E+02  0.14945029943E+03 -0.40722933313E+03  0.43605425265E+03  0.00000000000E+00 0. -1.
          3    1    5    5  503    0  0.25947242917E+03 -0.10882270164E+03  0.40174291505E+01  0.28139733764E+03  0.00000000000E+00 0. -1.
         -4    1    5    5    0  503  0.78115439139E+02 -0.63479511285E+02 -0.37403628841E+02  0.10738110465E+03  0.00000000000E+00 0.  1.
         -3    1    6    6    0  502 -0.83757218590E+02  0.19359325497E+03 -0.33810699296E+03  0.39850967206E+03  0.00000000000E+00 0.  1.
<mgrwt>
<rscale>  0 0.12282917E+04</rscale>
<asrwt>0</asrwt>
<pdfrwt beam="1">  1        2 0.19963876E+00 0.12282917E+04</pdfrwt>
<pdfrwt beam="2">  1       -2 0.44716878E-01 0.12282917E+04</pdfrwt>
<totfact> 0.77430195E+01</totfact>
</mgrwt>
</event>
<event>
12    1  0.1536832E-007  0.1852358E+04  0.7818608E-02  0.8678941E-01
          3   -1    0    0  501    0  0.00000000000E+00  0.00000000000E+00  0.10022690226E+04  0.10022690226E+04  0.00000000000E+00 0. -1.
         -3   -1    0    0    0  501 -0.00000000000E+00 -0.00000000000E+00 -0.85586531866E+03  0.85586531866E+03  0.00000000000E+00 0.  1.
         23    2    1    2    0    0 -0.62854098317E+03  0.28303256703E+03  0.15996537985E+03  0.71309444970E+03  0.87997556350E+02 0.  0.
        254    2    1    2    0    0  0.62854098317E+03 -0.28303256703E+03 -0.13561675891E+02  0.11450398916E+04  0.91419977726E+03 0.  0.
        -24    2    4    4    0    0  0.17150363482E+03  0.16144909047E+03  0.33094461968E+03  0.41562913317E+03  0.87999599272E+02 0.  0.
         24    2    4    4    0    0  0.45703734835E+03 -0.44448165750E+03 -0.34450629557E+03  0.72941075841E+03  0.83116696046E+02 0.  0.
         13    1    3    3    0    0 -0.36947756752E+03  0.14411440145E+03  0.13121728172E+03  0.41773269997E+03  0.00000000000E+00 0. -1.
        -13    1    3    3    0    0 -0.25906341565E+03  0.13891816558E+03  0.28748098126E+02  0.29536174973E+03  0.00000000000E+00 0.  1.
          2    1    6    6  502    0  0.40169717439E+03 -0.41708522839E+03 -0.29287636250E+03  0.64892008087E+03  0.00000000000E+00 0. -1.
          3    1    5    5  503    0  0.17149479628E+03  0.13220929430E+03  0.31521534812E+03  0.38242708892E+03  0.00000000000E+00 0. -1.
         -4    1    5    5    0  503  0.88385386142E-02  0.29239796175E+02  0.15729271566E+02  0.33202044252E+02  0.00000000000E+00 0.  1.
         -1    1    6    6    0  502  0.55340173960E+02 -0.27396429116E+02 -0.51629933067E+02  0.80490677540E+02  0.00000000000E+00 0.  1.
<mgrwt>
<rscale>  0 0.18523577E+04</rscale>
<asrwt>0</asrwt>
<pdfrwt beam="1">  1        3 0.15419523E+00 0.18523577E+04</pdfrwt>
<pdfrwt beam="2">  1       -3 0.13167159E+00 0.18523577E+04</pdfrwt>
<totfact> 0.33283381E-01</totfact>
</mgrwt>
</event>
<event>
12    1  0.1536832E-007  0.1199568E+04  0.7818608E-02  0.9113235E-01
         -2   -1    0    0    0  501 -0.00000000000E+00  0.00000000000E+00  0.32403819080E+03  0.32403819080E+03  0.00000000000E+00 0.  1.
          2   -1    0    0  501    0  0.00000000000E+00 -0.00000000000E+00 -0.11101808156E+04  0.11101808156E+04  0.00000000000E+00 0. -1.
         23    2    1    2    0    0  0.13731059913E+03  0.20083475749E+03 -0.10488834039E+03  0.28077109579E+03  0.92962593720E+02 0.  0.
        254    2    1    2    0    0 -0.13731059913E+03 -0.20083475749E+03 -0.68125428440E+03  0.11534479106E+04  0.89841297964E+03 0.  0.
        -24    2    4    4    0    0  0.33377643462E+02 -0.53759968859E+03 -0.41237275521E+03  0.68315539455E+03  0.80762067917E+02 0.  0.
         24    2    4    4    0    0 -0.17068824259E+03  0.33676493110E+03 -0.26888152919E+03  0.47029251603E+03  0.79578130953E+02 0.  0.
         11    1    3    3    0    0  0.14887626757E+03  0.18433088006E+03 -0.83103217665E+02  0.25109392899E+03  0.00000000000E+00 0.  1.
        -11    1    3    3    0    0 -0.11565668447E+02  0.16503877431E+02 -0.21785122724E+02  0.29677166796E+02  0.00000000000E+00 0. -1.
          4    1    6    6  502    0 -0.84211270473E+02  0.16748762745E+03 -0.85056801991E+02  0.20585991108E+03  0.00000000000E+00 0. -1.
          1    1    5    5  503    0  0.40083030529E+00 -0.80656044401E+02 -0.10087208225E+03  0.12915392035E+03  0.00000000000E+00 0. -1.
         -2    1    5    5    0  503  0.32976813157E+02 -0.45694364419E+03 -0.31150067296E+03  0.55400147421E+03  0.00000000000E+00 0.  1.
         -3    1    6    6    0  502 -0.86476972116E+02  0.16927730364E+03 -0.18382472720E+03  0.26443260496E+03  0.00000000000E+00 0.  1.
<mgrwt>
<rscale>  0 0.11995682E+04</rscale>
<asrwt>0</asrwt>
<pdfrwt beam="1">  1        2 0.17079705E+00 0.11995682E+04</pdfrwt>
<pdfrwt beam="2">  1       -2 0.49852029E-01 0.11995682E+04</pdfrwt>
<totfact> 0.80652549E+01</totfact>
</mgrwt>
</event>
<event>
12    1  0.1536832E-007  0.2454881E+04  0.7818608E-02  0.8419238E-01
         -1   -1    0    0    0  501 -0.00000000000E+00  0.00000000000E+00  0.48513411755E+03  0.48513411755E+03  0.00000000000E+00 0. -1.
          1   -1    0    0  501    0  0.00000000000E+00 -0.00000000000E+00 -0.31055551032E+04  0.31055551032E+04  0.00000000000E+00 0.  1.
         23    2    1    2    0    0  0.85250984667E+03  0.59022122893E+03 -0.14953048637E+04  0.18216786534E+04  0.86269016316E+02 0.  0.
        254    2    1    2    0    0 -0.85250984667E+03 -0.59022122893E+03 -0.11251161220E+04  0.17690105674E+04  0.88790650507E+03 0.  0.
        -24    2    4    4    0    0  0.13602149708E+02 -0.48123464034E+03 -0.37437598336E+03  0.61472980133E+03  0.77224051852E+02 0.  0.
         24    2    4    4    0    0 -0.86611199638E+03 -0.10898658860E+03 -0.75074013862E+03  0.11542807660E+04  0.82007709055E+02 0.  0.
         11    1    3    3    0    0  0.47524365780E+02  0.43902670275E+02 -0.63698254919E+02  0.90793598232E+02  0.00000000000E+00 0.  1.
        -11    1    3    3    0    0  0.80498548089E+03  0.54631855866E+03 -0.14316066088E+04  0.17308850552E+04  0.00000000000E+00 0. -1.
          2    1    6    6  502    0 -0.56884284718E+03 -0.10124445254E+03 -0.52855904609E+03  0.78307553222E+03  0.00000000000E+00 0. -1.
          1    1    5    5  503    0 -0.60732703645E+01 -0.42680370120E+03 -0.30629225378E+03  0.52536961151E+03  0.00000000000E+00 0. -1.
         -2    1    5    5    0  503  0.19675420072E+02 -0.54430939133E+02 -0.68083729586E+02  0.89360189818E+02  0.00000000000E+00 0.  1.
         -1    1    6    6    0  502 -0.29726914920E+03 -0.77421360591E+01 -0.22218109253E+03  0.37120523382E+03  0.00000000000E+00 0.  1.
<mgrwt>
<rscale>  0 0.24548815E+04</rscale>
<asrwt>0</asrwt>
<pdfrwt beam="1">  1        1 0.47777770E+00 0.24548815E+04</pdfrwt>
<pdfrwt beam="2">  1       -1 0.74636019E-01 0.24548815E+04</pdfrwt>
<totfact> 0.80551449E-01</totfact>
</mgrwt>
</event>
<event>
12    1  0.1536832E-007  0.1816986E+04  0.7818608E-02  0.8697318E-01
          1   -1    0    0  501    0  0.00000000000E+00  0.00000000000E+00  0.78513952429E+03  0.78513952429E+03  0.00000000000E+00 0. -1.
         -1   -1    0    0    0  501 -0.00000000000E+00 -0.00000000000E+00 -0.10512262058E+04  0.10512262058E+04  0.00000000000E+00 0.  1.
         23    2    1    2    0    0  0.27387673495E+03 -0.41664524583E+03  0.36901831211E+03  0.62720191730E+03  0.92768548372E+02 0.  0.
        254    2    1    2    0    0 -0.27387673495E+03  0.41664524583E+03 -0.63510499359E+03  0.12091638128E+04  0.90006502341E+03 0.  0.
        -24    2    4    4    0    0 -0.35799663791E+03  0.65999721912E+03 -0.41649433302E+03  0.86245683484E+03  0.81279397937E+02 0.  0.
         24    2    4    4    0    0  0.84119902958E+02 -0.24335197328E+03 -0.21861066057E+03  0.34670697791E+03  0.78222545634E+02 0.  0.
         11    1    3    3    0    0  0.27029530382E+03 -0.38041184022E+03  0.36080928662E+03  0.58987800498E+03  0.00000000000E+00 0. -1.
        -11    1    3    3    0    0  0.35814311323E+01 -0.36233405619E+02  0.82090254921E+01  0.37323912325E+02  0.00000000000E+00 0.  1.
          4    1    6    6  502    0  0.43229368412E+02 -0.18925057942E+03 -0.12417162400E+03  0.23044121227E+03  0.00000000000E+00 0. -1.
          1    1    5    5  503    0 -0.31659272230E+03  0.62004486376E+03 -0.36953574566E+03  0.78818985797E+03  0.00000000000E+00 0. -1.
         -2    1    5    5    0  503 -0.41403915610E+02  0.39952355356E+02 -0.46958587361E+02  0.74266976869E+02  0.00000000000E+00 0.  1.
         -3    1    6    6    0  502  0.40890534546E+02 -0.54101393859E+02 -0.94439036566E+02  0.11626576564E+03  0.00000000000E+00 0.  1.
<mgrwt>
<rscale>  0 0.18169857E+04</rscale>
<asrwt>0</asrwt>
<pdfrwt beam="1">  1        1 0.12079070E+00 0.18169857E+04</pdfrwt>
<pdfrwt beam="2">  1       -1 0.16172711E+00 0.18169857E+04</pdfrwt>
<totfact> 0.60879742E+00</totfact>
</mgrwt>
</event>
<event>
12    1  0.1543548E-007  0.1439415E+04  0.7818608E-02  0.8925772E-01
         -2   -1    0    0    0  501 -0.00000000000E+00  0.00000000000E+00  0.50726452602E+03  0.50726452602E+03  0.00000000000E+00 0.  1.
          2   -1    0    0  501    0  0.00000000000E+00 -0.00000000000E+00 -0.10211222661E+04  0.10211222661E+04  0.00000000000E+00 0. -1.
         23    2    1    2    0    0 -0.36629772838E+03 -0.17758615687E+03 -0.31691851772E+03  0.52402461050E+03  0.91943333699E+02 0.  0.
        254    2    1    2    0    0  0.36629772838E+03  0.17758615687E+03 -0.19693922233E+03  0.10043621816E+04  0.89679845316E+03 0.  0.
        -24    2    4    4    0    0 -0.24683642711E+03  0.11109826350E+03  0.12016989075E+03  0.30637014015E+03  0.78427126895E+02 0.  0.
         24    2    4    4    0    0  0.61313415548E+03  0.66487893373E+02 -0.31710911308E+03  0.69799204144E+03  0.79250033053E+02 0.  0.
         11    1    3    3    0    0 -0.15234678661E+03 -0.58026345238E+02 -0.74296786697E+02  0.17915527524E+03  0.00000000000E+00 0. -1.
        -11    1    3    3    0    0 -0.21395094176E+03 -0.11955981163E+03 -0.24262173102E+03  0.34486933526E+03  0.00000000000E+00 0.  1.
          2    1    6    6  502    0  0.11768133977E+03 -0.17968755720E+02 -0.54649224373E+02  0.13098973867E+03  0.00000000000E+00 0. -1.
          3    1    5    5  503    0  0.59916110086E+01  0.22155595789E+01  0.12735144272E+01  0.65138272714E+01  0.00000000000E+00 0. -1.
         -4    1    5    5    0  503 -0.25282803811E+03  0.10888270392E+03  0.11889637632E+03  0.29985631288E+03  0.00000000000E+00 0.  1.
         -1    1    6    6    0  502  0.49545281571E+03  0.84456649093E+02 -0.26245988870E+03  0.56700230278E+03  0.00000000000E+00 0.  1.
<mgrwt>
<rscale>  0 0.14394153E+04</rscale>
<asrwt>0</asrwt>
<pdfrwt beam="1">  1        2 0.15709573E+00 0.14394153E+04</pdfrwt>
<pdfrwt beam="2">  1       -2 0.78040697E-01 0.14394153E+04</pdfrwt>
<totfact> 0.34638742E+01</totfact>
</mgrwt>
</event>
<event>
12    1  0.1536832E-007  0.1907751E+04  0.7818608E-02  0.8651008E-01
         -2   -1    0    0    0  501 -0.00000000000E+00  0.00000000000E+00  0.52791232122E+03  0.52791232122E+03  0.00000000000E+00 0.  1.
          2   -1    0    0  501    0  0.00000000000E+00 -0.00000000000E+00 -0.17235402955E+04  0.17235402955E+04  0.00000000000E+00 0. -1.
         23    2    1    2    0    0  0.18981016661E+03  0.15104110258E+03  0.35839567953E+03  0.44192410387E+03  0.89488191724E+02 0.  0.
        254    2    1    2    0    0 -0.18981016661E+03 -0.15104110258E+03 -0.15540236538E+04  0.18095285128E+04  0.89474164324E+03 0.  0.
        -24    2    4    4    0    0  0.29712417329E+03  0.12441077871E+03 -0.36611173525E+03  0.49397923540E+03  0.78847105856E+02 0.  0.
         24    2    4    4    0    0 -0.48693433990E+03 -0.27545188130E+03 -0.11879119185E+04  0.13155492774E+04  0.80971506290E+02 0.  0.
         13    1    3    3    0    0  0.17482162878E+03  0.11795279132E+03  0.34261637472E+03  0.40232007543E+03  0.00000000000E+00 0.  1.
        -13    1    3    3    0    0  0.14988537836E+02  0.33088311261E+02  0.15779304814E+02  0.39604028444E+02  0.00000000000E+00 0. -1.
          4    1    6    6  502    0 -0.28977695359E+03 -0.16889344546E+03 -0.80153056790E+03  0.86887682098E+03  0.00000000000E+00 0. -1.
          3    1    5    5  503    0  0.16861110085E+03  0.10035420896E+03 -0.17820530798E+03  0.26506188405E+03  0.00000000000E+00 0. -1.
         -4    1    5    5    0  503  0.12851307244E+03  0.24056569751E+02 -0.18790642727E+03  0.22891735134E+03  0.00000000000E+00 0.  1.
         -3    1    6    6    0  502 -0.19715738631E+03 -0.10655843583E+03 -0.38638135063E+03  0.44667245644E+03  0.00000000000E+00 0.  1.
<mgrwt>
<rscale>  0 0.19077507E+04</rscale>
<asrwt>0</asrwt>
<pdfrwt beam="1">  1        2 0.26516004E+00 0.19077507E+04</pdfrwt>
<pdfrwt beam="2">  1       -2 0.81217280E-01 0.19077507E+04</pdfrwt>
<totfact> 0.11898338E+01</totfact>
</mgrwt>
</event>
<event>
12    1  0.1536832E-007  0.1525405E+04  0.7818608E-02  0.8867732E-01
          2   -1    0    0  501    0  0.00000000000E+00  0.00000000000E+00  0.32857790986E+04  0.32857790986E+04  0.00000000000E+00 0. -1.
         -2   -1    0    0    0  501 -0.00000000000E+00 -0.00000000000E+00 -0.17704033663E+03  0.17704033663E+03  0.00000000000E+00 0.  1.
         23    2    1    2    0    0  0.12368794568E+03 -0.47465004617E+02 -0.55586592910E+02  0.17024965078E+03  0.91342431046E+02 0.  0.
        254    2    1    2    0    0 -0.12368794568E+03  0.47465004617E+02  0.31643253549E+04  0.32925697845E+04  0.90028284414E+03 0.  0.
        -24    2    4    4    0    0 -0.32773465659E+02 -0.29106737618E+03  0.38453391327E+03  0.48961064189E+03  0.77832722358E+02 0.  0.
         24    2    4    4    0    0 -0.90914480017E+02  0.33853238080E+03  0.27797914416E+04  0.28029591426E+04  0.80435567734E+02 0.  0.
         11    1    3    3    0    0  0.12046360165E+03 -0.68802118216E+02 -0.53038603886E+02  0.14852038343E+03  0.00000000000E+00 0.  1.
        -11    1    3    3    0    0  0.32243440272E+01  0.21337113600E+02 -0.25479890234E+01  0.21729267342E+02  0.00000000000E+00 0. -1.
          4    1    6    6  502    0 -0.17568382598E+02  0.63010171198E+01  0.19000575694E+03  0.19092024134E+03  0.00000000000E+00 0. -1.
          3    1    5    5  503    0 -0.72976918364E+01 -0.27719178656E+01 -0.62569121018E+00  0.78314318156E+01  0.00000000000E+00 0. -1.
         -4    1    5    5    0  503 -0.25475773823E+02 -0.28829545831E+03  0.38515960448E+03  0.48177921008E+03  0.00000000000E+00 0.  1.
         -3    1    6    6    0  502 -0.73346097419E+02  0.33223136368E+03  0.25897856847E+04  0.26120389013E+04  0.00000000000E+00 0.  1.
<mgrwt>
<rscale>  0 0.15254054E+04</rscale>
<asrwt>0</asrwt>
<pdfrwt beam="1">  1        2 0.50550443E+00 0.15254054E+04</pdfrwt>
<pdfrwt beam="2">  1       -2 0.27236977E-01 0.15254054E+04</pdfrwt>
<totfact> 0.13607660E+01</totfact>
</mgrwt>
</event>
<event>
12    1  0.1536832E-007  0.1724354E+04  0.7818608E-02  0.8747595E-01
         -1   -1    0    0    0  501 -0.00000000000E+00  0.00000000000E+00  0.98212187336E+03  0.98212187336E+03  0.00000000000E+00 0.  1.
          1   -1    0    0  501    0  0.00000000000E+00 -0.00000000000E+00 -0.75688113001E+03  0.75688113001E+03  0.00000000000E+00 0. -1.
         23    2    1    2    0    0  0.20044343599E+03  0.53303726407E+03 -0.17110766796E+03  0.60169869265E+03  0.91962964232E+02 0.  0.
        254    2    1    2    0    0 -0.20044343599E+03 -0.53303726407E+03  0.39634841131E+03  0.11373043107E+04  0.90114523587E+03 0.  0.
        -24    2    4    4    0    0 -0.18837723540E+03 -0.13323930850E+03 -0.26522573093E+03  0.36017976606E+03  0.78396934821E+02 0.  0.
         24    2    4    4    0    0 -0.12066200593E+02 -0.39979795556E+03  0.66157414223E+03  0.77712454466E+03  0.79108872956E+02 0.  0.
         13    1    3    3    0    0  0.96658770543E+02  0.23095148002E+03 -0.28795164581E+02  0.25201322495E+03  0.00000000000E+00 0.  1.
        -13    1    3    3    0    0  0.10378466545E+03  0.30208578404E+03 -0.14231250337E+03  0.34968546770E+03  0.00000000000E+00 0. -1.
          2    1    6    6  502    0 -0.31857973634E+02 -0.16733829470E+03  0.33441970525E+03  0.37530464241E+03  0.00000000000E+00 0. -1.
          1    1    5    5  503    0 -0.22839943740E+02 -0.42368791724E+02 -0.23865870021E+02  0.53724829400E+02  0.00000000000E+00 0. -1.
         -2    1    5    5    0  503 -0.16553729166E+03 -0.90870516779E+02 -0.24135986090E+03  0.30645493666E+03  0.00000000000E+00 0.  1.
         -1    1    6    6    0  502  0.19791773040E+02 -0.23245966086E+03  0.32715443698E+03  0.40181990225E+03  0.00000000000E+00 0.  1.
<mgrwt>
<rscale>  0 0.17243544E+04</rscale>
<asrwt>0</asrwt>
<pdfrwt beam="1">  1        1 0.11644325E+00 0.17243544E+04</pdfrwt>
<pdfrwt beam="2">  1       -1 0.15109567E+00 0.17243544E+04</pdfrwt>
<totfact> 0.78447235E+00</totfact>
</mgrwt>
</event>
<event>
12    1  0.2242628E-007  0.2017803E+04  0.7818608E-02  0.8598342E-01
          1   -1    0    0  501    0  0.00000000000E+00  0.00000000000E+00  0.22631544895E+04  0.22631544895E+04  0.00000000000E+00 0. -1.
         -1   -1    0    0    0  501 -0.00000000000E+00 -0.00000000000E+00 -0.44976264677E+03  0.44976264677E+03  0.00000000000E+00 0.  1.
         23    2    1    2    0    0  0.47634273943E+02 -0.32817377526E+03 -0.25714232928E+03  0.42961332779E+03  0.92078135754E+02 0.  0.
        254    2    1    2    0    0 -0.47634273943E+02  0.32817377526E+03  0.20705341720E+04  0.22833038085E+04  0.90354716175E+03 0.  0.
        -24    2    4    4    0    0 -0.61112176628E+02  0.34786170554E+03  0.21429834849E+04  0.21733495463E+04  0.79546022521E+02 0.  0.
         24    2    4    4    0    0  0.13477902685E+02 -0.19687930284E+02 -0.72449312828E+02  0.10995426220E+03  0.79194497195E+02 0.  0.
         13    1    3    3    0    0  0.10623394695E+02 -0.28801906857E+02  0.35759898040E+01  0.30906213882E+02  0.00000000000E+00 0. -1.
        -13    1    3    3    0    0  0.37010879248E+02 -0.29937186840E+03 -0.26071831909E+03  0.39870711391E+03  0.00000000000E+00 0.  1.
          2    1    6    6  502    0  0.99984875124E+01  0.17452655520E+02 -0.69706442206E+02  0.72550348188E+02  0.00000000000E+00 0. -1.
          3    1    5    5  503    0 -0.44637633371E+02  0.26367614584E+03  0.18022792921E+04  0.18220121501E+04  0.00000000000E+00 0. -1.
         -4    1    5    5    0  503 -0.16474543257E+02  0.84185559706E+02  0.34070419274E+03  0.35133739623E+03  0.00000000000E+00 0.  1.
         -1    1    6    6    0  502  0.34794151722E+01 -0.37140585804E+02 -0.27428706220E+01  0.37403914007E+02  0.00000000000E+00 0.  1.
<mgrwt>
<rscale>  0 0.20178031E+04</rscale>
<asrwt>0</asrwt>
<pdfrwt beam="1">  1        1 0.34817761E+00 0.20178031E+04</pdfrwt>
<pdfrwt beam="2">  1       -1 0.69194255E-01 0.20178031E+04</pdfrwt>
<totfact> 0.38606176E+00</totfact>
</mgrwt>
</event>
<event>
12    1  0.1536832E-007  0.1679706E+04  0.7818608E-02  0.8773024E-01
         -1   -1    0    0    0  501 -0.00000000000E+00  0.00000000000E+00  0.80735413632E+03  0.80735413632E+03  0.00000000000E+00 0.  1.
          1   -1    0    0  501    0  0.00000000000E+00 -0.00000000000E+00 -0.87366007724E+03  0.87366007724E+03  0.00000000000E+00 0. -1.
         23    2    1    2    0    0 -0.48918944401E+03  0.41957830168E+02  0.31143695635E+03  0.58842490182E+03  0.90466102270E+02 0.  0.
        254    2    1    2    0    0  0.48918944401E+03 -0.41957830168E+02 -0.37774289728E+03  0.10925893117E+04  0.89999718668E+03 0.  0.
        -24    2    4    4    0    0  0.65894997491E+03 -0.69956479142E+02 -0.52651984457E+03  0.85020877406E+03  0.80764065997E+02 0.  0.
         24    2    4    4    0    0 -0.16976053089E+03  0.27998648974E+02  0.14877694729E+03  0.24238053768E+03  0.83732806021E+02 0.  0.
         11    1    3    3    0    0 -0.44231619396E+03  0.17462940639E+02  0.29873629075E+03  0.53403365170E+03  0.00000000000E+00 0.  1.
        -11    1    3    3    0    0 -0.46873250048E+02  0.24494889529E+02  0.12700665599E+02  0.54391250122E+02  0.00000000000E+00 0. -1.
          4    1    6    6  502    0 -0.16357806553E+03  0.11494127491E+02  0.15298143196E+03  0.22426149248E+03  0.00000000000E+00 0. -1.
          1    1    5    5  503    0  0.20766611201E+03 -0.33043625898E+02 -0.21410839825E+03  0.30009915277E+03  0.00000000000E+00 0. -1.
         -2    1    5    5    0  503  0.45128386290E+03 -0.36912853244E+02 -0.31241144632E+03  0.55010962129E+03  0.00000000000E+00 0.  1.
         -3    1    6    6    0  502 -0.61824653683E+01  0.16504521483E+02 -0.42044846612E+01  0.18119045192E+02  0.00000000000E+00 0.  1.
<mgrwt>
<rscale>  0 0.16797060E+04</rscale>
<asrwt>0</asrwt>
<pdfrwt beam="1">  1        1 0.13440924E+00 0.16797060E+04</pdfrwt>
<pdfrwt beam="2">  1       -1 0.12420833E+00 0.16797060E+04</pdfrwt>
<totfact> 0.10371421E+01</totfact>
</mgrwt>
</event>
<event>
12    1  0.1536832E-007  0.1136025E+04  0.7818608E-02  0.9170774E-01
         -2   -1    0    0    0  501 -0.00000000000E+00  0.00000000000E+00  0.44165237124E+03  0.44165237124E+03  0.00000000000E+00 0. -1.
          2   -1    0    0  501    0  0.00000000000E+00 -0.00000000000E+00 -0.73052528642E+03  0.73052528642E+03  0.00000000000E+00 0.  1.
         23    2    1    2    0    0  0.20677966397E+02 -0.41118633207E+00 -0.24584265529E+03  0.26239351777E+03  0.89353229619E+02 0.  0.
        254    2    1    2    0    0 -0.20677966397E+02  0.41118633207E+00 -0.43030259896E+02  0.90978413988E+03  0.90853058867E+03 0.  0.
        -24    2    4    4    0    0 -0.35605305641E+03  0.22886935781E+02 -0.30374438780E+03  0.47651574823E+03  0.86654569309E+02 0.  0.
         24    2    4    4    0    0  0.33537509001E+03 -0.22475749449E+02  0.26071412790E+03  0.43326839166E+03  0.82268052157E+02 0.  0.
         13    1    3    3    0    0 -0.30535996167E+02 -0.83181112388E+01 -0.45278517992E+02  0.55242938264E+02  0.00000000000E+00 0. -1.
        -13    1    3    3    0    0  0.51213962564E+02  0.79069249067E+01 -0.20056413729E+03  0.20715057951E+03  0.00000000000E+00 0.  1.
          2    1    6    6  502    0  0.15448130676E+03 -0.45798380807E+02  0.96305046713E+02  0.18771421855E+03  0.00000000000E+00 0. -1.
          1    1    5    5  503    0 -0.25573102040E+03  0.53149679011E+02 -0.19911366969E+03  0.32843491993E+03  0.00000000000E+00 0. -1.
         -2    1    5    5    0  503 -0.10032203601E+03 -0.30262743230E+02 -0.10463071810E+03  0.14808082829E+03  0.00000000000E+00 0.  1.
         -1    1    6    6    0  502  0.18089378325E+03  0.23322631359E+02  0.16440908119E+03  0.24555417311E+03  0.00000000000E+00 0.  1.
<mgrwt>
<rscale>  0 0.11360250E+04</rscale>
<asrwt>0</asrwt>
<pdfrwt beam="1">  1        2 0.11238850E+00 0.11360250E+04</pdfrwt>
<pdfrwt beam="2">  1       -2 0.67946520E-01 0.11360250E+04</pdfrwt>
<totfact> 0.76283982E+01</totfact>
</mgrwt>
</event>
<event>
12    1  0.1536832E-007  0.1586457E+04  0.7818608E-02  0.8828912E-01
         -2   -1    0    0    0  501 -0.00000000000E+00  0.00000000000E+00  0.45445715107E+03  0.45445715107E+03  0.00000000000E+00 0.  1.
          2   -1    0    0  501    0  0.00000000000E+00 -0.00000000000E+00 -0.13845338272E+04  0.13845338272E+04  0.00000000000E+00 0. -1.
         23    2    1    2    0    0  0.32107986269E+02  0.51457671767E+03 -0.39260563442E+03  0.65869342470E+03  0.11797339709E+03 0.  0.
        254    2    1    2    0    0 -0.32107986269E+02 -0.51457671767E+03 -0.53747104171E+03  0.11802975536E+04  0.91564571377E+03 0.  0.
        -24    2    4    4    0    0  0.12472126105E+03 -0.67513486350E+03 -0.12327547448E+03  0.70200701810E+03  0.79085611690E+02 0.  0.
         24    2    4    4    0    0 -0.15682924732E+03  0.16055814583E+03 -0.41419556723E+03  0.47829053547E+03  0.82641015242E+02 0.  0.
         11    1    3    3    0    0  0.15988193025E+02  0.41331955225E+03 -0.25087391231E+03  0.48376274605E+03  0.00000000000E+00 0. -1.
        -11    1    3    3    0    0  0.16119793244E+02  0.10125716542E+03 -0.14173172210E+03  0.17493067865E+03  0.00000000000E+00 0.  1.
          4    1    6    6  502    0 -0.70378699685E+02  0.12913928914E+03 -0.24744555706E+03  0.28785312414E+03  0.00000000000E+00 0. -1.
          1    1    5    5  503    0 -0.90433643291E+01 -0.14800164749E+02 -0.35939662895E+01  0.17712817638E+02  0.00000000000E+00 0. -1.
         -2    1    5    5    0  503  0.13376462538E+03 -0.66033469875E+03 -0.11968150819E+03  0.68429420046E+03  0.00000000000E+00 0.  1.
         -3    1    6    6    0  502 -0.86450547639E+02  0.31418856691E+02 -0.16675001017E+03  0.19043741133E+03  0.00000000000E+00 0.  1.
<mgrwt>
<rscale>  0 0.15864568E+04</rscale>
<asrwt>0</asrwt>
<pdfrwt beam="1">  1        2 0.21300520E+00 0.15864568E+04</pdfrwt>
<pdfrwt beam="2">  1       -2 0.69916486E-01 0.15864568E+04</pdfrwt>
<totfact> 0.26423028E+01</totfact>
</mgrwt>
</event>
<event>
12    1  0.1536832E-007  0.1191612E+04  0.7818608E-02  0.9120230E-01
         -2   -1    0    0    0  501 -0.00000000000E+00  0.00000000000E+00  0.16883688485E+03  0.16883688485E+03  0.00000000000E+00 0. -1.
          2   -1    0    0  501    0  0.00000000000E+00 -0.00000000000E+00 -0.21025321961E+04  0.21025321961E+04  0.00000000000E+00 0.  1.
         23    2    1    2    0    0  0.13193279484E+03  0.27998864047E+02 -0.38035140617E+02  0.16754348217E+03  0.91836527341E+02 0.  0.
        254    2    1    2    0    0 -0.13193279484E+03 -0.27998864047E+02 -0.18956601706E+04  0.21038255987E+04  0.90242144743E+03 0.  0.
        -24    2    4    4    0    0 -0.22044274080E+03  0.27732798652E+03 -0.28894460022E+03  0.46422160572E+03  0.80665377592E+02 0.  0.
         24    2    4    4    0    0  0.88509945960E+02 -0.30532685056E+03 -0.16067155704E+04  0.16396039930E+04  0.75550205989E+02 0.  0.
         11    1    3    3    0    0  0.86176439383E+02 -0.23306504532E+02 -0.61676662031E+00  0.89274589102E+02  0.00000000000E+00 0. -1.
        -11    1    3    3    0    0  0.45756355455E+02  0.51305368578E+02 -0.37418373997E+02  0.78268893068E+02  0.00000000000E+00 0.  1.
          2    1    6    6  502    0 -0.12384708729E+02 -0.60329198271E+02 -0.32634205783E+03  0.33210259241E+03  0.00000000000E+00 0. -1.
          3    1    5    5  503    0 -0.31709848153E+02  0.51775349983E+01 -0.26841051103E+02  0.41866016802E+02  0.00000000000E+00 0. -1.
         -4    1    5    5    0  503 -0.18873289264E+03  0.27215045152E+03 -0.26210354912E+03  0.42235558891E+03  0.00000000000E+00 0.  1.
         -1    1    6    6    0  502  0.10089465469E+03 -0.24499765229E+03 -0.12803735125E+04  0.13075014006E+04  0.00000000000E+00 0.  1.
<mgrwt>
<rscale>  0 0.11916123E+04</rscale>
<asrwt>0</asrwt>
<pdfrwt beam="1">  1        2 0.32346649E+00 0.11916123E+04</pdfrwt>
<pdfrwt beam="2">  1       -2 0.25974905E-01 0.11916123E+04</pdfrwt>
<totfact> 0.77541452E+01</totfact>
</mgrwt>
</event>
<event>
12    1  0.1536832E-007  0.1604536E+04  0.7818608E-02  0.8817766E-01
         -1   -1    0    0    0  501 -0.00000000000E+00  0.00000000000E+00  0.37434825177E+03  0.37434825177E+03  0.00000000000E+00 0.  1.
          1   -1    0    0  501    0  0.00000000000E+00 -0.00000000000E+00 -0.17193450660E+04  0.17193450660E+04  0.00000000000E+00 0. -1.
         23    2    1    2    0    0  0.25476239038E+03 -0.66101220886E+02 -0.10070337530E+04  0.10447800527E+04  0.90416435656E+02 0.  0.
        254    2    1    2    0    0 -0.25476239038E+03  0.66101220886E+02 -0.33796306122E+03  0.10489132651E+04  0.95745848994E+03 0.  0.
        -24    2    4    4    0    0 -0.20961268503E+02  0.29900071731E+03  0.23083793900E+03  0.38658366174E+03  0.79498237151E+02 0.  0.
         24    2    4    4    0    0 -0.23380112187E+03 -0.23289949643E+03 -0.56880100022E+03  0.66232960334E+03  0.78998642989E+02 0.  0.
         13    1    3    3    0    0  0.50290536267E+02  0.12003139059E+02 -0.11179505180E+03  0.12317202195E+03  0.00000000000E+00 0.  1.
        -13    1    3    3    0    0  0.20447185411E+03 -0.78104359945E+02 -0.89523870122E+03  0.92160803074E+03  0.00000000000E+00 0. -1.
          4    1    6    6  502    0 -0.94743932906E+02 -0.11734246644E+03 -0.18991867095E+03  0.24251756396E+03  0.00000000000E+00 0. -1.
          3    1    5    5  503    0  0.14137750606E+02  0.10509526855E+03  0.43269715925E+02  0.11453016974E+03  0.00000000000E+00 0. -1.
         -4    1    5    5    0  503 -0.35099019108E+02  0.19390544876E+03  0.18756822307E+03  0.27205349200E+03  0.00000000000E+00 0.  1.
         -3    1    6    6    0  502 -0.13905718897E+03 -0.11555702998E+03 -0.37888232926E+03  0.41981203938E+03  0.00000000000E+00 0.  1.
<mgrwt>
<rscale>  0 0.16045358E+04</rscale>
<asrwt>0</asrwt>
<pdfrwt beam="1">  1        1 0.26451462E+00 0.16045358E+04</pdfrwt>
<pdfrwt beam="2">  1       -1 0.57592040E-01 0.16045358E+04</pdfrwt>
<totfact> 0.13542013E+01</totfact>
</mgrwt>
</event>
<event>
12    1  0.1536832E-007  0.1886571E+04  0.7818608E-02  0.8661570E-01
         -1   -1    0    0    0  501 -0.00000000000E+00  0.00000000000E+00  0.14116325578E+04  0.14116325578E+04  0.00000000000E+00 0.  1.
          1   -1    0    0  501    0  0.00000000000E+00 -0.00000000000E+00 -0.63032519697E+03  0.63032519697E+03  0.00000000000E+00 0. -1.
         23    2    1    2    0    0 -0.35803010496E+03  0.62718677647E+03  0.31244800002E+03  0.79222909042E+03  0.91947650097E+02 0.  0.
        254    2    1    2    0    0  0.35803010496E+03 -0.62718677647E+03  0.46885936080E+03  0.12497286643E+04  0.90578354238E+03 0.  0.
        -24    2    4    4    0    0 -0.29292742791E+03 -0.11148336016E+03  0.13883189116E+03  0.35254142927E+03  0.82317359852E+02 0.  0.
         24    2    4    4    0    0  0.65095753286E+03 -0.51570341631E+03  0.33002746964E+03  0.89718723508E+03  0.79568089645E+02 0.  0.
         11    1    3    3    0    0 -0.24670930455E+02  0.62797631522E+02  0.34411733638E+01  0.67557671721E+02  0.00000000000E+00 0. -1.
        -11    1    3    3    0    0 -0.33335917450E+03  0.56438914494E+03  0.30900682666E+03  0.72467141870E+03  0.00000000000E+00 0.  1.
          2    1    6    6  502    0  0.16801757180E+03 -0.13908965770E+03  0.50007873924E+02  0.22377807034E+03  0.00000000000E+00 0. -1.
          3    1    5    5  503    0 -0.40197651183E+02  0.11017047335E+02  0.69140573500E+01  0.42249623450E+02  0.00000000000E+00 0. -1.
         -4    1    5    5    0  503 -0.25272977673E+03 -0.12250040749E+03  0.13191783381E+03  0.31029180582E+03  0.00000000000E+00 0.  1.
         -1    1    6    6    0  502  0.48293996106E+03 -0.37661375861E+03  0.28001959572E+03  0.67340916474E+03  0.00000000000E+00 0.  1.
<mgrwt>
<rscale>  0 0.18865710E+04</rscale>
<asrwt>0</asrwt>
<pdfrwt beam="1">  1        1 0.96973108E-01 0.18865710E+04</pdfrwt>
<pdfrwt beam="2">  1       -1 0.21717424E+00 0.18865710E+04</pdfrwt>
<totfact> 0.34316006E+00</totfact>
</mgrwt>
</event>
<event>
12    1  0.1536832E-007  0.1249247E+04  0.7818608E-02  0.9070810E-01
         -1   -1    0    0    0  501 -0.00000000000E+00  0.00000000000E+00  0.11858903573E+04  0.11858903573E+04  0.00000000000E+00 0.  1.
          1   -1    0    0  501    0  0.00000000000E+00 -0.00000000000E+00 -0.32899711494E+03  0.32899711494E+03  0.00000000000E+00 0. -1.
         23    2    1    2    0    0 -0.18747992915E+03  0.10560330860E+03  0.44832721873E+03  0.50399447523E+03  0.81928953250E+02 0.  0.
        254    2    1    2    0    0  0.18747992915E+03 -0.10560330860E+03  0.40856602363E+03  0.10108929970E+04  0.89926507389E+03 0.  0.
        -24    2    4    4    0    0  0.23086129030E+03  0.21919219440E+03 -0.14919306543E+03  0.35909702964E+03  0.73143369334E+02 0.  0.
         24    2    4    4    0    0 -0.43381361146E+02 -0.32479550299E+03  0.55775908906E+03  0.65179596738E+03  0.79804263047E+02 0.  0.
         11    1    3    3    0    0 -0.15840433333E+03  0.93928091872E+02  0.29703058784E+03  0.34948760976E+03  0.00000000000E+00 0. -1.
        -11    1    3    3    0    0 -0.29075595821E+02  0.11675216724E+02  0.15129663089E+03  0.15450686547E+03  0.00000000000E+00 0.  1.
          4    1    6    6  502    0 -0.16485032350E+02 -0.29466987514E+03  0.46676320035E+03  0.55224086847E+03  0.00000000000E+00 0. -1.
          1    1    5    5  503    0  0.62433837184E+02  0.95575565785E+02 -0.78467579694E+02  0.13852737586E+03  0.00000000000E+00 0. -1.
         -2    1    5    5    0  503  0.16842745312E+03  0.12361662861E+03 -0.70725485734E+02  0.22056965377E+03  0.00000000000E+00 0.  1.
         -3    1    6    6    0  502 -0.26896328796E+02 -0.30125627851E+02  0.90995888717E+02  0.99555098913E+02  0.00000000000E+00 0.  1.
<mgrwt>
<rscale>  0 0.12492470E+04</rscale>
<asrwt>0</asrwt>
<pdfrwt beam="1">  1        1 0.50614941E-01 0.12492470E+04</pdfrwt>
<pdfrwt beam="2">  1       -1 0.18244467E+00 0.12492470E+04</pdfrwt>
<totfact> 0.15315044E+01</totfact>
</mgrwt>
</event>
<event>
12    1  0.1536832E-007  0.1883035E+04  0.7818608E-02  0.8663347E-01
          1   -1    0    0  501    0  0.00000000000E+00  0.00000000000E+00  0.10694404170E+04  0.10694404170E+04  0.00000000000E+00 0. -1.
         -1   -1    0    0    0  501 -0.00000000000E+00 -0.00000000000E+00 -0.82889649381E+03  0.82889649381E+03  0.00000000000E+00 0.  1.
         23    2    1    2    0    0 -0.15893995450E+03 -0.52260578995E+03 -0.38112269529E+03  0.67291137488E+03  0.95793991178E+02 0.  0.
        254    2    1    2    0    0  0.15893995450E+03  0.52260578995E+03  0.62166661845E+03  0.12254255359E+04  0.90378074704E+03 0.  0.
        -24    2    4    4    0    0  0.68790825453E+02  0.54901853068E+03  0.82032790266E+03  0.99283718173E+03  0.81451070214E+02 0.  0.
         24    2    4    4    0    0  0.90149129052E+02 -0.26412740732E+02 -0.19866128421E+03  0.23258835417E+03  0.76200645085E+02 0.  0.
         11    1    3    3    0    0 -0.16869297298E+03 -0.49684702554E+03 -0.34702642934E+03  0.62907998583E+03  0.00000000000E+00 0.  1.
        -11    1    3    3    0    0  0.97530184746E+01 -0.25758764415E+02 -0.34096265958E+02  0.43831389047E+02  0.00000000000E+00 0. -1.
          4    1    6    6  502    0  0.53278460727E+02 -0.47283059965E+02 -0.82808073656E+02  0.10923121898E+03  0.00000000000E+00 0. -1.
          1    1    5    5  503    0  0.15210515947E+02  0.34179399996E+03  0.45275477187E+03  0.56748689998E+03  0.00000000000E+00 0. -1.
         -2    1    5    5    0  503  0.53580309506E+02  0.20722453073E+03  0.36757313079E+03  0.42535028174E+03  0.00000000000E+00 0.  1.
         -3    1    6    6    0  502  0.36870668325E+02  0.20870319233E+02 -0.11585321056E+03  0.12335713520E+03  0.00000000000E+00 0.  1.
<mgrwt>
<rscale>  0 0.18830352E+04</rscale>
<asrwt>0</asrwt>
<pdfrwt beam="1">  1        1 0.16452930E+00 0.18830352E+04</pdfrwt>
<pdfrwt beam="2">  1       -1 0.12752254E+00 0.18830352E+04</pdfrwt>
<totfact> 0.66714053E+00</totfact>
</mgrwt>
</event>
<event>
12    1  0.1536832E-007  0.1395991E+04  0.7818608E-02  0.8956726E-01
          1   -1    0    0  501    0  0.00000000000E+00  0.00000000000E+00  0.10427797114E+04  0.10427797114E+04  0.00000000000E+00 0. -1.
         -1   -1    0    0    0  501 -0.00000000000E+00 -0.00000000000E+00 -0.46721032667E+03  0.46721032667E+03  0.00000000000E+00 0.  1.
         23    2    1    2    0    0  0.14003852577E+03  0.35271380089E+03  0.11068672662E+03  0.40582507797E+03  0.91785774639E+02 0.  0.
        254    2    1    2    0    0 -0.14003852577E+03 -0.35271380089E+03  0.46488265810E+03  0.11041649601E+04  0.92684764618E+03 0.  0.
        -24    2    4    4    0    0 -0.39936273549E+03  0.10071478589E+03  0.38570032905E+03  0.56965051464E+03  0.78121075328E+02 0.  0.
         24    2    4    4    0    0  0.25932420972E+03 -0.45342858677E+03  0.79182329048E+02  0.53451444543E+03  0.81174639460E+02 0.  0.
         13    1    3    3    0    0  0.42264767141E+02  0.92233367448E+02  0.73153071391E+02  0.12507868110E+03  0.00000000000E+00 0. -1.
        -13    1    3    3    0    0  0.97773758628E+02  0.26048043344E+03  0.37533655227E+02  0.28074639687E+03  0.00000000000E+00 0.  1.
          4    1    6    6  502    0  0.83722774575E+02 -0.17236268890E+03 -0.81336713258E+01  0.19179300330E+03  0.00000000000E+00 0. -1.
          1    1    5    5  503    0 -0.85149351516E+02  0.10775482537E+02  0.12474765013E+03  0.15142159456E+03  0.00000000000E+00 0. -1.
         -2    1    5    5    0  503 -0.31421338398E+03  0.89939303349E+02  0.26095267892E+03  0.41822892008E+03  0.00000000000E+00 0.  1.
         -3    1    6    6    0  502  0.17560143515E+03 -0.28106589788E+03  0.87316000374E+02  0.34272144213E+03  0.00000000000E+00 0.  1.
<mgrwt>
<rscale>  0 0.13959906E+04</rscale>
<asrwt>0</asrwt>
<pdfrwt beam="1">  1        1 0.16042765E+00 0.13959906E+04</pdfrwt>
<pdfrwt beam="2">  1       -1 0.71878512E-01 0.13959906E+04</pdfrwt>
<totfact> 0.26711710E+01</totfact>
</mgrwt>
</event>
<event>
12    1  0.1536832E-007  0.1392632E+04  0.7818608E-02  0.8959169E-01
          2   -1    0    0  501    0  0.00000000000E+00  0.00000000000E+00  0.11416051138E+04  0.11416051138E+04  0.00000000000E+00 0. -1.
         -2   -1    0    0    0  501 -0.00000000000E+00 -0.00000000000E+00 -0.42471437458E+03  0.42471437458E+03  0.00000000000E+00 0.  1.
         23    2    1    2    0    0 -0.16594547526E+03 -0.30601752347E+02 -0.18843715385E+03  0.26997330491E+03  0.94353889186E+02 0.  0.
        254    2    1    2    0    0  0.16594547526E+03  0.30601752347E+02  0.90532789306E+03  0.12963461835E+04  0.91237079381E+03 0.  0.
        -24    2    4    4    0    0  0.44844983624E+03 -0.51229184697E+02  0.14919734594E+03  0.48109718607E+03  0.73911903059E+02 0.  0.
         24    2    4    4    0    0 -0.28250436098E+03  0.81830937044E+02  0.75613054711E+03  0.81524899738E+03  0.79953156430E+02 0.  0.
         13    1    3    3    0    0 -0.15058560963E+03  0.53383468728E+01 -0.16867526947E+03  0.22617663519E+03  0.00000000000E+00 0.  1.
        -13    1    3    3    0    0 -0.15359865635E+02 -0.35940099220E+02 -0.19761884381E+02  0.43796669720E+02  0.00000000000E+00 0. -1.
          2    1    6    6  502    0 -0.23121563515E+03  0.95169874012E+02  0.58769189326E+03  0.63867028760E+03  0.00000000000E+00 0. -1.
          1    1    5    5  503    0  0.29915737336E+03 -0.59386815912E+02  0.74504724601E+02  0.31396318563E+03  0.00000000000E+00 0. -1.
         -2    1    5    5    0  503  0.14929246288E+03  0.81576312145E+01  0.74692621343E+02  0.16713400044E+03  0.00000000000E+00 0.  1.
         -1    1    6    6    0  502 -0.51288725829E+02 -0.13338936968E+02  0.16843865385E+03  0.17657870978E+03  0.00000000000E+00 0.  1.
<mgrwt>
<rscale>  0 0.13926322E+04</rscale>
<asrwt>0</asrwt>
<pdfrwt beam="1">  1        2 0.17563155E+00 0.13926322E+04</pdfrwt>
<pdfrwt beam="2">  1       -2 0.65340674E-01 0.13926322E+04</pdfrwt>
<totfact> 0.43188491E+01</totfact>
</mgrwt>
</event>
<event>
12    1  0.1536832E-007  0.1947058E+04  0.7818608E-02  0.8631781E-01
          1   -1    0    0  501    0  0.00000000000E+00  0.00000000000E+00  0.16966405722E+04  0.16966405722E+04  0.00000000000E+00 0. -1.
         -1   -1    0    0    0  501 -0.00000000000E+00 -0.00000000000E+00 -0.55860901761E+03  0.55860901761E+03  0.00000000000E+00 0.  1.
         23    2    1    2    0    0  0.24103202655E+03  0.38250510087E+03  0.11904824463E+04  0.12769909161E+04  0.95135455718E+02 0.  0.
        254    2    1    2    0    0 -0.24103202655E+03 -0.38250510087E+03 -0.52450891688E+02  0.97825867369E+03  0.86592860364E+03 0.  0.
        -24    2    4    4    0    0  0.34036325672E+02  0.96886539754E+02 -0.32979408636E+03  0.35498902605E+03  0.81899915555E+02 0.  0.
         24    2    4    4    0    0 -0.27506835222E+03 -0.47939164062E+03  0.27734319468E+03  0.62326964764E+03  0.77890067036E+02 0.  0.
         13    1    3    3    0    0  0.19378723970E+03  0.34312941507E+03  0.10914907776E+04  0.11604496574E+04  0.00000000000E+00 0. -1.
        -13    1    3    3    0    0  0.47244786851E+02  0.39375685795E+02  0.98991668649E+02  0.11654125870E+03  0.00000000000E+00 0.  1.
          4    1    6    6  502    0 -0.53140489598E+02 -0.86963022068E+02  0.19029624044E+02  0.10367548135E+03  0.00000000000E+00 0. -1.
          1    1    5    5  503    0 -0.98575363844E+01  0.61163057650E+01 -0.13637787331E+03  0.13687039325E+03  0.00000000000E+00 0. -1.
         -2    1    5    5    0  503  0.43893862057E+02  0.90770233989E+02 -0.19341621306E+03  0.21811863281E+03  0.00000000000E+00 0.  1.
         -3    1    6    6    0  502 -0.22192786263E+03 -0.39242861855E+03  0.25831357063E+03  0.51959416629E+03  0.00000000000E+00 0.  1.
<mgrwt>
<rscale>  0 0.19470580E+04</rscale>
<asrwt>0</asrwt>
<pdfrwt beam="1">  1        1 0.26102162E+00 0.19470580E+04</pdfrwt>
<pdfrwt beam="2">  1       -1 0.85939849E-01 0.19470580E+04</pdfrwt>
<totfact> 0.59676525E+00</totfact>
</mgrwt>
</event>
<event>
12    1  0.1536832E-007  0.1570733E+04  0.7818608E-02  0.8838732E-01
         -2   -1    0    0    0  501 -0.00000000000E+00  0.00000000000E+00  0.24945987744E+03  0.24945987744E+03  0.00000000000E+00 0.  1.
          2   -1    0    0  501    0  0.00000000000E+00 -0.00000000000E+00 -0.24725443759E+04  0.24725443759E+04  0.00000000000E+00 0. -1.
         23    2    1    2    0    0 -0.63303507500E+02 -0.17652781877E+02 -0.16863550743E+04  0.16900767050E+04  0.90812320799E+02 0.  0.
        254    2    1    2    0    0  0.63303507500E+02  0.17652781877E+02 -0.53672942423E+03  0.10319275483E+04  0.87890672738E+03 0.  0.
        -24    2    4    4    0    0 -0.36703200607E+02 -0.41454253110E+03 -0.19503111204E+03  0.46663688364E+03  0.80747826467E+02 0.  0.
         24    2    4    4    0    0  0.10000670811E+03  0.43219531298E+03 -0.34169831218E+03  0.56529066471E+03  0.77470438408E+02 0.  0.
         11    1    3    3    0    0 -0.50146799548E+02 -0.53545812245E+02 -0.10299388198E+04  0.10325482206E+04  0.00000000000E+00 0. -1.
        -11    1    3    3    0    0 -0.13156707952E+02  0.35893030368E+02 -0.65641625450E+03  0.65752848438E+03  0.00000000000E+00 0.  1.
          2    1    6    6  502    0  0.16945412666E+02  0.21658041014E+03 -0.19239653022E+03  0.29019070611E+03  0.00000000000E+00 0. -1.
          1    1    5    5  503    0 -0.29020964773E+02 -0.18259922681E+03 -0.44985776785E+02  0.19028508650E+03  0.00000000000E+00 0. -1.
         -4    1    5    5    0  503 -0.76822358345E+01 -0.23194330429E+03 -0.15004533526E+03  0.27635179714E+03  0.00000000000E+00 0.  1.
         -1    1    6    6    0  502  0.83061295442E+02  0.21561490283E+03 -0.14930178196E+03  0.27509995860E+03  0.00000000000E+00 0.  1.
<mgrwt>
<rscale>  0 0.15707331E+04</rscale>
<asrwt>0</asrwt>
<pdfrwt beam="1">  1        2 0.38039142E+00 0.15707331E+04</pdfrwt>
<pdfrwt beam="2">  1       -2 0.38378445E-01 0.15707331E+04</pdfrwt>
<totfact> 0.22300631E+01</totfact>
</mgrwt>
</event>
<event>
12    1  0.1536832E-007  0.1904305E+04  0.7818608E-02  0.8652717E-01
          1   -1    0    0  501    0  0.00000000000E+00  0.00000000000E+00  0.11401731864E+04  0.11401731864E+04  0.00000000000E+00 0. -1.
         -1   -1    0    0    0  501 -0.00000000000E+00 -0.00000000000E+00 -0.79513737282E+03  0.79513737282E+03  0.00000000000E+00 0.  1.
         23    2    1    2    0    0 -0.61377781742E+03  0.39906487361E+03  0.18958805142E+03  0.76171650404E+03  0.91062729912E+02 0.  0.
        254    2    1    2    0    0  0.61377781742E+03 -0.39906487361E+03  0.15544776215E+03  0.11735940552E+04  0.90398175705E+03 0.  0.
        -24    2    4    4    0    0 -0.20299849125E+02  0.20200998508E+02  0.36853251974E+03  0.37988372210E+03  0.87608561203E+02 0.  0.
         24    2    4    4    0    0  0.63407766654E+03 -0.41926587211E+03 -0.21308475760E+03  0.79371033307E+03  0.82052545166E+02 0.  0.
         11    1    3    3    0    0 -0.13598695714E+02  0.18905262752E+02  0.21410045229E+02  0.31634214414E+02  0.00000000000E+00 0. -1.
        -11    1    3    3    0    0 -0.60017912170E+03  0.38015961085E+03  0.16817800619E+03  0.73008228962E+03  0.00000000000E+00 0.  1.
          4    1    6    6  502    0  0.30989419363E+03 -0.16430402662E+03 -0.12174809557E+03  0.37128536624E+03  0.00000000000E+00 0. -1.
          3    1    5    5  503    0  0.20210419436E+02 -0.12145524514E+02  0.24196590587E+03  0.24311206145E+03  0.00000000000E+00 0. -1.
         -4    1    5    5    0  503 -0.40510268561E+02  0.32346523022E+02  0.12656661388E+03  0.13677166066E+03  0.00000000000E+00 0.  1.
         -3    1    6    6    0  502  0.32418347291E+03 -0.25496184550E+03 -0.91336662025E+02  0.42242496682E+03  0.00000000000E+00 0.  1.
<mgrwt>
<rscale>  0 0.19043049E+04</rscale>
<asrwt>0</asrwt>
<pdfrwt beam="1">  1        1 0.17541126E+00 0.19043049E+04</pdfrwt>
<pdfrwt beam="2">  1       -1 0.12232883E+00 0.19043049E+04</pdfrwt>
<totfact> 0.65335717E+00</totfact>
</mgrwt>
</event>
<event>
12    1  0.1682533E-007  0.2572399E+04  0.7818608E-02  0.8377638E-01
         -2   -1    0    0    0  501 -0.00000000000E+00  0.00000000000E+00  0.11693220553E+04  0.11693220553E+04  0.00000000000E+00 0.  1.
          2   -1    0    0  501    0  0.00000000000E+00 -0.00000000000E+00 -0.14147589304E+04  0.14147589304E+04  0.00000000000E+00 0. -1.
         23    2    1    2    0    0  0.83668195523E+03 -0.21421013015E+03 -0.82015616993E+03  0.11945539542E+04  0.91544155148E+02 0.  0.
        254    2    1    2    0    0 -0.83668195523E+03  0.21421013015E+03  0.57471929477E+03  0.13895270315E+04  0.92442437730E+03 0.  0.
        -24    2    4    4    0    0 -0.92779865854E+03  0.14875759623E+03  0.72276745894E+03  0.11881319284E+04  0.79533051311E+02 0.  0.
         24    2    4    4    0    0  0.91116703318E+02  0.65452533919E+02 -0.14804816417E+03  0.20139510311E+03  0.77816712999E+02 0.  0.
         11    1    3    3    0    0  0.50465178996E+02 -0.36955603691E+02 -0.60243793051E+02  0.86843339045E+02  0.00000000000E+00 0.  1.
        -11    1    3    3    0    0  0.78621677623E+03 -0.17725452646E+03 -0.75991237688E+03  0.11077106151E+04  0.00000000000E+00 0. -1.
          2    1    6    6  502    0  0.35970509224E+02  0.14713571132E+02 -0.40611742245E+01  0.39075054003E+02  0.00000000000E+00 0. -1.
          3    1    5    5  503    0 -0.25244672050E+03  0.70408114587E+02  0.17637946555E+03  0.31590562698E+03  0.00000000000E+00 0. -1.
         -4    1    5    5    0  503 -0.67535193805E+03  0.78349481642E+02  0.54638799339E+03  0.87222630138E+03  0.00000000000E+00 0.  1.
         -1    1    6    6    0  502  0.55146194094E+02  0.50738962787E+02 -0.14398698995E+03  0.16232004911E+03  0.00000000000E+00 0.  1.
<mgrwt>
<rscale>  0 0.25723987E+04</rscale>
<asrwt>0</asrwt>
<pdfrwt beam="1">  1        2 0.21765522E+00 0.25723987E+04</pdfrwt>
<pdfrwt beam="2">  1       -2 0.17989570E+00 0.25723987E+04</pdfrwt>
<totfact> 0.22855600E+00</totfact>
</mgrwt>
</event>
<event>
12    1  0.1536832E-007  0.2055713E+04  0.7818608E-02  0.8581007E-01
         -1   -1    0    0    0  501 -0.00000000000E+00  0.00000000000E+00  0.52593072985E+03  0.52593072985E+03  0.00000000000E+00 0.  1.
          1   -1    0    0  501    0  0.00000000000E+00 -0.00000000000E+00 -0.20087994901E+04  0.20087994901E+04  0.00000000000E+00 0. -1.
         23    2    1    2    0    0  0.22959353674E+03 -0.37575576579E+03  0.26458206575E+03  0.52223950781E+03  0.93940653367E+02 0.  0.
        254    2    1    2    0    0 -0.22959353674E+03  0.37575576579E+03 -0.17474508261E+04  0.20124907122E+04  0.89589557961E+03 0.  0.
        -24    2    4    4    0    0  0.17232928321E+02 -0.28051536279E+03 -0.52382468427E+03  0.60023889618E+03  0.83117928602E+02 0.  0.
         24    2    4    4    0    0 -0.24682646506E+03  0.65627112859E+03 -0.12236261418E+04  0.14122518160E+04  0.74693767587E+02 0.  0.
         13    1    3    3    0    0  0.89236420565E+01 -0.81256089162E+02  0.38693259102E+02  0.90439768428E+02  0.00000000000E+00 0. -1.
        -13    1    3    3    0    0  0.22066989469E+03 -0.29449967663E+03  0.22588880665E+03  0.43179973938E+03  0.00000000000E+00 0.  1.
          4    1    6    6  502    0 -0.42044740869E+02  0.20072255016E+03 -0.33054445532E+03  0.38899478058E+03  0.00000000000E+00 0. -1.
          1    1    5    5  503    0 -0.79627574881E+00 -0.67873876467E+02 -0.63935724403E+02  0.93248453159E+02  0.00000000000E+00 0. -1.
         -2    1    5    5    0  503  0.18029204070E+02 -0.21264148633E+03 -0.45988895987E+03  0.50699044302E+03  0.00000000000E+00 0.  1.
         -3    1    6    6    0  502 -0.20478172419E+03  0.45554857842E+03 -0.89308168646E+03  0.10232570354E+04  0.00000000000E+00 0.  1.
<mgrwt>
<rscale>  0 0.20557134E+04</rscale>
<asrwt>0</asrwt>
<pdfrwt beam="1">  1        1 0.30904607E+00 0.20557134E+04</pdfrwt>
<pdfrwt beam="2">  1       -1 0.80912420E-01 0.20557134E+04</pdfrwt>
<totfact> 0.41311465E+00</totfact>
</mgrwt>
</event>
<event>
12    1  0.1536832E-007  0.1310133E+04  0.7818608E-02  0.9021568E-01
          2   -1    0    0  501    0  0.00000000000E+00  0.00000000000E+00  0.12587586908E+04  0.12587586908E+04  0.00000000000E+00 0. -1.
         -2   -1    0    0    0  501 -0.00000000000E+00 -0.00000000000E+00 -0.34090121117E+03  0.34090121117E+03  0.00000000000E+00 0.  1.
         23    2    1    2    0    0 -0.19706709821E+03  0.17746820060E+03 -0.15579340469E+02  0.28048540754E+03  0.89994136325E+02 0.  0.
        254    2    1    2    0    0  0.19706709821E+03 -0.17746820060E+03  0.93343682012E+03  0.13191744944E+04  0.89363675295E+03 0.  0.
        -24    2    4    4    0    0  0.16166297296E+03 -0.23801629689E+02 -0.14086600952E+03  0.23042874991E+03  0.80949007076E+02 0.  0.
         24    2    4    4    0    0  0.35404125244E+02 -0.15366657091E+03  0.10743028296E+04  0.10887457445E+04  0.79836453859E+02 0.  0.
         11    1    3    3    0    0  0.16736824199E+00  0.32211172318E+02  0.11134971412E+02  0.34081889950E+02  0.00000000000E+00 0. -1.
        -11    1    3    3    0    0 -0.19723446645E+03  0.14525702828E+03 -0.26714311881E+02  0.24640351759E+03  0.00000000000E+00 0.  1.
          2    1    6    6  502    0 -0.54714482277E+01 -0.24812519795E+02  0.41227279153E+03  0.41305502360E+03  0.00000000000E+00 0. -1.
          3    1    5    5  503    0  0.55421129594E+02 -0.44795135127E+02 -0.76042634794E+02  0.10421414512E+03  0.00000000000E+00 0. -1.
         -4    1    5    5    0  503  0.10624184337E+03  0.20993505438E+02 -0.64823374723E+02  0.12621460480E+03  0.00000000000E+00 0.  1.
         -1    1    6    6    0  502  0.40875573472E+02 -0.12885405112E+03  0.66203003811E+03  0.67569072093E+03  0.00000000000E+00 0.  1.
<mgrwt>
<rscale>  0 0.13101334E+04</rscale>
<asrwt>0</asrwt>
<pdfrwt beam="1">  1        2 0.19365518E+00 0.13101334E+04</pdfrwt>
<pdfrwt beam="2">  1       -2 0.52446341E-01 0.13101334E+04</pdfrwt>
<totfact> 0.58724087E+01</totfact>
</mgrwt>
</event>
<event>
12    1  0.1536832E-007  0.1913751E+04  0.7818608E-02  0.8648042E-01
         -2   -1    0    0    0  501 -0.00000000000E+00  0.00000000000E+00  0.82729069656E+03  0.82729069656E+03  0.00000000000E+00 0.  1.
          2   -1    0    0  501    0  0.00000000000E+00 -0.00000000000E+00 -0.11067585713E+04  0.11067585713E+04  0.00000000000E+00 0. -1.
         23    2    1    2    0    0 -0.96712948094E+02  0.46989227866E+02  0.63253192517E+03  0.64834343502E+03  0.93226560153E+02 0.  0.
        254    2    1    2    0    0  0.96712948094E+02 -0.46989227866E+02 -0.91199979989E+03  0.12857058328E+04  0.89985247218E+03 0.  0.
        -24    2    4    4    0    0  0.34088046545E+03 -0.32649287450E+03 -0.70749146936E+03  0.85431483583E+03  0.80700499855E+02 0.  0.
         24    2    4    4    0    0 -0.24416751736E+03  0.27950364664E+03 -0.20450833053E+03  0.43139099699E+03  0.80836068734E+02 0.  0.
         11    1    3    3    0    0  0.12928302404E+02 -0.53315546286E+01  0.23775248501E+02  0.27583127435E+02  0.00000000000E+00 0. -1.
        -11    1    3    3    0    0 -0.10964125050E+03  0.52320782495E+02  0.60875667666E+03  0.62076030759E+03  0.00000000000E+00 0.  1.
          2    1    6    6  502    0 -0.42256416497E+02  0.22696513425E+02 -0.52394896835E+02  0.71034932753E+02  0.00000000000E+00 0. -1.
          3    1    5    5  503    0  0.71155080370E+02 -0.41452371455E+02 -0.84207289696E+02  0.11778035575E+03  0.00000000000E+00 0. -1.
         -4    1    5    5    0  503  0.26972538508E+03 -0.28504050305E+03 -0.62328417966E+03  0.73653448009E+03  0.00000000000E+00 0.  1.
         -3    1    6    6    0  502 -0.20191110086E+03  0.25680713321E+03 -0.15211343370E+03  0.36035606423E+03  0.00000000000E+00 0.  1.
<mgrwt>
<rscale>  0 0.19137514E+04</rscale>
<asrwt>0</asrwt>
<pdfrwt beam="1">  1        2 0.17027055E+00 0.19137514E+04</pdfrwt>
<pdfrwt beam="2">  1       -2 0.12727549E+00 0.19137514E+04</pdfrwt>
<totfact> 0.92504042E+00</totfact>
</mgrwt>
</event>
<event>
12    1  0.1536832E-007  0.1234391E+04  0.7818608E-02  0.9083275E-01
          2   -1    0    0  501    0  0.00000000000E+00  0.00000000000E+00  0.21723379585E+04  0.21723379585E+04  0.00000000000E+00 0. -1.
         -2   -1    0    0    0  501 -0.00000000000E+00 -0.00000000000E+00 -0.17535503621E+03  0.17535503621E+03  0.00000000000E+00 0.  1.
         23    2    1    2    0    0 -0.28833132203E+02  0.80941093961E+02  0.96363306792E+03  0.97174728000E+03  0.91221030489E+02 0.  0.
        254    2    1    2    0    0  0.28833132203E+02 -0.80941093961E+02  0.10333498544E+04  0.13759457147E+04  0.90445114742E+03 0.  0.
        -24    2    4    4    0    0 -0.40804079885E+03 -0.16687186782E+03  0.59760315285E+03  0.74722950513E+03  0.82939081554E+02 0.  0.
         24    2    4    4    0    0  0.43687393106E+03  0.85930773862E+02  0.43574670155E+03  0.62871620959E+03  0.84651962505E+02 0.  0.
         11    1    3    3    0    0 -0.45888461581E+02  0.73700638906E+02  0.48191156920E+03  0.48966957800E+03  0.00000000000E+00 0.  1.
        -11    1    3    3    0    0  0.17055329378E+02  0.72404550549E+01  0.48172149872E+03  0.48207770201E+03  0.00000000000E+00 0. -1.
          4    1    6    6  502    0  0.46352371219E+02  0.23836673767E+00  0.85184209208E+02  0.96979114426E+02  0.00000000000E+00 0. -1.
          1    1    5    5  503    0 -0.89918732040E+01  0.87032486324E+01  0.14223265442E+02  0.18944698475E+02  0.00000000000E+00 0. -1.
         -2    1    5    5    0  503 -0.39904892565E+03 -0.17557511645E+03  0.58337988740E+03  0.72828480666E+03  0.00000000000E+00 0.  1.
         -3    1    6    6    0  502  0.39052155984E+03  0.85692407124E+02  0.35056249234E+03  0.53173709516E+03  0.00000000000E+00 0.  1.
<mgrwt>
<rscale>  0 0.12343912E+04</rscale>
<asrwt>0</asrwt>
<pdfrwt beam="1">  1        2 0.33420582E+00 0.12343912E+04</pdfrwt>
<pdfrwt beam="2">  1       -2 0.26977699E-01 0.12343912E+04</pdfrwt>
<totfact> 0.65940289E+01</totfact>
</mgrwt>
</event>
<event>
12    1  0.1536832E-007  0.1541935E+04  0.7818608E-02  0.8857036E-01
          2   -1    0    0  501    0  0.00000000000E+00  0.00000000000E+00  0.13748579720E+04  0.13748579720E+04  0.00000000000E+00 0. -1.
         -2   -1    0    0    0  501 -0.00000000000E+00 -0.00000000000E+00 -0.43232871815E+03  0.43232871815E+03  0.00000000000E+00 0.  1.
         23    2    1    2    0    0  0.51063464194E+02 -0.29290114550E+03  0.78748527861E+03  0.84635192629E+03  0.88204085493E+02 0.  0.
        254    2    1    2    0    0 -0.51063464194E+02  0.29290114550E+03  0.15504397527E+03  0.96083476390E+03  0.90042559428E+03 0.  0.
        -24    2    4    4    0    0 -0.44957753213E+03  0.19532774454E+02  0.57802129381E+02  0.46099005055E+03  0.81665499895E+02 0.  0.
         24    2    4    4    0    0  0.39851406793E+03  0.27336837105E+03  0.97241845891E+02  0.49984471335E+03  0.82734710026E+02 0.  0.
         11    1    3    3    0    0  0.37375953830E+02 -0.29392800349E+03  0.74782019001E+03  0.80437905850E+03  0.00000000000E+00 0. -1.
        -11    1    3    3    0    0  0.13687510364E+02  0.10268579890E+01  0.39665088599E+02  0.41972867794E+02  0.00000000000E+00 0.  1.
          4    1    6    6  502    0  0.64965992906E+02  0.64060163806E+02 -0.98299677748E+01  0.91765533222E+02  0.00000000000E+00 0. -1.
          3    1    5    5  503    0 -0.21472860798E+03  0.48677408229E+02  0.16832190843E+02  0.22081935559E+03  0.00000000000E+00 0. -1.
         -4    1    5    5    0  503 -0.23484892415E+03 -0.29144633775E+02  0.40969938538E+02  0.24017069496E+03  0.00000000000E+00 0.  1.
         -3    1    6    6    0  502  0.33354807503E+03  0.20930820724E+03  0.10707181367E+03  0.40807918013E+03  0.00000000000E+00 0.  1.
<mgrwt>
<rscale>  0 0.15419346E+04</rscale>
<asrwt>0</asrwt>
<pdfrwt beam="1">  1        2 0.21151661E+00 0.15419346E+04</pdfrwt>
<pdfrwt beam="2">  1       -2 0.66512111E-01 0.15419346E+04</pdfrwt>
<totfact> 0.29932191E+01</totfact>
</mgrwt>
</event>
<event>
12    1  0.1536832E-007  0.2113694E+04  0.7818608E-02  0.8555235E-01
          1   -1    0    0  501    0  0.00000000000E+00  0.00000000000E+00  0.70320068455E+03  0.70320068455E+03  0.00000000000E+00 0. -1.
         -1   -1    0    0    0  501 -0.00000000000E+00 -0.00000000000E+00 -0.15883458427E+04  0.15883458427E+04  0.00000000000E+00 0.  1.
         23    2    1    2    0    0  0.55454002140E+03  0.65902744925E+03 -0.29309058814E+03  0.91422077600E+03  0.89809354843E+02 0.  0.
        254    2    1    2    0    0 -0.55454002140E+03 -0.65902744925E+03 -0.59205457002E+03  0.13773257513E+04  0.89703165888E+03 0.  0.
        -24    2    4    4    0    0 -0.21994332623E+03 -0.75273339362E+03 -0.64310755642E+03  0.10174165932E+04  0.81034352907E+02 0.  0.
         24    2    4    4    0    0 -0.33459669517E+03  0.93705944370E+02  0.51052986405E+02  0.35990915808E+03  0.78692072156E+02 0.  0.
         11    1    3    3    0    0  0.10165005920E+03  0.10164188026E+03 -0.16812203135E+02  0.14472890704E+03  0.00000000000E+00 0.  1.
        -11    1    3    3    0    0  0.45288996219E+03  0.55738556899E+03 -0.27627838500E+03  0.76949186896E+03  0.00000000000E+00 0. -1.
          2    1    6    6  502    0 -0.31724164054E+03  0.67197000345E+02  0.50719087035E+02  0.32822267006E+03  0.00000000000E+00 0. -1.
          1    1    5    5  503    0 -0.20451082630E+03 -0.73159301390E+03 -0.60468391167E+03  0.97092515113E+03  0.00000000000E+00 0. -1.
         -2    1    5    5    0  503 -0.15432499931E+02 -0.21140379712E+02 -0.38423644756E+02  0.46491442060E+02  0.00000000000E+00 0.  1.
         -1    1    6    6    0  502 -0.17355054625E+02  0.26508944024E+02  0.33389937011E+00  0.31686488021E+02  0.00000000000E+00 0.  1.
<mgrwt>
<rscale>  0 0.21136943E+04</rscale>
<asrwt>0</asrwt>
<pdfrwt beam="1">  1        1 0.10818472E+00 0.21136943E+04</pdfrwt>
<pdfrwt beam="2">  1       -1 0.24436090E+00 0.21136943E+04</pdfrwt>
<totfact> 0.18862680E+00</totfact>
</mgrwt>
</event>
<event>
12    1  0.1536832E-007  0.1645343E+04  0.7818608E-02  0.8793166E-01
          2   -1    0    0  501    0  0.00000000000E+00  0.00000000000E+00  0.27155690777E+04  0.27155690777E+04  0.00000000000E+00 0. -1.
         -2   -1    0    0    0  501 -0.00000000000E+00 -0.00000000000E+00 -0.24922526348E+03  0.24922526348E+03  0.00000000000E+00 0.  1.
         23    2    1    2    0    0 -0.88323392034E+02  0.20513035186E+03  0.18116782553E+04  0.18272801354E+04  0.83036798631E+02 0.  0.
        254    2    1    2    0    0  0.88323392034E+02 -0.20513035186E+03  0.65466555893E+03  0.11375142057E+04  0.90303493362E+03 0.  0.
        -24    2    4    4    0    0  0.12878902887E+03 -0.33369431030E+03 -0.90990891173E+02  0.37562596050E+03  0.69835615883E+02 0.  0.
         24    2    4    4    0    0 -0.40465636833E+02  0.12856395843E+03  0.74565645011E+03  0.76188824523E+03  0.79397716962E+02 0.  0.
         13    1    3    3    0    0 -0.76116379769E+02  0.21130224676E+03  0.17093561311E+04  0.17240477736E+04  0.00000000000E+00 0. -1.
        -13    1    3    3    0    0 -0.12207012266E+02 -0.61718948972E+01  0.10232212422E+03  0.10323236188E+03  0.00000000000E+00 0.  1.
          4    1    6    6  502    0  0.14071800440E+02  0.31116836547E+02  0.80827718654E+02  0.87746186168E+02  0.00000000000E+00 0. -1.
          3    1    5    5  503    0  0.50372540245E-01 -0.73437472552E+02 -0.94954674684E+01  0.74048827233E+02  0.00000000000E+00 0. -1.
         -4    1    5    5    0  503  0.12873865633E+03 -0.26025683774E+03 -0.81495423705E+02  0.30157713327E+03  0.00000000000E+00 0.  1.
         -3    1    6    6    0  502 -0.54537437272E+02  0.97447121885E+02  0.66482873145E+03  0.67414205906E+03  0.00000000000E+00 0.  1.
<mgrwt>
<rscale>  0 0.16453430E+04</rscale>
<asrwt>0</asrwt>
<pdfrwt beam="1">  1        2 0.41777984E+00 0.16453430E+04</pdfrwt>
<pdfrwt beam="2">  1       -2 0.38342350E-01 0.16453430E+04</pdfrwt>
<totfact> 0.16007530E+01</totfact>
</mgrwt>
</event>
<event>
12    1  0.1536832E-007  0.1351109E+04  0.7818608E-02  0.8989989E-01
         -1   -1    0    0    0  501 -0.00000000000E+00  0.00000000000E+00  0.36781188256E+03  0.36781188256E+03  0.00000000000E+00 0.  1.
          1   -1    0    0  501    0  0.00000000000E+00 -0.00000000000E+00 -0.12407802453E+04  0.12407802453E+04  0.00000000000E+00 0. -1.
         23    2    1    2    0    0 -0.28403196473E+03  0.20270091651E+03 -0.34366219932E+03  0.49856694966E+03  0.93292430073E+02 0.  0.
        254    2    1    2    0    0  0.28403196473E+03 -0.20270091651E+03 -0.52930616337E+03  0.11100251781E+04  0.91116906389E+03 0.  0.
        -24    2    4    4    0    0  0.10104220539E+03 -0.39191198574E+03 -0.68070630547E+03  0.79596944771E+03  0.80010971388E+02 0.  0.
         24    2    4    4    0    0  0.18298975934E+03  0.18921106922E+03  0.15140014210E+03  0.31405573044E+03  0.80143109842E+02 0.  0.
         11    1    3    3    0    0 -0.12556699483E+03  0.41022584864E+02 -0.15676090549E+03  0.20499732717E+03  0.00000000000E+00 0.  1.
        -11    1    3    3    0    0 -0.15846496991E+03  0.16167833165E+03 -0.18690129383E+03  0.29356962249E+03  0.00000000000E+00 0. -1.
          2    1    6    6  502    0  0.11071290528E+03  0.67863724471E+02  0.99448297033E+02  0.16356282059E+03  0.00000000000E+00 0. -1.
          3    1    5    5  503    0  0.10392070014E+03 -0.39106270120E+03 -0.65372070153E+03  0.76881747106E+03  0.00000000000E+00 0. -1.
         -4    1    5    5    0  503 -0.28784947429E+01 -0.84928453386E+00 -0.26985603939E+02  0.27151976653E+02  0.00000000000E+00 0.  1.
         -1    1    6    6    0  502  0.72276854059E+02  0.12134734475E+03  0.51951845062E+02  0.15049290985E+03  0.00000000000E+00 0.  1.
<mgrwt>
<rscale>  0 0.13511088E+04</rscale>
<asrwt>0</asrwt>
<pdfrwt beam="1">  1        1 0.19088927E+00 0.13511088E+04</pdfrwt>
<pdfrwt beam="2">  1       -1 0.56586442E-01 0.13511088E+04</pdfrwt>
<totfact> 0.30869537E+01</totfact>
</mgrwt>
</event>
<event>
12    1  0.1536832E-007  0.1353597E+04  0.7818608E-02  0.8988110E-01
          2   -1    0    0  501    0  0.00000000000E+00  0.00000000000E+00  0.12151390068E+04  0.12151390068E+04  0.00000000000E+00 0. -1.
         -2   -1    0    0    0  501 -0.00000000000E+00 -0.00000000000E+00 -0.37695764822E+03  0.37695764822E+03  0.00000000000E+00 0.  1.
         23    2    1    2    0    0  0.19173512486E+03  0.21160899812E+03  0.53295803426E+03  0.60958274847E+03  0.77499256508E+02 0.  0.
        254    2    1    2    0    0 -0.19173512486E+03 -0.21160899812E+03  0.30522332436E+03  0.98251390659E+03  0.88917465816E+03 0.  0.
        -24    2    4    4    0    0 -0.27103994280E+03 -0.33946645268E+03  0.53655523422E+03  0.69574326290E+03  0.86412067525E+02 0.  0.
         24    2    4    4    0    0  0.79304817939E+02  0.12785745456E+03 -0.23133190986E+03  0.28677064369E+03  0.78013888045E+02 0.  0.
         11    1    3    3    0    0  0.97279897281E+02  0.77018917584E+02  0.29805493017E+03  0.32284986213E+03  0.00000000000E+00 0.  1.
        -11    1    3    3    0    0  0.94455227582E+02  0.13459008054E+03  0.23490310409E+03  0.28673288634E+03  0.00000000000E+00 0. -1.
          4    1    6    6  502    0  0.37860299517E+02  0.11008025400E+03 -0.12261896556E+03  0.16907535395E+03  0.00000000000E+00 0. -1.
          1    1    5    5  503    0 -0.12653159386E+03 -0.20075040043E+03  0.34386422317E+03  0.41779608841E+03  0.00000000000E+00 0. -1.
         -2    1    5    5    0  503 -0.14450834894E+03 -0.13871605226E+03  0.19269101105E+03  0.27794717449E+03  0.00000000000E+00 0.  1.
         -3    1    6    6    0  502  0.41444518422E+02  0.17777200560E+02 -0.10871294430E+03  0.11769528973E+03  0.00000000000E+00 0.  1.
<mgrwt>
<rscale>  0 0.13535966E+04</rscale>
<asrwt>0</asrwt>
<pdfrwt beam="1">  1        2 0.18694446E+00 0.13535966E+04</pdfrwt>
<pdfrwt beam="2">  1       -2 0.57993485E-01 0.13535966E+04</pdfrwt>
<totfact> 0.50405129E+01</totfact>
</mgrwt>
</event>
<event>
12    1  0.1536832E-007  0.1527603E+04  0.7818608E-02  0.8866302E-01
         -2   -1    0    0    0  501 -0.00000000000E+00  0.00000000000E+00  0.84963317920E+03  0.84963317920E+03  0.00000000000E+00 0.  1.
          2   -1    0    0  501    0  0.00000000000E+00 -0.00000000000E+00 -0.68664058866E+03  0.68664058866E+03  0.00000000000E+00 0. -1.
         23    2    1    2    0    0  0.67823102734E+02  0.29765075546E+03 -0.33983061736E+03  0.46594577758E+03  0.91786021025E+02 0.  0.
        254    2    1    2    0    0 -0.67823102734E+02 -0.29765075546E+03  0.50282320790E+03  0.10703279903E+04  0.89418951173E+03 0.  0.
        -24    2    4    4    0    0  0.25296739368E+03  0.77894567412E+02 -0.93747566102E+02  0.29189264053E+03  0.79703460068E+02 0.  0.
         24    2    4    4    0    0 -0.32079049641E+03 -0.37554532287E+03  0.59657077400E+03  0.77843534975E+03  0.78256458051E+02 0.  0.
         11    1    3    3    0    0  0.81496373179E+02  0.24346956870E+03 -0.31028599840E+03  0.40273625430E+03  0.00000000000E+00 0. -1.
        -11    1    3    3    0    0 -0.13673270445E+02  0.54181186758E+02 -0.29544618960E+02  0.63209523275E+02  0.00000000000E+00 0.  1.
          2    1    6    6  502    0 -0.24837869450E+03 -0.23727428958E+03  0.39412570556E+03  0.52280602154E+03  0.00000000000E+00 0. -1.
          1    1    5    5  503    0  0.15185220568E+03  0.55194939554E+01 -0.55970709829E+02  0.16193294150E+03  0.00000000000E+00 0. -1.
         -2    1    5    5    0  503  0.10111518800E+03  0.72375073457E+02 -0.37776856274E+02  0.12995969903E+03  0.00000000000E+00 0.  1.
         -1    1    6    6    0  502 -0.72411801918E+02 -0.13827103329E+03  0.20244506845E+03  0.25562932821E+03  0.00000000000E+00 0.  1.
<mgrwt>
<rscale>  0 0.15276029E+04</rscale>
<asrwt>0</asrwt>
<pdfrwt beam="1">  1        2 0.10563701E+00 0.15276029E+04</pdfrwt>
<pdfrwt beam="2">  1       -2 0.13071280E+00 0.15276029E+04</pdfrwt>
<totfact> 0.17333103E+01</totfact>
</mgrwt>
</event>
<event>
12    1  0.1536832E-007  0.1174251E+04  0.7818608E-02  0.9135698E-01
         -3   -1    0    0    0  501 -0.00000000000E+00  0.00000000000E+00  0.14484098113E+03  0.14484098113E+03  0.00000000000E+00 0.  1.
          3   -1    0    0  501    0  0.00000000000E+00 -0.00000000000E+00 -0.23799651914E+04  0.23799651914E+04  0.00000000000E+00 0. -1.
         23    2    1    2    0    0 -0.20301203956E+03 -0.10912743166E+03 -0.41580291510E+03  0.48376811701E+03  0.89536820815E+02 0.  0.
        254    2    1    2    0    0  0.20301203956E+03  0.10912743166E+03 -0.18193212952E+04  0.20410380555E+04  0.89598196660E+03 0.  0.
        -24    2    4    4    0    0  0.27430707950E+03  0.28685875587E+03 -0.29091346930E+03  0.49860446400E+03  0.80271073321E+02 0.  0.
         24    2    4    4    0    0 -0.71295039942E+02 -0.17773132421E+03 -0.15284078259E+04  0.15424335915E+04  0.79996848294E+02 0.  0.
         13    1    3    3    0    0 -0.12238131003E+02 -0.25519041901E+02 -0.11129446372E+03  0.11483662745E+03  0.00000000000E+00 0. -1.
        -13    1    3    3    0    0 -0.19077390856E+03 -0.83608389763E+02 -0.30450845138E+03  0.36893148955E+03  0.00000000000E+00 0.  1.
          2    1    6    6  502    0  0.10992273736E+02 -0.73631748460E+02 -0.59564356792E+03  0.60027803930E+03  0.00000000000E+00 0. -1.
          3    1    5    5  503    0  0.24048283568E+03  0.27927164837E+03 -0.25184821215E+03  0.44637671288E+03  0.00000000000E+00 0. -1.
         -2    1    5    5    0  503  0.33824243822E+02  0.75871075016E+01 -0.39065257146E+02  0.52227751113E+02  0.00000000000E+00 0.  1.
         -1    1    6    6    0  502 -0.82287313678E+02 -0.10409957575E+03 -0.93276425798E+03  0.94215555225E+03  0.00000000000E+00 0.  1.
<mgrwt>
<rscale>  0 0.11742512E+04</rscale>
<asrwt>0</asrwt>
<pdfrwt beam="1">  1        3 0.36614847E+00 0.11742512E+04</pdfrwt>
<pdfrwt beam="2">  1       -3 0.22283229E-01 0.11742512E+04</pdfrwt>
<totfact> 0.83924111E-01</totfact>
</mgrwt>
</event>
<event>
12    1  0.1536832E-007  0.2030074E+04  0.7818608E-02  0.8592688E-01
          1   -1    0    0  501    0  0.00000000000E+00  0.00000000000E+00  0.14579088639E+04  0.14579088639E+04  0.00000000000E+00 0. -1.
         -1   -1    0    0    0  501 -0.00000000000E+00 -0.00000000000E+00 -0.70669687374E+03  0.70669687374E+03  0.00000000000E+00 0.  1.
         23    2    1    2    0    0 -0.11043344277E+03  0.37465445242E+03  0.10661686541E+04  0.11392920052E+04  0.93322935124E+02 0.  0.
        254    2    1    2    0    0  0.11043344277E+03 -0.37465445242E+03 -0.31495666393E+03  0.10253137324E+04  0.89415269707E+03 0.  0.
        -24    2    4    4    0    0  0.14660348410E+03 -0.17319757328E+02 -0.55937645259E+03  0.58375084038E+03  0.77913236244E+02 0.  0.
         24    2    4    4    0    0 -0.36170041324E+02 -0.35733469510E+03  0.24441978866E+03  0.44156289202E+03  0.78996191781E+02 0.  0.
         11    1    3    3    0    0 -0.86868491758E+02  0.36013567850E+03  0.94544225684E+03  0.10154333571E+04  0.00000000000E+00 0. -1.
        -11    1    3    3    0    0 -0.23564951015E+02  0.14518773920E+02  0.12072639723E+03  0.12385864807E+03  0.00000000000E+00 0.  1.
          4    1    6    6  502    0  0.85897461860E+01 -0.26493597495E+03  0.17569012481E+03  0.31801238108E+03  0.00000000000E+00 0. -1.
          1    1    5    5  503    0  0.69208614939E+01 -0.73365472087E+01 -0.37691079555E+01  0.10767052686E+02  0.00000000000E+00 0. -1.
         -2    1    5    5    0  503  0.13968262260E+03 -0.99832101194E+01 -0.55560734464E+03  0.57298378769E+03  0.00000000000E+00 0.  1.
         -3    1    6    6    0  502 -0.44759787510E+02 -0.92398720145E+02  0.68729663849E+02  0.12355051095E+03  0.00000000000E+00 0.  1.
<mgrwt>
<rscale>  0 0.20300735E+04</rscale>
<asrwt>0</asrwt>
<pdfrwt beam="1">  1        1 0.22429367E+00 0.20300735E+04</pdfrwt>
<pdfrwt beam="2">  1       -1 0.10872260E+00 0.20300735E+04</pdfrwt>
<totfact> 0.50797618E+00</totfact>
</mgrwt>
</event>
<event>
12    1  0.1536832E-007  0.1252890E+04  0.7818608E-02  0.9067781E-01
          1   -1    0    0  501    0  0.00000000000E+00  0.00000000000E+00  0.51569788120E+03  0.51569788120E+03  0.00000000000E+00 0.  1.
         -1   -1    0    0    0  501 -0.00000000000E+00 -0.00000000000E+00 -0.76097585676E+03  0.76097585676E+03  0.00000000000E+00 0. -1.
         23    2    1    2    0    0 -0.29909104506E+02 -0.16104816337E+03  0.19645508236E+03  0.27167888447E+03  0.91562827726E+02 0.  0.
        254    2    1    2    0    0  0.29909104506E+02  0.16104816337E+03 -0.44173305793E+03  0.10049948535E+04  0.88772489861E+03 0.  0.
        -24    2    4    4    0    0 -0.34113890243E+03  0.58195357953E+02  0.67775225843E+02  0.36133257057E+03  0.78773694114E+02 0.  0.
         24    2    4    4    0    0  0.37104800693E+03  0.10285280542E+03 -0.50950828377E+03  0.64366228292E+03  0.80293961081E+02 0.  0.
         13    1    3    3    0    0 -0.32510066683E+02 -0.26377250972E+02  0.12517148716E+02  0.43696027469E+02  0.00000000000E+00 0. -1.
        -13    1    3    3    0    0  0.26009621766E+01 -0.13467091240E+03  0.18393793365E+03  0.22798285700E+03  0.00000000000E+00 0.  1.
          4    1    6    6  502    0  0.17917935564E+01  0.12092340264E+02 -0.24369471918E+02  0.27263645735E+02  0.00000000000E+00 0. -1.
          1    1    5    5  503    0 -0.13792025170E+03 -0.27515174259E+01  0.55887174597E+02  0.14883864740E+03  0.00000000000E+00 0. -1.
         -2    1    5    5    0  503 -0.20321865073E+03  0.60946875379E+02  0.11888051246E+02  0.21249392317E+03  0.00000000000E+00 0.  1.
         -3    1    6    6    0  502  0.36925621338E+03  0.90760465155E+02 -0.48513881185E+03  0.61639863718E+03  0.00000000000E+00 0.  1.
<mgrwt>
<rscale>  0 0.12528905E+04</rscale>
<asrwt>0</asrwt>
<pdfrwt beam="1">  1        1 0.79338136E-01 0.12528905E+04</pdfrwt>
<pdfrwt beam="2">  1       -1 0.11707321E+00 0.12528905E+04</pdfrwt>
<totfact> 0.27535854E+01</totfact>
</mgrwt>
</event>
<event>
12    1  0.1536832E-007  0.1556521E+04  0.7818608E-02  0.8847713E-01
         -2   -1    0    0    0  501 -0.00000000000E+00  0.00000000000E+00  0.10506836507E+04  0.10506836507E+04  0.00000000000E+00 0. -1.
          2   -1    0    0  501    0  0.00000000000E+00 -0.00000000000E+00 -0.57647160073E+03  0.57647160073E+03  0.00000000000E+00 0.  1.
         23    2    1    2    0    0 -0.25248728369E+03  0.30022057124E+03 -0.13652140256E+03  0.42504368273E+03  0.90232028928E+02 0.  0.
        254    2    1    2    0    0  0.25248728369E+03 -0.30022057124E+03  0.61073345258E+03  0.12021115688E+04  0.95822474077E+03 0.  0.
        -24    2    4    4    0    0  0.53540579012E+02 -0.20913316900E+03 -0.23267644383E+03  0.32682712503E+03  0.77938220170E+02 0.  0.
         24    2    4    4    0    0  0.19894670468E+03 -0.91087402244E+02  0.84340989640E+03  0.87528444373E+03  0.83101732444E+02 0.  0.
         11    1    3    3    0    0  0.51632253742E+00  0.11629480736E+02  0.88710681546E+01  0.14635821171E+02  0.00000000000E+00 0. -1.
        -11    1    3    3    0    0 -0.25300360623E+03  0.28859109051E+03 -0.14539247072E+03  0.41040786156E+03  0.00000000000E+00 0.  1.
          4    1    6    6  502    0  0.20426443157E+03 -0.96317178749E+02  0.80115266753E+03  0.83237404670E+03  0.00000000000E+00 0. -1.
          3    1    5    5  503    0  0.29548811431E+02 -0.13669137331E+03 -0.19945518205E+03  0.24359809818E+03  0.00000000000E+00 0. -1.
         -4    1    5    5    0  503  0.23991767580E+02 -0.72441795690E+02 -0.33221261782E+02  0.83229026841E+02  0.00000000000E+00 0.  1.
         -3    1    6    6    0  502 -0.53177268850E+01  0.52297765045E+01  0.42257228876E+02  0.42910397036E+02  0.00000000000E+00 0.  1.
<mgrwt>
<rscale>  0 0.15565208E+04</rscale>
<asrwt>0</asrwt>
<pdfrwt beam="1">  1        2 0.88687939E-01 0.15565208E+04</pdfrwt>
<pdfrwt beam="2">  1       -2 0.16164364E+00 0.15565208E+04</pdfrwt>
<totfact> 0.12255556E+01</totfact>
</mgrwt>
</event>
<event>
12    1  0.1536832E-007  0.1420077E+04  0.7818608E-02  0.8939413E-01
         -1   -1    0    0    0  501 -0.00000000000E+00  0.00000000000E+00  0.25993050869E+03  0.25993050869E+03  0.00000000000E+00 0.  1.
          1   -1    0    0  501    0  0.00000000000E+00 -0.00000000000E+00 -0.19395742234E+04  0.19395742234E+04  0.00000000000E+00 0. -1.
         23    2    1    2    0    0 -0.12021982583E+03  0.13400132714E+03 -0.11004897044E+04  0.11188746113E+04  0.91616833398E+02 0.  0.
        254    2    1    2    0    0  0.12021982583E+03 -0.13400132714E+03 -0.57915401029E+03  0.10806301208E+04  0.89438969586E+03 0.  0.
        -24    2    4    4    0    0  0.32454940042E+03 -0.34303269995E+02  0.10732409527E+03  0.35310135989E+03  0.81566422532E+02 0.  0.
         24    2    4    4    0    0 -0.20432957459E+03 -0.99698057142E+02 -0.68647810556E+03  0.72752876087E+03  0.79722210391E+02 0.  0.
         11    1    3    3    0    0 -0.36106808822E+02  0.10121368515E+03 -0.48221634354E+03  0.49404505228E+03  0.00000000000E+00 0.  1.
        -11    1    3    3    0    0 -0.84113017006E+02  0.32787641987E+02 -0.61827336088E+03  0.62482955905E+03  0.00000000000E+00 0. -1.
          2    1    6    6  502    0 -0.16563978593E+03 -0.79975553656E+02 -0.62989756609E+03  0.65620391010E+03  0.00000000000E+00 0. -1.
          1    1    5    5  503    0  0.28186013588E+03 -0.26562741865E+02  0.12060670187E+03  0.30772827623E+03  0.00000000000E+00 0. -1.
         -2    1    5    5    0  503  0.42689264536E+02 -0.77405281295E+01 -0.13282606604E+02  0.45373083657E+02  0.00000000000E+00 0.  1.
         -1    1    6    6    0  502 -0.38689788666E+02 -0.19722503486E+02 -0.56580539472E+02  0.71324850773E+02  0.00000000000E+00 0.  1.
<mgrwt>
<rscale>  0 0.14200768E+04</rscale>
<asrwt>0</asrwt>
<pdfrwt beam="1">  1        1 0.29839604E+00 0.14200768E+04</pdfrwt>
<pdfrwt beam="2">  1       -1 0.39989308E-01 0.14200768E+04</pdfrwt>
<totfact> 0.19443065E+01</totfact>
</mgrwt>
</event>
<event>
12    1  0.1536832E-007  0.2330378E+04  0.7818608E-02  0.8466039E-01
         -1   -1    0    0    0  501 -0.00000000000E+00  0.00000000000E+00  0.14014467617E+04  0.14014467617E+04  0.00000000000E+00 0.  1.
          1   -1    0    0  501    0  0.00000000000E+00 -0.00000000000E+00 -0.96875968996E+03  0.96875968996E+03  0.00000000000E+00 0. -1.
         23    2    1    2    0    0 -0.68344123485E+03  0.22363184375E+03  0.88135368443E+03  0.11411336144E+04  0.91096024725E+02 0.  0.
        254    2    1    2    0    0  0.68344123485E+03 -0.22363184375E+03 -0.44866661266E+03  0.12290728373E+04  0.89006470952E+03 0.  0.
        -24    2    4    4    0    0  0.45205410805E+03 -0.13991589024E+03  0.20834673202E+03  0.52323860053E+03  0.80255214112E+02 0.  0.
         24    2    4    4    0    0  0.23138712680E+03 -0.83715953508E+02 -0.65701334468E+03  0.70583423681E+03  0.77376168444E+02 0.  0.
         13    1    3    3    0    0 -0.15802897710E+03  0.90833810020E+02  0.20145070442E+03  0.27167319514E+03  0.00000000000E+00 0. -1.
        -13    1    3    3    0    0 -0.52541225775E+03  0.13279803373E+03  0.67990298001E+03  0.86946041922E+03  0.00000000000E+00 0.  1.
          2    1    6    6  502    0  0.42672876746E+02 -0.46771283801E+02 -0.12469502757E+03  0.13984769322E+03  0.00000000000E+00 0. -1.
          3    1    5    5  503    0  0.53983838419E+02  0.86418180195E+01  0.30773955015E+02  0.62737326501E+02  0.00000000000E+00 0. -1.
         -4    1    5    5    0  503  0.39807026963E+03 -0.14855770826E+03  0.17757277701E+03  0.46050127403E+03  0.00000000000E+00 0.  1.
         -1    1    6    6    0  502  0.18871425005E+03 -0.36944669708E+02 -0.53231831711E+03  0.56598654359E+03  0.00000000000E+00 0.  1.
<mgrwt>
<rscale>  0 0.23303778E+04</rscale>
<asrwt>0</asrwt>
<pdfrwt beam="1">  1        1 0.14903995E+00 0.23303778E+04</pdfrwt>
<pdfrwt beam="2">  1       -1 0.21560719E+00 0.23303778E+04</pdfrwt>
<totfact> 0.17005123E+00</totfact>
</mgrwt>
</event>
<event>
12    1  0.1536832E-007  0.1407618E+04  0.7818608E-02  0.8948323E-01
          2   -1    0    0  501    0  0.00000000000E+00  0.00000000000E+00  0.17774791876E+04  0.17774791876E+04  0.00000000000E+00 0. -1.
         -2   -1    0    0    0  501 -0.00000000000E+00 -0.00000000000E+00 -0.27867956836E+03  0.27867956836E+03  0.00000000000E+00 0.  1.
         23    2    1    2    0    0  0.25010629969E+03 -0.42246031240E+02  0.91015133586E+03  0.94941295297E+03  0.93121494868E+02 0.  0.
        254    2    1    2    0    0 -0.25010629969E+03  0.42246031240E+02  0.58864828340E+03  0.11067458030E+04  0.90224252983E+03 0.  0.
        -24    2    4    4    0    0  0.14132040126E+03 -0.32863992940E+03  0.36631084211E+03  0.51816932659E+03  0.79625115125E+02 0.  0.
         24    2    4    4    0    0 -0.39142670096E+03  0.37088596065E+03  0.22233744129E+03  0.58857647642E+03  0.78848416443E+02 0.  0.
         13    1    3    3    0    0  0.17052771980E+03 -0.23722157963E+02  0.75136151750E+03  0.77083498492E+03  0.00000000000E+00 0. -1.
        -13    1    3    3    0    0  0.79578579894E+02 -0.18523873278E+02  0.15878981835E+03  0.17857796805E+03  0.00000000000E+00 0.  1.
          2    1    6    6  502    0 -0.15037141242E+02  0.70333157666E+01 -0.57121063265E+01  0.17555947883E+02  0.00000000000E+00 0. -1.
          1    1    5    5  503    0  0.64356028033E+01  0.38275398317E+01  0.10228612825E+02  0.12676417669E+02  0.00000000000E+00 0. -1.
         -2    1    5    5    0  503  0.13488479846E+03 -0.33246746924E+03  0.35608222929E+03  0.50549290892E+03  0.00000000000E+00 0.  1.
         -1    1    6    6    0  502 -0.37638955971E+03  0.36385264488E+03  0.22804954761E+03  0.57102052854E+03  0.00000000000E+00 0.  1.
<mgrwt>
<rscale>  0 0.14076180E+04</rscale>
<asrwt>0</asrwt>
<pdfrwt beam="1">  1        2 0.27345833E+00 0.14076180E+04</pdfrwt>
<pdfrwt beam="2">  1       -2 0.42873781E-01 0.14076180E+04</pdfrwt>
<totfact> 0.44557358E+01</totfact>
</mgrwt>
</event>
<event>
12    1  0.1536832E-007  0.2532008E+04  0.7818608E-02  0.8391671E-01
         -2   -1    0    0    0  501 -0.00000000000E+00  0.00000000000E+00  0.55893517661E+03  0.55893517661E+03  0.00000000000E+00 0.  1.
          2   -1    0    0  501    0  0.00000000000E+00 -0.00000000000E+00 -0.28675342590E+04  0.28675342590E+04  0.00000000000E+00 0. -1.
         23    2    1    2    0    0 -0.31872987582E+03 -0.80173301326E+03 -0.74917157666E+02  0.87090714752E+03  0.92206945497E+02 0.  0.
        254    2    1    2    0    0  0.31872987582E+03  0.80173301326E+03 -0.22336819247E+04  0.25555622881E+04  0.89286007258E+03 0.  0.
        -24    2    4    4    0    0  0.40445536240E+03  0.33927106271E+02 -0.45791556658E+03  0.61700750619E+03  0.79223783420E+02 0.  0.
         24    2    4    4    0    0 -0.85725486583E+02  0.76780590698E+03 -0.17757663581E+04  0.19385547819E+04  0.88168667297E+02 0.  0.
         11    1    3    3    0    0 -0.13474599716E+03 -0.38787232150E+03 -0.78150657077E+02  0.41798199332E+03  0.00000000000E+00 0. -1.
        -11    1    3    3    0    0 -0.18398387866E+03 -0.41386069176E+03  0.32334994113E+01  0.45292515420E+03  0.00000000000E+00 0.  1.
          2    1    6    6  502    0 -0.55901519683E+02  0.69148362686E+03 -0.16266416469E+04  0.17683997381E+04  0.00000000000E+00 0. -1.
          1    1    5    5  503    0  0.34999241328E+03  0.12080967555E+01 -0.38871336561E+03  0.52306235714E+03  0.00000000000E+00 0. -1.
         -2    1    5    5    0  503  0.54462949125E+02  0.32719009516E+02 -0.69202200966E+02  0.93945149048E+02  0.00000000000E+00 0.  1.
         -1    1    6    6    0  502 -0.29823966899E+02  0.76322280128E+02 -0.14912471121E+03  0.17015504382E+03  0.00000000000E+00 0.  1.
<mgrwt>
<rscale>  0 0.25320077E+04</rscale>
<asrwt>0</asrwt>
<pdfrwt beam="1">  1        2 0.44115911E+00 0.25320077E+04</pdfrwt>
<pdfrwt beam="2">  1       -2 0.85990028E-01 0.25320077E+04</pdfrwt>
<totfact> 0.21955866E+00</totfact>
</mgrwt>
</event>
<event>
12    1  0.1536832E-007  0.1827370E+04  0.7818608E-02  0.8691878E-01
         -2   -1    0    0    0  501 -0.00000000000E+00  0.00000000000E+00  0.36782149326E+03  0.36782149326E+03  0.00000000000E+00 0.  1.
          2   -1    0    0  501    0  0.00000000000E+00 -0.00000000000E+00 -0.22696337444E+04  0.22696337444E+04  0.00000000000E+00 0. -1.
         23    2    1    2    0    0 -0.74907417317E+02 -0.27502135499E+02 -0.17044128046E+04  0.17085781765E+04  0.88593950404E+02 0.  0.
        254    2    1    2    0    0  0.74907417317E+02  0.27502135499E+02 -0.19739944649E+03  0.92887706113E+03  0.90414521211E+03 0.  0.
        -24    2    4    4    0    0 -0.32935308763E+03  0.36692384015E+02  0.16613133888E+03  0.37928071741E+03  0.80215045153E+02 0.  0.
         24    2    4    4    0    0  0.40426050495E+03 -0.91902485169E+01 -0.36353078537E+03  0.54959634371E+03  0.79940556561E+02 0.  0.
         11    1    3    3    0    0 -0.65211609141E+02 -0.57418090839E+02 -0.11528606350E+04  0.11561301981E+04  0.00000000000E+00 0. -1.
        -11    1    3    3    0    0 -0.96958081758E+01  0.29915955340E+02 -0.55155216962E+03  0.55244797845E+03  0.00000000000E+00 0.  1.
          4    1    6    6  502    0  0.11314741097E+03 -0.38493209373E+02 -0.11070354135E+03  0.16290898638E+03  0.00000000000E+00 0. -1.
          3    1    5    5  503    0 -0.11637119873E+03  0.50209810115E+02  0.49371328111E+02  0.13601767887E+03  0.00000000000E+00 0. -1.
         -4    1    5    5    0  503 -0.21298188890E+03 -0.13517426099E+02  0.11676001077E+03  0.24326303854E+03  0.00000000000E+00 0.  1.
         -3    1    6    6    0  502  0.29111309398E+03  0.29302960856E+02 -0.25282724402E+03  0.38668735733E+03  0.00000000000E+00 0.  1.
<mgrwt>
<rscale>  0 0.18273698E+04</rscale>
<asrwt>0</asrwt>
<pdfrwt beam="1">  1        2 0.34917441E+00 0.18273698E+04</pdfrwt>
<pdfrwt beam="2">  1       -2 0.56587924E-01 0.18273698E+04</pdfrwt>
<totfact> 0.13022502E+01</totfact>
</mgrwt>
</event>
<event>
12    1  0.1536832E-007  0.1939530E+04  0.7818608E-02  0.8635426E-01
         -2   -1    0    0    0  501 -0.00000000000E+00  0.00000000000E+00  0.31451250746E+03  0.31451250746E+03  0.00000000000E+00 0.  1.
          2   -1    0    0  501    0  0.00000000000E+00 -0.00000000000E+00 -0.29901636418E+04  0.29901636418E+04  0.00000000000E+00 0. -1.
         23    2    1    2    0    0 -0.65550973540E+03  0.27889806982E+03 -0.60274626832E+03  0.93707151234E+03  0.85573411239E+02 0.  0.
        254    2    1    2    0    0  0.65550973540E+03 -0.27889806982E+03 -0.20729048660E+04  0.23676046369E+04  0.89506423603E+03 0.  0.
        -24    2    4    4    0    0  0.38933465412E+01  0.96020576882E+02 -0.12238719271E+04  0.12302318840E+04  0.79830352124E+02 0.  0.
         24    2    4    4    0    0  0.65161638886E+03 -0.37491864670E+03 -0.84903293890E+03  0.11373727529E+04  0.87131726978E+02 0.  0.
         13    1    3    3    0    0 -0.16971013975E+03  0.77220460028E+02 -0.11089884710E+03  0.21694028042E+03  0.00000000000E+00 0. -1.
        -13    1    3    3    0    0 -0.48579959565E+03  0.20167760979E+03 -0.49184742122E+03  0.72013123192E+03  0.00000000000E+00 0.  1.
          4    1    6    6  502    0  0.29551637705E+03 -0.19570176475E+03 -0.45599633520E+03  0.57754806514E+03  0.00000000000E+00 0. -1.
          3    1    5    5  503    0 -0.92410921040E+00  0.80230315438E+02 -0.51889535650E+03  0.52506204251E+03  0.00000000000E+00 0. -1.
         -4    1    5    5    0  503  0.48174557516E+01  0.15790261443E+02 -0.70497657057E+03  0.70516984145E+03  0.00000000000E+00 0.  1.
         -3    1    6    6    0  502  0.35610001180E+03 -0.17921688196E+03 -0.39303660369E+03  0.55982468776E+03  0.00000000000E+00 0.  1.
<mgrwt>
<rscale>  0 0.19395297E+04</rscale>
<asrwt>0</asrwt>
<pdfrwt beam="1">  1        2 0.46002515E+00 0.19395297E+04</pdfrwt>
<pdfrwt beam="2">  1       -2 0.48386542E-01 0.19395297E+04</pdfrwt>
<totfact> 0.66887802E+00</totfact>
</mgrwt>
</event>
<event>
12    1  0.1536832E-007  0.2448198E+04  0.7818608E-02  0.8421676E-01
          1   -1    0    0  501    0  0.00000000000E+00  0.00000000000E+00  0.14222453304E+04  0.14222453304E+04  0.00000000000E+00 0. -1.
         -1   -1    0    0    0  501 -0.00000000000E+00 -0.00000000000E+00 -0.10535582095E+04  0.10535582095E+04  0.00000000000E+00 0.  1.
         23    2    1    2    0    0  0.16975906885E+03  0.67621048959E+03 -0.63311325622E+03  0.94629868313E+03  0.92574482507E+02 0.  0.
        254    2    1    2    0    0 -0.16975906885E+03 -0.67621048959E+03  0.10018003771E+04  0.15295048567E+04  0.92179300472E+03 0.  0.
        -24    2    4    4    0    0  0.18837664715E+03 -0.38533377486E+03  0.13866573010E+02  0.43621348441E+03  0.78243484700E+02 0.  0.
         24    2    4    4    0    0 -0.35813571600E+03 -0.29087671473E+03  0.98793380410E+03  0.10932913723E+04  0.80014806646E+02 0.  0.
         13    1    3    3    0    0  0.41268643093E+02  0.53962503439E+02 -0.61945103261E+02  0.91936110958E+02  0.00000000000E+00 0. -1.
        -13    1    3    3    0    0  0.12849042576E+03  0.62224798615E+03 -0.57116815296E+03  0.85436257218E+03  0.00000000000E+00 0.  1.
          2    1    6    6  502    0 -0.27355690041E+03 -0.25911999413E+03  0.82535953015E+03  0.90730088897E+03  0.00000000000E+00 0. -1.
          1    1    5    5  503    0  0.10494108337E+02 -0.40092555493E+02 -0.20662341691E+02  0.46308440698E+02  0.00000000000E+00 0. -1.
         -2    1    5    5    0  503  0.17788253882E+03 -0.34524121936E+03  0.34528914700E+02  0.38990504371E+03  0.00000000000E+00 0.  1.
         -1    1    6    6    0  502 -0.84578815590E+02 -0.31756720602E+02  0.16257427395E+03  0.18599048336E+03  0.00000000000E+00 0.  1.
<mgrwt>
<rscale>  0 0.24481979E+04</rscale>
<asrwt>0</asrwt>
<pdfrwt beam="1">  1        1 0.21880698E+00 0.24481979E+04</pdfrwt>
<pdfrwt beam="2">  1       -1 0.16208588E+00 0.24481979E+04</pdfrwt>
<totfact> 0.18640613E+00</totfact>
</mgrwt>
</event>
<event>
12    1  0.1536832E-007  0.1343784E+04  0.7818608E-02  0.8995547E-01
         -2   -1    0    0    0  501 -0.00000000000E+00  0.00000000000E+00  0.13965808380E+03  0.13965808380E+03  0.00000000000E+00 0. -1.
          2   -1    0    0  501    0  0.00000000000E+00 -0.00000000000E+00 -0.32324577793E+04  0.32324577793E+04  0.00000000000E+00 0.  1.
         23    2    1    2    0    0  0.17557886724E+03 -0.18961044827E+03 -0.15542873732E+04  0.15783345301E+04  0.92469398218E+02 0.  0.
        254    2    1    2    0    0 -0.17557886724E+03  0.18961044827E+03 -0.15385123223E+04  0.17937813330E+04  0.88535373954E+03 0.  0.
        -24    2    4    4    0    0  0.30300366763E+03 -0.72607318806E+02 -0.31031969270E+03  0.44707524407E+03  0.80591046930E+02 0.  0.
         24    2    4    4    0    0 -0.47858253487E+03  0.26221776708E+03 -0.12281926296E+04  0.13467060889E+04  0.85794839835E+02 0.  0.
         11    1    3    3    0    0 -0.77565640895E+01 -0.25048595408E+02 -0.21323418540E+03  0.21484043903E+03  0.00000000000E+00 0. -1.
        -11    1    3    3    0    0  0.18333543133E+03 -0.16456185287E+03 -0.13410531878E+04  0.13634940911E+04  0.00000000000E+00 0.  1.
          2    1    6    6  502    0 -0.27898294046E+03  0.10442812350E+03 -0.65026422140E+03  0.71524839859E+03  0.00000000000E+00 0. -1.
          3    1    5    5  503    0  0.18738574751E+03 -0.33388878919E+02 -0.13466306056E+03  0.23315740495E+03  0.00000000000E+00 0. -1.
         -4    1    5    5    0  503  0.11561792013E+03 -0.39218439887E+02 -0.17565663214E+03  0.21391783912E+03  0.00000000000E+00 0.  1.
         -1    1    6    6    0  502 -0.19959959441E+03  0.15778964358E+03 -0.57792840819E+03  0.63145769035E+03  0.00000000000E+00 0.  1.
<mgrwt>
<rscale>  0 0.13437840E+04</rscale>
<asrwt>0</asrwt>
<pdfrwt beam="1">  1        2 0.49730116E+00 0.13437840E+04</pdfrwt>
<pdfrwt beam="2">  1       -2 0.21485861E-01 0.13437840E+04</pdfrwt>
<totfact> 0.23045692E+01</totfact>
</mgrwt>
</event>
<event>
12    1  0.1536832E-007  0.2358171E+04  0.7818608E-02  0.8455332E-01
          2   -1    0    0  501    0  0.00000000000E+00  0.00000000000E+00  0.70822959768E+03  0.70822959768E+03  0.00000000000E+00 0. -1.
         -2   -1    0    0    0  501 -0.00000000000E+00 -0.00000000000E+00 -0.19629831432E+04  0.19629831432E+04  0.00000000000E+00 0.  1.
         23    2    1    2    0    0  0.66283060722E+03 -0.76415486999E+03 -0.49414115059E+03  0.11294409987E+04  0.90467748628E+02 0.  0.
        254    2    1    2    0    0 -0.66283060722E+03  0.76415486999E+03 -0.76061239496E+03  0.15417717422E+04  0.88048385030E+03 0.  0.
        -24    2    4    4    0    0  0.49862468873E+02  0.55628091118E+03 -0.16867816592E+03  0.58898731204E+03  0.80740399674E+02 0.  0.
         24    2    4    4    0    0 -0.71269307609E+03  0.20787395881E+03 -0.59193422904E+03  0.95278443021E+03  0.79177240958E+02 0.  0.
         11    1    3    3    0    0  0.37639621895E+03 -0.39206089312E+03 -0.22518410218E+03  0.58829732060E+03  0.00000000000E+00 0. -1.
        -11    1    3    3    0    0  0.28643438826E+03 -0.37209397687E+03 -0.26895704842E+03  0.54114367805E+03  0.00000000000E+00 0.  1.
          4    1    6    6  502    0 -0.23643926801E+03  0.10277524524E+03 -0.22930092639E+03  0.34502926446E+03  0.00000000000E+00 0. -1.
          3    1    5    5  503    0  0.30019212220E+02  0.27164895228E+03 -0.40849618158E+02  0.27633855627E+03  0.00000000000E+00 0. -1.
         -4    1    5    5    0  503  0.19843256653E+02  0.28463195890E+03 -0.12782854776E+03  0.31264875577E+03  0.00000000000E+00 0.  1.
         -3    1    6    6    0  502 -0.47625380808E+03  0.10509871357E+03 -0.36263330264E+03  0.60775516575E+03  0.00000000000E+00 0.  1.
<mgrwt>
<rscale>  0 0.23581711E+04</rscale>
<asrwt>0</asrwt>
<pdfrwt beam="1">  1        2 0.10895840E+00 0.23581711E+04</pdfrwt>
<pdfrwt beam="2">  1       -2 0.30199740E+00 0.23581711E+04</pdfrwt>
<totfact> 0.11259708E+00</totfact>
</mgrwt>
</event>
<event>
12    1  0.1536832E-007  0.1507129E+04  0.7818608E-02  0.8879726E-01
          2   -1    0    0  501    0  0.00000000000E+00  0.00000000000E+00  0.88855810959E+03  0.88855810959E+03  0.00000000000E+00 0. -1.
         -2   -1    0    0    0  501 -0.00000000000E+00 -0.00000000000E+00 -0.63907976020E+03  0.63907976020E+03  0.00000000000E+00 0.  1.
         23    2    1    2    0    0 -0.28920582030E+03 -0.16335676024E+03  0.43047099929E+03  0.55119308695E+03  0.90460490052E+02 0.  0.
        254    2    1    2    0    0  0.28920582030E+03  0.16335676024E+03 -0.18099264990E+03  0.97644478283E+03  0.90020033159E+03 0.  0.
        -24    2    4    4    0    0  0.40506172600E+03  0.26989504666E+03 -0.44096614420E+03  0.66157900195E+03  0.79481428077E+02 0.  0.
         24    2    4    4    0    0 -0.11585590570E+03 -0.10653828642E+03  0.25997349430E+03  0.31486578088E+03  0.82348314329E+02 0.  0.
         11    1    3    3    0    0 -0.12253323292E+03 -0.70133043658E+02  0.11355329930E+03  0.18118330156E+03  0.00000000000E+00 0.  1.
        -11    1    3    3    0    0 -0.16667258738E+03 -0.93223716579E+02  0.31691769999E+03  0.37000978539E+03  0.00000000000E+00 0. -1.
          4    1    6    6  502    0  0.10971145207E+02 -0.23001308900E+02  0.43911178746E+02  0.50770245785E+02  0.00000000000E+00 0. -1.
          3    1    5    5  503    0  0.36023999669E+02  0.22542026888E+02 -0.12337690607E+02  0.44250312292E+02  0.00000000000E+00 0. -1.
         -4    1    5    5    0  503  0.36903772633E+03  0.24735301977E+03 -0.42862845360E+03  0.61732868966E+03  0.00000000000E+00 0.  1.
         -3    1    6    6    0  502 -0.12682705091E+03 -0.83536977518E+02  0.21606231555E+03  0.26409553510E+03  0.00000000000E+00 0.  1.
<mgrwt>
<rscale>  0 0.15071291E+04</rscale>
<asrwt>0</asrwt>
<pdfrwt beam="1">  1        2 0.13670125E+00 0.15071291E+04</pdfrwt>
<pdfrwt beam="2">  1       -2 0.98319962E-01 0.15071291E+04</pdfrwt>
<totfact> 0.24790044E+01</totfact>
</mgrwt>
</event>
<event>
12    1  0.1536832E-007  0.1353200E+04  0.7818608E-02  0.8988409E-01
         -1   -1    0    0    0  501 -0.00000000000E+00  0.00000000000E+00  0.42463539127E+03  0.42463539127E+03  0.00000000000E+00 0.  1.
          1   -1    0    0  501    0  0.00000000000E+00 -0.00000000000E+00 -0.10780720030E+04  0.10780720030E+04  0.00000000000E+00 0. -1.
         23    2    1    2    0    0  0.20592041472E+03 -0.86189537908E+02 -0.51229878539E+03  0.56580003154E+03  0.88587677097E+02 0.  0.
        254    2    1    2    0    0 -0.20592041472E+03  0.86189537908E+02 -0.14113782638E+03  0.93690736277E+03  0.89891249114E+03 0.  0.
        -24    2    4    4    0    0  0.25398079577E+03 -0.85413095261E+02  0.19111180605E+03  0.33870833948E+03  0.79987345009E+02 0.  0.
         24    2    4    4    0    0 -0.45990121049E+03  0.17160263317E+03 -0.33224963243E+03  0.59819902328E+03  0.80595695202E+02 0.  0.
         13    1    3    3    0    0  0.15977779780E+03 -0.23691169909E+02 -0.36882621162E+03  0.40264499323E+03  0.00000000000E+00 0. -1.
        -13    1    3    3    0    0  0.46142616920E+02 -0.62498367999E+02 -0.14347257377E+03  0.16315503830E+03  0.00000000000E+00 0.  1.
          4    1    6    6  502    0 -0.31174179577E+03  0.94512570442E+02 -0.25741569446E+03  0.41518479375E+03  0.00000000000E+00 0. -1.
          1    1    5    5  503    0  0.19660521599E+03 -0.62300467649E+02  0.18410103898E+03  0.27645641931E+03  0.00000000000E+00 0. -1.
         -2    1    5    5    0  503  0.57375579778E+02 -0.23112627612E+02  0.70107670659E+01  0.62251920170E+02  0.00000000000E+00 0.  1.
         -3    1    6    6    0  502 -0.14815941472E+03  0.77090062727E+02 -0.74833937968E+02  0.18301422953E+03  0.00000000000E+00 0.  1.
<mgrwt>
<rscale>  0 0.13532000E+04</rscale>
<asrwt>0</asrwt>
<pdfrwt beam="1">  1        1 0.16585723E+00 0.13532000E+04</pdfrwt>
<pdfrwt beam="2">  1       -1 0.65328522E-01 0.13532000E+04</pdfrwt>
<totfact> 0.30622008E+01</totfact>
</mgrwt>
</event>
<event>
12    1  0.1536832E-007  0.1100390E+04  0.7818608E-02  0.9204811E-01
          1   -1    0    0  501    0  0.00000000000E+00  0.00000000000E+00  0.35031475997E+03  0.35031475997E+03  0.00000000000E+00 0. -1.
         -1   -1    0    0    0  501 -0.00000000000E+00 -0.00000000000E+00 -0.86412217731E+03  0.86412217731E+03  0.00000000000E+00 0.  1.
         23    2    1    2    0    0  0.15290867126E+03  0.64090802481E+02 -0.20268825882E+03  0.27690085541E+03  0.90015891665E+02 0.  0.
        254    2    1    2    0    0 -0.15290867126E+03 -0.64090802481E+02 -0.31111915852E+03  0.93753608187E+03  0.86872900338E+03 0.  0.
        -24    2    4    4    0    0  0.16222926898E+03  0.11355984021E+03  0.20931520012E+03  0.29857240117E+03  0.78220538982E+02 0.  0.
         24    2    4    4    0    0 -0.31513794024E+03 -0.17765064269E+03 -0.52043435864E+03  0.63896368070E+03  0.80938194773E+02 0.  0.
         11    1    3    3    0    0  0.68764878007E+02  0.44522712990E+02 -0.36674268381E+02  0.89754567464E+02  0.00000000000E+00 0. -1.
        -11    1    3    3    0    0  0.84143793253E+02  0.19568089491E+02 -0.16601399044E+03  0.18714628794E+03  0.00000000000E+00 0.  1.
          4    1    6    6  502    0 -0.30176736148E+03 -0.17285589958E+03 -0.45876987798E+03  0.57568437830E+03  0.00000000000E+00 0. -1.
          3    1    5    5  503    0  0.10837180313E+03  0.11122282564E+03  0.12920076512E+03  0.20200941157E+03  0.00000000000E+00 0. -1.
         -4    1    5    5    0  503  0.53857465857E+02  0.23370145707E+01  0.80114434997E+02  0.96562989600E+02  0.00000000000E+00 0.  1.
         -3    1    6    6    0  502 -0.13370578767E+02 -0.47947431122E+01 -0.61664480652E+02  0.63279302400E+02  0.00000000000E+00 0.  1.
<mgrwt>
<rscale>  0 0.11003904E+04</rscale>
<asrwt>0</asrwt>
<pdfrwt beam="1">  1        1 0.53894579E-01 0.11003904E+04</pdfrwt>
<pdfrwt beam="2">  1       -1 0.13294187E+00 0.11003904E+04</pdfrwt>
<totfact> 0.34159880E+01</totfact>
</mgrwt>
</event>
<event>
12    1  0.1536832E-007  0.1562109E+04  0.7818608E-02  0.8844170E-01
         -1   -1    0    0    0  501 -0.00000000000E+00  0.00000000000E+00  0.17351991733E+04  0.17351991733E+04  0.00000000000E+00 0.  1.
          1   -1    0    0  501    0  0.00000000000E+00 -0.00000000000E+00 -0.35157107642E+03  0.35157107642E+03  0.00000000000E+00 0. -1.
         23    2    1    2    0    0 -0.45242919323E+03 -0.22648780632E+03  0.58197803827E+03  0.77634497357E+03  0.89577785487E+02 0.  0.
        254    2    1    2    0    0  0.45242919323E+03  0.22648780632E+03  0.80165005865E+03  0.13104252762E+04  0.90475559497E+03 0.  0.
        -24    2    4    4    0    0  0.17932684471E+03 -0.32533594904E+03  0.14780671485E+03  0.40870353222E+03  0.84794783583E+02 0.  0.
         24    2    4    4    0    0  0.27310234852E+03  0.55182375537E+03  0.65384334380E+03  0.90172174397E+03  0.80601709388E+02 0.  0.
         11    1    3    3    0    0 -0.34631378957E+03 -0.13190644568E+03  0.39744966303E+03  0.54341400966E+03  0.00000000000E+00 0. -1.
        -11    1    3    3    0    0 -0.10611540367E+03 -0.94581360649E+02  0.18452837524E+03  0.23293096391E+03  0.00000000000E+00 0.  1.
          4    1    6    6  502    0  0.34429666798E+02  0.11109344028E+03  0.16263234664E+03  0.19994107782E+03  0.00000000000E+00 0. -1.
          3    1    5    5  503    0  0.64977300846E+01 -0.92115612373E+01 -0.10285740607E+02  0.15260072625E+02  0.00000000000E+00 0. -1.
         -4    1    5    5    0  503  0.17282911462E+03 -0.31612438780E+03  0.15809245546E+03  0.39344345959E+03  0.00000000000E+00 0.  1.
         -3    1    6    6    0  502  0.23867268173E+03  0.44073031508E+03  0.49121099717E+03  0.70178066614E+03  0.00000000000E+00 0.  1.
<mgrwt>
<rscale>  0 0.15621086E+04</rscale>
<asrwt>0</asrwt>
<pdfrwt beam="1">  1        1 0.54087859E-01 0.15621086E+04</pdfrwt>
<pdfrwt beam="2">  1       -1 0.26695371E+00 0.15621086E+04</pdfrwt>
<totfact> 0.37091832E+00</totfact>
</mgrwt>
</event>
<event>
12    1  0.1536832E-007  0.1562425E+04  0.7818608E-02  0.8843970E-01
         -2   -1    0    0    0  501 -0.00000000000E+00  0.00000000000E+00  0.57141048342E+03  0.57141048342E+03  0.00000000000E+00 0.  1.
          2   -1    0    0  501    0  0.00000000000E+00 -0.00000000000E+00 -0.10680466570E+04  0.10680466570E+04  0.00000000000E+00 0. -1.
         23    2    1    2    0    0  0.67492262529E+01 -0.61059398136E+01  0.36951502240E+03  0.38415764593E+03  0.10465615408E+03 0.  0.
        254    2    1    2    0    0 -0.67492262529E+01  0.61059398136E+01 -0.86615119595E+03  0.12552994945E+04  0.90855714846E+03 0.  0.
        -24    2    4    4    0    0 -0.13150584299E+03 -0.12468873937E+03  0.13104714517E+03  0.23883461296E+03  0.83830481475E+02 0.  0.
         24    2    4    4    0    0  0.12475661674E+03  0.13079467918E+03 -0.99719834112E+03  0.10164648815E+04  0.78261499443E+02 0.  0.
         11    1    3    3    0    0 -0.47829230492E+02 -0.10586212784E+02  0.14462040296E+03  0.15269172912E+03  0.00000000000E+00 0. -1.
        -11    1    3    3    0    0  0.54578456745E+02  0.44802729699E+01  0.22489461944E+03  0.23146591680E+03  0.00000000000E+00 0.  1.
          4    1    6    6  502    0  0.27576338045E+02  0.21411658436E+02 -0.40329406184E+03  0.40480243805E+03  0.00000000000E+00 0. -1.
          3    1    5    5  503    0 -0.10316176474E+01 -0.61750914376E+01  0.39919885267E+02  0.40407836232E+02  0.00000000000E+00 0. -1.
         -4    1    5    5    0  503 -0.13047422535E+03 -0.11851364793E+03  0.91127259899E+02  0.19842677673E+03  0.00000000000E+00 0.  1.
         -3    1    6    6    0  502  0.97180278695E+02  0.10938302075E+03 -0.59390427928E+03  0.61166244346E+03  0.00000000000E+00 0.  1.
<mgrwt>
<rscale>  0 0.15624251E+04</rscale>
<asrwt>0</asrwt>
<pdfrwt beam="1">  1        2 0.16431487E+00 0.15624251E+04</pdfrwt>
<pdfrwt beam="2">  1       -2 0.87909305E-01 0.15624251E+04</pdfrwt>
<totfact> 0.24472128E+01</totfact>
</mgrwt>
</event>
<event>
12    1  0.1536832E-007  0.2014881E+04  0.7818608E-02  0.8599695E-01
          2   -1    0    0  501    0  0.00000000000E+00  0.00000000000E+00  0.22256191810E+04  0.22256191810E+04  0.00000000000E+00 0. -1.
         -2   -1    0    0    0  501 -0.00000000000E+00 -0.00000000000E+00 -0.45602425204E+03  0.45602425204E+03  0.00000000000E+00 0.  1.
         23    2    1    2    0    0 -0.55466337123E+03 -0.28192010592E+03  0.13887929529E+04  0.15244340318E+04  0.89570361689E+02 0.  0.
        254    2    1    2    0    0  0.55466337123E+03  0.28192010592E+03  0.38080197599E+03  0.11572094012E+04  0.89832791998E+03 0.  0.
        -24    2    4    4    0    0 -0.14733346926E+03 -0.16755152399E+03  0.17588875681E+03  0.29516633581E+03  0.80035283905E+02 0.  0.
         24    2    4    4    0    0  0.70199684049E+03  0.44947162991E+03  0.20491321919E+03  0.86204306540E+03  0.79400938658E+02 0.  0.
         11    1    3    3    0    0 -0.40062222602E+03 -0.24106868717E+03  0.10825564199E+04  0.11792118903E+04  0.00000000000E+00 0. -1.
        -11    1    3    3    0    0 -0.15404114522E+03 -0.40851418758E+02  0.30623653303E+03  0.34522214152E+03  0.00000000000E+00 0.  1.
          2    1    6    6  502    0  0.62900242517E+03  0.42921763123E+03  0.18275088700E+03  0.78311538903E+03  0.00000000000E+00 0. -1.
          3    1    5    5  503    0 -0.12415489228E+03 -0.12161167644E+03  0.91708606981E+02  0.19650523077E+03  0.00000000000E+00 0. -1.
         -4    1    5    5    0  503 -0.23178576974E+02 -0.45939847544E+02  0.84180149827E+02  0.98661105041E+02  0.00000000000E+00 0.  1.
         -1    1    6    6    0  502  0.72994415315E+02  0.20253998676E+02  0.22162332181E+02  0.78927676370E+02  0.00000000000E+00 0.  1.
<mgrwt>
<rscale>  0 0.20148810E+04</rscale>
<asrwt>0</asrwt>
<pdfrwt beam="1">  1        2 0.34240294E+00 0.20148810E+04</pdfrwt>
<pdfrwt beam="2">  1       -2 0.70157579E-01 0.20148810E+04</pdfrwt>
<totfact> 0.85742664E+00</totfact>
</mgrwt>
</event>
<event>
12    1  0.1536832E-007  0.1730648E+04  0.7818608E-02  0.8744075E-01
          2   -1    0    0  501    0  0.00000000000E+00  0.00000000000E+00  0.41932349392E+04  0.41932349392E+04  0.00000000000E+00 0. -1.
         -2   -1    0    0    0  501 -0.00000000000E+00 -0.00000000000E+00 -0.17856993504E+03  0.17856993504E+03  0.00000000000E+00 0.  1.
         23    2    1    2    0    0  0.21009890810E+03  0.58772844595E+03  0.13984159453E+04  0.15342071570E+04  0.93049272448E+02 0.  0.
        254    2    1    2    0    0 -0.21009890810E+03 -0.58772844595E+03  0.26162490589E+04  0.28375977173E+04  0.90423193353E+03 0.  0.
        -24    2    4    4    0    0 -0.21564413462E+03 -0.78294736128E+03  0.15567443668E+04  0.17577054041E+04  0.81032713496E+02 0.  0.
         24    2    4    4    0    0  0.55452265150E+01  0.19521891533E+03  0.10595046920E+04  0.10798923131E+04  0.74000277755E+02 0.  0.
         13    1    3    3    0    0  0.61578686015E+02  0.22000434868E+03  0.41293034624E+03  0.47191664397E+03  0.00000000000E+00 0.  1.
        -13    1    3    3    0    0  0.14852022209E+03  0.36772409727E+03  0.98548559909E+03  0.10622905130E+04  0.00000000000E+00 0. -1.
          4    1    6    6  502    0  0.42280002491E+01 -0.61237587276E+01  0.42799726751E+02  0.43441834872E+02  0.00000000000E+00 0. -1.
          3    1    5    5  503    0 -0.10935621728E+03 -0.29459913191E+03  0.54034072842E+03  0.62507242266E+03  0.00000000000E+00 0. -1.
         -4    1    5    5    0  503 -0.10628791734E+03 -0.48834822937E+03  0.10164036384E+04  0.11326329815E+04  0.00000000000E+00 0.  1.
         -3    1    6    6    0  502  0.13172262659E+01  0.20134267406E+03  0.10167049653E+04  0.10364504783E+04  0.00000000000E+00 0.  1.
<mgrwt>
<rscale>  0 0.17306481E+04</rscale>
<asrwt>0</asrwt>
<pdfrwt beam="1">  1        2 0.64511299E+00 0.17306481E+04</pdfrwt>
<pdfrwt beam="2">  1       -2 0.27472301E-01 0.17306481E+04</pdfrwt>
<totfact> 0.27548158E+00</totfact>
</mgrwt>
</event>
<event>
12    1  0.1536832E-007  0.1202996E+04  0.7818608E-02  0.9110238E-01
         -2   -1    0    0    0  501 -0.00000000000E+00  0.00000000000E+00  0.18658187694E+03  0.18658187694E+03  0.00000000000E+00 0.  1.
          2   -1    0    0  501    0  0.00000000000E+00 -0.00000000000E+00 -0.19390934842E+04  0.19390934842E+04  0.00000000000E+00 0. -1.
         23    2    1    2    0    0 -0.13676019365E+03 -0.16000031316E+03 -0.14536950905E+03  0.27188502638E+03  0.92117982111E+02 0.  0.
        254    2    1    2    0    0  0.13676019365E+03  0.16000031316E+03 -0.16071420982E+04  0.18537903347E+04  0.89962738431E+03 0.  0.
        -24    2    4    4    0    0  0.42302310475E+03  0.31543104217E+03 -0.65801614474E+03  0.84717855921E+03  0.79252601957E+02 0.  0.
         24    2    4    4    0    0 -0.28626291110E+03 -0.15543072901E+03 -0.94912595344E+03  0.10066117755E+04  0.79511164839E+02 0.  0.
         11    1    3    3    0    0 -0.54796777250E+02 -0.29730086594E+02 -0.33019197513E+01  0.62429700623E+02  0.00000000000E+00 0.  1.
        -11    1    3    3    0    0 -0.81963416397E+02 -0.13027022657E+03 -0.14206758930E+03  0.20945532575E+03  0.00000000000E+00 0. -1.
          4    1    6    6  502    0 -0.11749545459E+03 -0.50805110125E+02 -0.48881458723E+03  0.50529797324E+03  0.00000000000E+00 0. -1.
          1    1    5    5  503    0  0.11927457981E+03  0.76713874904E+02 -0.12608857636E+03  0.18976241219E+03  0.00000000000E+00 0. -1.
         -2    1    5    5    0  503  0.30374852494E+03  0.23871716727E+03 -0.53192756839E+03  0.65741614702E+03  0.00000000000E+00 0.  1.
         -3    1    6    6    0  502 -0.16876745651E+03 -0.10462561888E+03 -0.46031136620E+03  0.50131380228E+03  0.00000000000E+00 0.  1.
<mgrwt>
<rscale>  0 0.12029958E+04</rscale>
<asrwt>0</asrwt>
<pdfrwt beam="1">  1        2 0.29832207E+00 0.12029958E+04</pdfrwt>
<pdfrwt beam="2">  1       -2 0.28704905E-01 0.12029958E+04</pdfrwt>
<totfact> 0.79405761E+01</totfact>
</mgrwt>
</event>
<event>
12    1  0.1536832E-007  0.1953043E+04  0.7818608E-02  0.8628895E-01
         -2   -1    0    0    0  501 -0.00000000000E+00  0.00000000000E+00  0.35213769618E+03  0.35213769618E+03  0.00000000000E+00 0.  1.
          2   -1    0    0  501    0  0.00000000000E+00 -0.00000000000E+00 -0.27080159908E+04  0.27080159908E+04  0.00000000000E+00 0. -1.
         23    2    1    2    0    0  0.30955660549E+03  0.13524526023E+03  0.14610097132E+03  0.37914887193E+03  0.91059325988E+02 0.  0.
        254    2    1    2    0    0 -0.30955660549E+03 -0.13524526023E+03 -0.25019792659E+04  0.26810048150E+04  0.90209201233E+03 0.  0.
        -24    2    4    4    0    0 -0.11924601220E+03 -0.33242934991E+03 -0.32822338346E+03  0.48841859972E+03  0.78059304320E+02 0.  0.
         24    2    4    4    0    0 -0.19031059329E+03  0.19718408968E+03 -0.21737558825E+04  0.21925862153E+04  0.84380020886E+02 0.  0.
         13    1    3    3    0    0  0.12139857722E+03  0.85034493154E+02  0.26372699652E+02  0.15054567036E+03  0.00000000000E+00 0. -1.
        -13    1    3    3    0    0  0.18815802827E+03  0.50210767075E+02  0.11972827166E+03  0.22860320157E+03  0.00000000000E+00 0.  1.
          2    1    6    6  502    0 -0.19305536293E+03  0.17190594063E+03 -0.18724294692E+04  0.18901889172E+04  0.00000000000E+00 0. -1.
          1    1    5    5  503    0 -0.85412016893E+02 -0.24957678951E+03 -0.28723473763E+03  0.38998407787E+03  0.00000000000E+00 0. -1.
         -2    1    5    5    0  503 -0.33833995310E+02 -0.82852560401E+02 -0.40988645825E+02  0.98434521842E+02  0.00000000000E+00 0.  1.
         -1    1    6    6    0  502  0.27447696357E+01  0.25278149049E+02 -0.30132641327E+03  0.30239729812E+03  0.00000000000E+00 0.  1.
<mgrwt>
<rscale>  0 0.19530433E+04</rscale>
<asrwt>0</asrwt>
<pdfrwt beam="1">  1        2 0.41661784E+00 0.19530433E+04</pdfrwt>
<pdfrwt beam="2">  1       -2 0.54175031E-01 0.19530433E+04</pdfrwt>
<totfact> 0.78687444E+00</totfact>
</mgrwt>
</event>
<event>
12    1  0.1536832E-007  0.1448475E+04  0.7818608E-02  0.8919458E-01
          1   -1    0    0  501    0  0.00000000000E+00  0.00000000000E+00  0.24346879468E+04  0.24346879468E+04  0.00000000000E+00 0. -1.
         -1   -1    0    0    0  501 -0.00000000000E+00 -0.00000000000E+00 -0.21543629518E+03  0.21543629518E+03  0.00000000000E+00 0.  1.
         23    2    1    2    0    0  0.25275569990E+03 -0.92211221393E+02  0.12953737710E+04  0.13265763478E+04  0.97073409205E+02 0.  0.
        254    2    1    2    0    0 -0.25275569990E+03  0.92211221393E+02  0.92387788067E+03  0.13235478942E+04  0.90875757864E+03 0.  0.
        -24    2    4    4    0    0 -0.86327206799E+02 -0.13966638929E+03  0.10009114062E+04  0.10173472081E+04  0.78820122737E+02 0.  0.
         24    2    4    4    0    0 -0.16642849310E+03  0.23187761068E+03 -0.77033525563E+02  0.30620068614E+03  0.79743504292E+02 0.  0.
         11    1    3    3    0    0  0.72526853371E+02 -0.56230477482E+02  0.61532487040E+03  0.62213077981E+03  0.00000000000E+00 0.  1.
        -11    1    3    3    0    0  0.18022884653E+03 -0.35980743911E+02  0.68004890055E+03  0.70444556795E+03  0.00000000000E+00 0. -1.
          4    1    6    6  502    0 -0.65089335164E+02  0.15799387059E+03 -0.47544806403E+02  0.17736739641E+03  0.00000000000E+00 0. -1.
          1    1    5    5  503    0 -0.76518166331E+01 -0.76264431480E+02  0.54569564548E+03  0.55105222194E+03  0.00000000000E+00 0. -1.
         -2    1    5    5    0  503 -0.78675390166E+02 -0.63401957809E+02  0.45521576076E+03  0.46629498616E+03  0.00000000000E+00 0.  1.
         -3    1    6    6    0  502 -0.10133915794E+03  0.73883740095E+02 -0.29488719161E+02  0.12883328972E+03  0.00000000000E+00 0.  1.
<mgrwt>
<rscale>  0 0.14484753E+04</rscale>
<asrwt>0</asrwt>
<pdfrwt beam="1">  1        1 0.37456736E+00 0.14484753E+04</pdfrwt>
<pdfrwt beam="2">  1       -1 0.33144047E-01 0.14484753E+04</pdfrwt>
<totfact> 0.12525776E+01</totfact>
</mgrwt>
</event>
<event>
12    1  0.1536832E-007  0.1704856E+04  0.7818608E-02  0.8758599E-01
         -1   -1    0    0    0  501 -0.00000000000E+00  0.00000000000E+00  0.36483583543E+03  0.36483583543E+03  0.00000000000E+00 0.  1.
          1   -1    0    0  501    0  0.00000000000E+00 -0.00000000000E+00 -0.19916733834E+04  0.19916733834E+04  0.00000000000E+00 0. -1.
         23    2    1    2    0    0 -0.45949161263E+03 -0.49315252874E+02 -0.29195796283E+02  0.47197542871E+03  0.91344811277E+02 0.  0.
        254    2    1    2    0    0  0.45949161263E+03  0.49315252874E+02 -0.15976417517E+04  0.18845337902E+04  0.88625273097E+03 0.  0.
        -24    2    4    4    0    0 -0.10494197341E+03 -0.29621181953E+03 -0.63960865404E+03  0.71715659784E+03  0.80374720444E+02 0.  0.
         24    2    4    4    0    0  0.56443358603E+03  0.34552707241E+03 -0.95803309768E+03  0.11673771923E+04  0.83473720886E+02 0.  0.
         11    1    3    3    0    0 -0.51132121508E+01 -0.27111568153E+01  0.12036887367E+02  0.13355971221E+02  0.00000000000E+00 0. -1.
        -11    1    3    3    0    0 -0.45437840047E+03 -0.46604096059E+02 -0.41232683650E+02  0.45861945749E+03  0.00000000000E+00 0.  1.
          4    1    6    6  502    0  0.69686081249E+02  0.75372776309E+02 -0.16742457267E+03  0.19638786333E+03  0.00000000000E+00 0. -1.
          3    1    5    5  503    0 -0.59519969240E+02 -0.71005198840E+02 -0.14966545454E+03  0.17602304759E+03  0.00000000000E+00 0. -1.
         -4    1    5    5    0  503 -0.45422004167E+02 -0.22520662069E+03 -0.48994319951E+03  0.54113355025E+03  0.00000000000E+00 0.  1.
         -3    1    6    6    0  502  0.49474750478E+03  0.27015429610E+03 -0.79060852501E+03  0.97098932898E+03  0.00000000000E+00 0.  1.
<mgrwt>
<rscale>  0 0.17048564E+04</rscale>
<asrwt>0</asrwt>
<pdfrwt beam="1">  1        1 0.30641129E+00 0.17048564E+04</pdfrwt>
<pdfrwt beam="2">  1       -1 0.56128591E-01 0.17048564E+04</pdfrwt>
<totfact> 0.92249504E+00</totfact>
</mgrwt>
</event>
<event>
12    1  0.1536832E-007  0.1839914E+04  0.7818608E-02  0.8685357E-01
         -1   -1    0    0    0  501 -0.00000000000E+00  0.00000000000E+00  0.48697409393E+03  0.48697409393E+03  0.00000000000E+00 0.  1.
          1   -1    0    0  501    0  0.00000000000E+00 -0.00000000000E+00 -0.17379170547E+04  0.17379170547E+04  0.00000000000E+00 0. -1.
         23    2    1    2    0    0 -0.59407682135E+03  0.68357206137E+02 -0.40300326369E+02  0.60537772006E+03  0.85194426739E+02 0.  0.
        254    2    1    2    0    0  0.59407682135E+03 -0.68357206137E+02 -0.12106426344E+04  0.16195134286E+04  0.89418576359E+03 0.  0.
        -24    2    4    4    0    0  0.55011958411E+03 -0.39925361611E+03 -0.56168251539E+03  0.88557165628E+03  0.81944514844E+02 0.  0.
         24    2    4    4    0    0  0.43957237235E+02  0.33089640998E+03 -0.64896011905E+03  0.73394177232E+03  0.78080831172E+02 0.  0.
         11    1    3    3    0    0 -0.52543008734E+03  0.84072048580E+02 -0.21773231487E+02  0.53255887904E+03  0.00000000000E+00 0.  1.
        -11    1    3    3    0    0 -0.68646734005E+02 -0.15714842442E+02 -0.18527094882E+02  0.72818841019E+02  0.00000000000E+00 0. -1.
          2    1    6    6  502    0  0.15396183755E+02  0.24331828900E+02 -0.24920139187E+02  0.38080095968E+02  0.00000000000E+00 0. -1.
          3    1    5    5  503    0  0.14740792928E+03 -0.66675511078E+02 -0.14856792971E+03  0.21965234151E+03  0.00000000000E+00 0. -1.
         -4    1    5    5    0  503  0.40271165483E+03 -0.33257810504E+03 -0.41311458567E+03  0.66591931477E+03  0.00000000000E+00 0.  1.
         -1    1    6    6    0  502  0.28561053480E+02  0.30656458108E+03 -0.62403997986E+03  0.69586167635E+03  0.00000000000E+00 0.  1.
<mgrwt>
<rscale>  0 0.18399137E+04</rscale>
<asrwt>0</asrwt>
<pdfrwt beam="1">  1        1 0.26737186E+00 0.18399137E+04</pdfrwt>
<pdfrwt beam="2">  1       -1 0.74919090E-01 0.18399137E+04</pdfrwt>
<totfact> 0.75664199E+00</totfact>
</mgrwt>
</event>
<event>
12    1  0.1536832E-007  0.1282371E+04  0.7818608E-02  0.9043663E-01
          2   -1    0    0  501    0  0.00000000000E+00  0.00000000000E+00  0.21854972154E+04  0.21854972154E+04  0.00000000000E+00 0. -1.
         -2   -1    0    0    0  501 -0.00000000000E+00 -0.00000000000E+00 -0.18811221950E+03  0.18811221950E+03  0.00000000000E+00 0.  1.
         23    2    1    2    0    0 -0.27060088127E+03 -0.16503898736E+03  0.46226526545E+03  0.56794656811E+03  0.91713817376E+02 0.  0.
        254    2    1    2    0    0  0.27060088127E+03  0.16503898736E+03  0.15351197305E+04  0.18056628668E+04  0.89630524787E+03 0.  0.
        -24    2    4    4    0    0 -0.36158966464E+02  0.48917882279E+03  0.82706511692E+03  0.96486291173E+03  0.79500561551E+02 0.  0.
         24    2    4    4    0    0  0.30675984773E+03 -0.32413983542E+03  0.70805461355E+03  0.84079995507E+03  0.80218399294E+02 0.  0.
         13    1    3    3    0    0 -0.12635957405E+03 -0.11714605920E+03  0.19281221237E+03  0.25858555718E+03  0.00000000000E+00 0.  1.
        -13    1    3    3    0    0 -0.14424130722E+03 -0.47892928165E+02  0.26945305307E+03  0.30936101094E+03  0.00000000000E+00 0. -1.
          2    1    6    6  502    0  0.22296406638E+02 -0.54068579219E+02  0.12601107541E+03  0.13892203617E+03  0.00000000000E+00 0. -1.
          1    1    5    5  503    0 -0.57653848656E+02  0.24632596681E+03  0.43215482469E+03  0.50075766664E+03  0.00000000000E+00 0. -1.
         -2    1    5    5    0  503  0.21494882192E+02  0.24285285597E+03  0.39491029223E+03  0.46410524509E+03  0.00000000000E+00 0.  1.
         -1    1    6    6    0  502  0.28446344109E+03 -0.27007125620E+03  0.58204353814E+03  0.70187791890E+03  0.00000000000E+00 0.  1.
<mgrwt>
<rscale>  0 0.12823708E+04</rscale>
<asrwt>0</asrwt>
<pdfrwt beam="1">  1        2 0.33623032E+00 0.12823708E+04</pdfrwt>
<pdfrwt beam="2">  1       -2 0.28940343E-01 0.12823708E+04</pdfrwt>
<totfact> 0.56739697E+01</totfact>
</mgrwt>
</event>
<event>
12    1  0.1536832E-007  0.3507272E+04  0.7818608E-02  0.8112069E-01
         -2   -1    0    0    0  501 -0.00000000000E+00  0.00000000000E+00  0.85167375942E+03  0.85167375942E+03  0.00000000000E+00 0.  1.
          2   -1    0    0  501    0  0.00000000000E+00 -0.00000000000E+00 -0.36108176377E+04  0.36108176377E+04  0.00000000000E+00 0. -1.
         23    2    1    2    0    0 -0.95585323839E+02 -0.15903344662E+04 -0.17670501260E+04  0.23808764280E+04  0.88352413795E+02 0.  0.
        254    2    1    2    0    0  0.95585323839E+02  0.15903344662E+04 -0.99209375224E+03  0.20816149691E+04  0.90031694284E+03 0.  0.
        -24    2    4    4    0    0  0.52730032499E+02 -0.98167904280E+02 -0.10256052459E+03  0.17093055913E+03  0.79254028818E+02 0.  0.
         24    2    4    4    0    0  0.42855291340E+02  0.16885023705E+04 -0.88953322765E+03  0.19106844099E+04  0.81047640416E+02 0.  0.
         13    1    3    3    0    0  0.47697803390E+01 -0.76932069657E+02 -0.62613499904E+02  0.99306316598E+02  0.00000000000E+00 0. -1.
        -13    1    3    3    0    0 -0.10035510418E+03 -0.15134023966E+04 -0.17044366261E+04  0.22815701114E+04  0.00000000000E+00 0.  1.
          4    1    6    6  502    0  0.34000591152E+02  0.15063106360E+04 -0.82076167868E+03  0.17157440093E+04  0.00000000000E+00 0. -1.
          3    1    5    5  503    0  0.51625080820E+02 -0.10061934850E+03 -0.11316729873E+03  0.15998824883E+03  0.00000000000E+00 0. -1.
         -4    1    5    5    0  503  0.11049516796E+01  0.24514442185E+01  0.10606774145E+02  0.10942310301E+02  0.00000000000E+00 0.  1.
         -3    1    6    6    0  502  0.88547001882E+01  0.18219173454E+03 -0.68771548968E+02  0.19494040063E+03  0.00000000000E+00 0.  1.
<mgrwt>
<rscale>  0 0.35072717E+04</rscale>
<asrwt>0</asrwt>
<pdfrwt beam="1">  1        2 0.55551040E+00 0.35072717E+04</pdfrwt>
<pdfrwt beam="2">  1       -2 0.13102673E+00 0.35072717E+04</pdfrwt>
<totfact> 0.23664302E-01</totfact>
</mgrwt>
</event>
<event>
12    1  0.1536832E-007  0.1414597E+04  0.7818608E-02  0.8943320E-01
         -1   -1    0    0    0  501 -0.00000000000E+00  0.00000000000E+00  0.43474536027E+03  0.43474536027E+03  0.00000000000E+00 0.  1.
          1   -1    0    0  501    0  0.00000000000E+00 -0.00000000000E+00 -0.11507227476E+04  0.11507227476E+04  0.00000000000E+00 0. -1.
         23    2    1    2    0    0  0.32146958786E+03  0.15443941158E+03  0.21318621694E+02  0.36868527664E+03  0.90995174671E+02 0.  0.
        254    2    1    2    0    0 -0.32146958786E+03 -0.15443941158E+03 -0.73729600901E+03  0.12167828312E+04  0.89986711555E+03 0.  0.
        -24    2    4    4    0    0  0.39910183799E+02  0.28823682113E+03 -0.33109061471E+02  0.30638688023E+03  0.90019012456E+02 0.  0.
         24    2    4    4    0    0 -0.36137977166E+03 -0.44267623271E+03 -0.70418694753E+03  0.91039595097E+03  0.79899587583E+02 0.  0.
         13    1    3    3    0    0  0.29612497296E+03  0.11166503304E+03  0.55584028493E+01  0.31652800043E+03  0.00000000000E+00 0.  1.
        -13    1    3    3    0    0  0.25344614903E+02  0.42774378539E+02  0.15760218845E+02  0.52157276214E+02  0.00000000000E+00 0. -1.
          2    1    6    6  502    0 -0.16311046998E+03 -0.15919901603E+03 -0.23395817596E+03  0.32662789259E+03  0.00000000000E+00 0. -1.
          1    1    5    5  503    0  0.68420368815E+02  0.17934980482E+03 -0.24206002304E+02  0.19347772457E+03  0.00000000000E+00 0. -1.
         -2    1    5    5    0  503 -0.28510185016E+02  0.10888701630E+03 -0.89030591666E+01  0.11290915566E+03  0.00000000000E+00 0.  1.
         -1    1    6    6    0  502 -0.19826930168E+03 -0.28347721667E+03 -0.47022877158E+03  0.58376805838E+03  0.00000000000E+00 0.  1.
<mgrwt>
<rscale>  0 0.14145973E+04</rscale>
<asrwt>0</asrwt>
<pdfrwt beam="1">  1        1 0.17703427E+00 0.14145973E+04</pdfrwt>
<pdfrwt beam="2">  1       -1 0.66883901E-01 0.14145973E+04</pdfrwt>
<totfact> 0.25626656E+01</totfact>
</mgrwt>
</event>
<event>
12    1  0.1536832E-007  0.2269125E+04  0.7818608E-02  0.8490195E-01
         -2   -1    0    0    0  501 -0.00000000000E+00  0.00000000000E+00  0.89799814568E+03  0.89799814568E+03  0.00000000000E+00 0.  1.
          2   -1    0    0  501    0  0.00000000000E+00 -0.00000000000E+00 -0.14334459990E+04  0.14334459990E+04  0.00000000000E+00 0. -1.
         23    2    1    2    0    0 -0.99057447397E+02 -0.23241803513E+03  0.71842900550E+03  0.76698265049E+03  0.91058383847E+02 0.  0.
        254    2    1    2    0    0  0.99057447397E+02  0.23241803513E+03 -0.12538768588E+04  0.15644614942E+04  0.90083409614E+03 0.  0.
        -24    2    4    4    0    0 -0.38092304636E+03  0.49530892710E+02 -0.71625924641E+03  0.81671244559E+03  0.80226143594E+02 0.  0.
         24    2    4    4    0    0  0.47998049376E+03  0.18288714242E+03 -0.53761761236E+03  0.74774904857E+03  0.79164141215E+02 0.  0.
         11    1    3    3    0    0 -0.22862182149E+01 -0.75434031586E+02  0.30655579458E+03  0.31570868709E+03  0.00000000000E+00 0. -1.
        -11    1    3    3    0    0 -0.96771229182E+02 -0.15698400355E+03  0.41187321092E+03  0.45127396340E+03  0.00000000000E+00 0.  1.
          4    1    6    6  502    0  0.23655771703E+03  0.73813322477E+02 -0.31162248575E+03  0.39814134888E+03  0.00000000000E+00 0. -1.
          1    1    5    5  503    0 -0.88049105402E+02  0.46384263417E+02 -0.18387186566E+03  0.20907655975E+03  0.00000000000E+00 0. -1.
         -2    1    5    5    0  503 -0.29287394096E+03  0.31466292927E+01 -0.53238738076E+03  0.60763588584E+03  0.00000000000E+00 0.  1.
         -3    1    6    6    0  502  0.24342277673E+03  0.10907381995E+03 -0.22599512662E+03  0.34960769969E+03  0.00000000000E+00 0.  1.
<mgrwt>
<rscale>  0 0.22691248E+04</rscale>
<asrwt>0</asrwt>
<pdfrwt beam="1">  1        2 0.22053015E+00 0.22691248E+04</pdfrwt>
<pdfrwt beam="2">  1       -2 0.13815356E+00 0.22691248E+04</pdfrwt>
<totfact> 0.46797261E+00</totfact>
</mgrwt>
</event>
<event>
12    1  0.1536832E-007  0.2216962E+04  0.7818608E-02  0.8511401E-01
         -1   -1    0    0    0  501 -0.00000000000E+00  0.00000000000E+00  0.87349531488E+03  0.87349531488E+03  0.00000000000E+00 0.  1.
          1   -1    0    0  501    0  0.00000000000E+00 -0.00000000000E+00 -0.14066822927E+04  0.14066822927E+04  0.00000000000E+00 0. -1.
         23    2    1    2    0    0 -0.70560891879E+03  0.47643088434E+03  0.13261530737E+03  0.86634845082E+03  0.90013802609E+02 0.  0.
        254    2    1    2    0    0  0.70560891879E+03 -0.47643088434E+03 -0.66580228522E+03  0.14138291568E+04  0.91145480842E+03 0.  0.
        -24    2    4    4    0    0  0.74653554354E+03 -0.62766224100E+03 -0.73549259835E+03  0.12243904316E+04  0.83110530045E+02 0.  0.
         24    2    4    4    0    0 -0.40926624757E+02  0.15123135667E+03  0.69690313129E+02  0.18943872520E+03  0.80525641931E+02 0.  0.
         11    1    3    3    0    0 -0.70131417128E+03  0.47495726756E+03  0.13917763185E+03  0.85836844423E+03  0.00000000000E+00 0.  1.
        -11    1    3    3    0    0 -0.42947475029E+01  0.14736167828E+01 -0.65623244771E+01  0.79800065839E+01  0.00000000000E+00 0. -1.
          4    1    6    6  502    0 -0.15684322502E+01  0.78548821167E+01 -0.15956551703E+02  0.17854150639E+02  0.00000000000E+00 0. -1.
          1    1    5    5  503    0  0.73540685341E+02 -0.35150641321E+02 -0.74565933343E+02  0.11047116547E+03  0.00000000000E+00 0. -1.
         -4    1    5    5    0  503  0.67299485820E+03 -0.59251159968E+03 -0.66092666501E+03  0.11139192661E+04  0.00000000000E+00 0.  1.
         -3    1    6    6    0  502 -0.39358192507E+02  0.14337647455E+03  0.85646864832E+02  0.17158457456E+03  0.00000000000E+00 0.  1.
<mgrwt>
<rscale>  0 0.22169622E+04</rscale>
<asrwt>0</asrwt>
<pdfrwt beam="1">  1        1 0.21641266E+00 0.22169622E+04</pdfrwt>
<pdfrwt beam="2">  1       -1 0.13438390E+00 0.22169622E+04</pdfrwt>
<totfact> 0.32249665E+00</totfact>
</mgrwt>
</event>
<event>
12    1  0.1536832E-007  0.1711667E+04  0.7818608E-02  0.8754738E-01
         -2   -1    0    0    0  501 -0.00000000000E+00  0.00000000000E+00  0.38646198261E+03  0.38646198261E+03  0.00000000000E+00 0.  1.
          2   -1    0    0  501    0  0.00000000000E+00 -0.00000000000E+00 -0.18952738094E+04  0.18952738094E+04  0.00000000000E+00 0. -1.
         23    2    1    2    0    0  0.25929399386E+03  0.91253953462E+02  0.19651627831E+03  0.35022035991E+03  0.92059728328E+02 0.  0.
        254    2    1    2    0    0 -0.25929399386E+03 -0.91253953462E+02 -0.17053281051E+04  0.19315154321E+04  0.86431895677E+03 0.  0.
        -24    2    4    4    0    0 -0.40051295743E+03  0.20557055299E+03 -0.14134276088E+04  0.14850325042E+04  0.69814409653E+02 0.  0.
         24    2    4    4    0    0  0.14121896357E+03 -0.29682450645E+03 -0.29190049626E+03  0.44648292787E+03  0.78061013731E+02 0.  0.
         11    1    3    3    0    0  0.20080451357E+02 -0.16891010020E+02  0.27413406754E+02  0.37947669442E+02  0.00000000000E+00 0. -1.
        -11    1    3    3    0    0  0.23921354251E+03  0.10814496348E+03  0.16910287156E+03  0.31227269047E+03  0.00000000000E+00 0.  1.
          4    1    6    6  502    0  0.11213090706E+03 -0.28449401423E+03 -0.27104559284E+03  0.40862684426E+03  0.00000000000E+00 0. -1.
          1    1    5    5  503    0 -0.37518423727E+03  0.20765131170E+03 -0.13571094208E+04  0.14232456778E+04  0.00000000000E+00 0. -1.
         -2    1    5    5    0  503 -0.25328720165E+02 -0.20807587146E+01 -0.56318187968E+02  0.61786826411E+02  0.00000000000E+00 0.  1.
         -3    1    6    6    0  502  0.29088056512E+02 -0.12330492219E+02 -0.20854903420E+02  0.37856083615E+02  0.00000000000E+00 0.  1.
<mgrwt>
<rscale>  0 0.17116673E+04</rscale>
<asrwt>0</asrwt>
<pdfrwt beam="1">  1        2 0.29158059E+00 0.17116673E+04</pdfrwt>
<pdfrwt beam="2">  1       -2 0.59455688E-01 0.17116673E+04</pdfrwt>
<totfact> 0.19175543E+01</totfact>
</mgrwt>
</event>
<event>
12    1  0.1536832E-007  0.1985902E+04  0.7818608E-02  0.8613240E-01
         -1   -1    0    0    0  501 -0.00000000000E+00  0.00000000000E+00  0.44932994337E+03  0.44932994337E+03  0.00000000000E+00 0.  1.
          1   -1    0    0  501    0  0.00000000000E+00 -0.00000000000E+00 -0.21942707336E+04  0.21942707336E+04  0.00000000000E+00 0. -1.
         23    2    1    2    0    0  0.27841199774E+03  0.23880600321E+03  0.23173289319E+03  0.44339535098E+03  0.91420762574E+02 0.  0.
        254    2    1    2    0    0 -0.27841199774E+03 -0.23880600321E+03 -0.19766736834E+04  0.22002053260E+04  0.89393684235E+03 0.  0.
        -24    2    4    4    0    0 -0.18831215241E+03 -0.24004118877E+03 -0.20397448473E+04  0.20640782858E+04  0.82334006068E+02 0.  0.
         24    2    4    4    0    0 -0.90099845331E+02  0.12351855621E+01  0.63071163912E+02  0.13612704021E+03  0.80206555505E+02 0.  0.
         11    1    3    3    0    0  0.19534460105E+03  0.19441584202E+03  0.21063310468E+03  0.34687654515E+03  0.00000000000E+00 0.  1.
        -11    1    3    3    0    0  0.83067396693E+02  0.44390161185E+02  0.21099788508E+02  0.96518805828E+02  0.00000000000E+00 0. -1.
          2    1    6    6  502    0  0.22786498021E+01 -0.42987433239E+01  0.40604426918E+02  0.40894876505E+02  0.00000000000E+00 0. -1.
          3    1    5    5  503    0 -0.25520532783E+02 -0.77201706254E+02 -0.69796815860E+03  0.70268837436E+03  0.00000000000E+00 0. -1.
         -4    1    5    5    0  503 -0.16279161963E+03 -0.16283948251E+03 -0.13417766887E+04  0.13613899114E+04  0.00000000000E+00 0.  1.
         -1    1    6    6    0  502 -0.92378495133E+02  0.55339288860E+01  0.22466736995E+02  0.95232163700E+02  0.00000000000E+00 0.  1.
<mgrwt>
<rscale>  0 0.19859019E+04</rscale>
<asrwt>0</asrwt>
<pdfrwt beam="1">  1        1 0.33758010E+00 0.19859019E+04</pdfrwt>
<pdfrwt beam="2">  1       -1 0.69127686E-01 0.19859019E+04</pdfrwt>
<totfact> 0.43226700E+00</totfact>
</mgrwt>
</event>
<event>
12    1  0.1536832E-007  0.1806868E+04  0.7818608E-02  0.8702656E-01
          2   -1    0    0  501    0  0.00000000000E+00  0.00000000000E+00  0.17145858874E+04  0.17145858874E+04  0.00000000000E+00 0. -1.
         -2   -1    0    0    0  501 -0.00000000000E+00 -0.00000000000E+00 -0.47602923174E+03  0.47602923174E+03  0.00000000000E+00 0.  1.
         23    2    1    2    0    0  0.13846481683E+03  0.57248814946E+03  0.83853100632E+03  0.10289461338E+04  0.93170332920E+02 0.  0.
        254    2    1    2    0    0 -0.13846481683E+03 -0.57248814946E+03  0.40002564930E+03  0.11616689853E+04  0.91789929977E+03 0.  0.
        -24    2    4    4    0    0  0.28460967065E+03 -0.57184036227E+02 -0.10758112379E+03  0.31987885189E+03  0.80474238505E+02 0.  0.
         24    2    4    4    0    0 -0.42307448748E+03 -0.51530411323E+03  0.50760677309E+03  0.84179013341E+03  0.80097699999E+02 0.  0.
         13    1    3    3    0    0  0.14332456175E+03  0.53719109438E+03  0.81374016911E+03  0.98554008782E+03  0.00000000000E+00 0. -1.
        -13    1    3    3    0    0 -0.48597449201E+01  0.35297055083E+02  0.24790837209E+02  0.43406045982E+02  0.00000000000E+00 0.  1.
          2    1    6    6  502    0 -0.23832359527E+03 -0.22749450175E+03  0.25411007644E+03  0.41608150084E+03  0.00000000000E+00 0. -1.
          1    1    5    5  503    0  0.82111723579E+01  0.77659973042E+01  0.74479663232E+01  0.13535370995E+02  0.00000000000E+00 0. -1.
         -4    1    5    5    0  503  0.27639849829E+03 -0.64950033532E+02 -0.11502909011E+03  0.30634348089E+03  0.00000000000E+00 0.  1.
         -1    1    6    6    0  502 -0.18475089220E+03 -0.28780961148E+03  0.25349669665E+03  0.42570863257E+03  0.00000000000E+00 0.  1.
<mgrwt>
<rscale>  0 0.18068680E+04</rscale>
<asrwt>0</asrwt>
<pdfrwt beam="1">  1        2 0.26378244E+00 0.18068680E+04</pdfrwt>
<pdfrwt beam="2">  1       -2 0.73235267E-01 0.18068680E+04</pdfrwt>
<totfact> 0.15285593E+01</totfact>
</mgrwt>
</event>
<event>
12    1  0.1536832E-007  0.1647797E+04  0.7818608E-02  0.8791711E-01
          1   -1    0    0  501    0  0.00000000000E+00  0.00000000000E+00  0.13126318861E+04  0.13126318861E+04  0.00000000000E+00 0. -1.
         -1   -1    0    0    0  501 -0.00000000000E+00 -0.00000000000E+00 -0.51713568310E+03  0.51713568310E+03  0.00000000000E+00 0.  1.
         23    2    1    2    0    0  0.29940171572E+03  0.35771866596E+03  0.65328787231E+03  0.80921694793E+03  0.10219096518E+03 0.  0.
        254    2    1    2    0    0 -0.29940171572E+03 -0.35771866596E+03  0.14220833072E+03  0.10205506213E+04  0.89649112096E+03 0.  0.
        -24    2    4    4    0    0 -0.11898210738E+03 -0.60367223465E+03  0.27423585291E+03  0.67857669741E+03  0.81756482800E+02 0.  0.
         24    2    4    4    0    0 -0.18041960833E+03  0.24595356869E+03 -0.13202752219E+03  0.34197392389E+03  0.80439449168E+02 0.  0.
         13    1    3    3    0    0  0.11630004495E+03  0.86182580363E+02  0.25849951778E+03  0.29626869275E+03  0.00000000000E+00 0.  1.
        -13    1    3    3    0    0  0.18310167076E+03  0.27153608559E+03  0.39478835453E+03  0.51294825517E+03  0.00000000000E+00 0. -1.
          2    1    6    6  502    0 -0.58720099081E+02  0.79400176657E+02 -0.32696145570E+01  0.98808544512E+02  0.00000000000E+00 0. -1.
          1    1    5    5  503    0 -0.11655145109E+02 -0.53561446431E+01  0.58337740383E+01  0.14091260145E+02  0.00000000000E+00 0. -1.
         -2    1    5    5    0  503 -0.10732696227E+03 -0.59831609001E+03  0.26840207887E+03  0.66448543726E+03  0.00000000000E+00 0.  1.
         -1    1    6    6    0  502 -0.12169950925E+03  0.16655339204E+03 -0.12875790763E+03  0.24316537938E+03  0.00000000000E+00 0.  1.
<mgrwt>
<rscale>  0 0.16477971E+04</rscale>
<asrwt>0</asrwt>
<pdfrwt beam="1">  1        1 0.20194337E+00 0.16477971E+04</pdfrwt>
<pdfrwt beam="2">  1       -1 0.79559336E-01 0.16477971E+04</pdfrwt>
<totfact> 0.13365345E+01</totfact>
</mgrwt>
</event>
<event>
12    1  0.1536832E-007  0.1128265E+04  0.7818608E-02  0.9178073E-01
          1   -1    0    0  501    0  0.00000000000E+00  0.00000000000E+00  0.12951030155E+04  0.12951030155E+04  0.00000000000E+00 0. -1.
         -1   -1    0    0    0  501 -0.00000000000E+00 -0.00000000000E+00 -0.24572972528E+03  0.24572972528E+03  0.00000000000E+00 0.  1.
         23    2    1    2    0    0  0.10546423353E+03  0.23152594618E+02 -0.25472502200E+02  0.14339562888E+03  0.90855439141E+02 0.  0.
        254    2    1    2    0    0 -0.10546423353E+03 -0.23152594618E+02  0.10748457924E+04  0.13974371119E+04  0.88649774792E+03 0.  0.
        -24    2    4    4    0    0 -0.45351281711E+03  0.12284102132E+03  0.76694665619E+03  0.90269327030E+03  0.76708376404E+02 0.  0.
         24    2    4    4    0    0  0.34804858358E+03 -0.14599361593E+03  0.30789913621E+03  0.49474384159E+03  0.86704315263E+02 0.  0.
         11    1    3    3    0    0 -0.15544809239E+02 -0.19754521686E+01  0.43411144316E+01  0.16260036287E+02  0.00000000000E+00 0. -1.
        -11    1    3    3    0    0  0.12100904277E+03  0.25128046786E+02 -0.29813616631E+02  0.12713559259E+03  0.00000000000E+00 0.  1.
          2    1    6    6  502    0  0.38247782869E+02  0.84512467480E+01  0.17500946407E+02  0.42902209630E+02  0.00000000000E+00 0. -1.
          1    1    5    5  503    0 -0.17038355508E+03  0.25249292190E+02  0.34061777846E+03  0.38169169967E+03  0.00000000000E+00 0. -1.
         -2    1    5    5    0  503 -0.28312926203E+03  0.97591729126E+02  0.42632887773E+03  0.52100157063E+03  0.00000000000E+00 0.  1.
         -1    1    6    6    0  502  0.30980080071E+03 -0.15444486268E+03  0.29039818980E+03  0.45184163196E+03  0.00000000000E+00 0.  1.
<mgrwt>
<rscale>  0 0.11282647E+04</rscale>
<asrwt>0</asrwt>
<pdfrwt beam="1">  1        1 0.19924661E+00 0.11282647E+04</pdfrwt>
<pdfrwt beam="2">  1       -1 0.37804574E-01 0.11282647E+04</pdfrwt>
<totfact> 0.61199881E+01</totfact>
</mgrwt>
</event>
<event>
12    1  0.1536832E-007  0.1714904E+04  0.7818608E-02  0.8752910E-01
         -2   -1    0    0    0  501 -0.00000000000E+00  0.00000000000E+00  0.16215274447E+04  0.16215274447E+04  0.00000000000E+00 0.  1.
          2   -1    0    0  501    0  0.00000000000E+00 -0.00000000000E+00 -0.45341418233E+03  0.45341418233E+03  0.00000000000E+00 0. -1.
         23    2    1    2    0    0  0.37817845522E+02  0.41719183119E+03  0.96805286807E+03  0.10588531367E+04  0.92544022928E+02 0.  0.
        254    2    1    2    0    0 -0.37817845522E+02 -0.41719183119E+03  0.20006039426E+03  0.10160884903E+04  0.90384315310E+03 0.  0.
        -24    2    4    4    0    0  0.14375412137E+03  0.10335980596E+03 -0.23830546329E+03  0.30718123096E+03  0.78881670384E+02 0.  0.
         24    2    4    4    0    0 -0.18157196690E+03 -0.52055163715E+03  0.43836585755E+03  0.70890725938E+03  0.80265130845E+02 0.  0.
         13    1    3    3    0    0  0.98384268304E+01  0.20491316419E+03  0.36199621795E+03  0.41608588213E+03  0.00000000000E+00 0.  1.
        -13    1    3    3    0    0  0.27979418692E+02  0.21227866700E+03  0.60605665012E+03  0.64276725452E+03  0.00000000000E+00 0. -1.
          4    1    6    6  502    0 -0.61977665576E+02 -0.97567459012E+02  0.11638697282E+03  0.16403221492E+03  0.00000000000E+00 0. -1.
          1    1    5    5  503    0  0.60891355416E+02  0.31675478969E+00 -0.63230901294E+02  0.87783850317E+02  0.00000000000E+00 0. -1.
         -2    1    5    5    0  503  0.82862765959E+02  0.10304305117E+03 -0.17507456199E+03  0.21939738065E+03  0.00000000000E+00 0.  1.
         -3    1    6    6    0  502 -0.11959430132E+03 -0.42298417814E+03  0.32197888473E+03  0.54487504446E+03  0.00000000000E+00 0.  1.
<mgrwt>
<rscale>  0 0.17149035E+04</rscale>
<asrwt>0</asrwt>
<pdfrwt beam="1">  1        2 0.69756029E-01 0.17149035E+04</pdfrwt>
<pdfrwt beam="2">  1       -2 0.24946576E+00 0.17149035E+04</pdfrwt>
<totfact> 0.42432813E+00</totfact>
</mgrwt>
</event>
<event>
12    1  0.1536832E-007  0.3414616E+04  0.7818608E-02  0.8134328E-01
          2   -1    0    0  501    0  0.00000000000E+00  0.00000000000E+00  0.12288798950E+04  0.12288798950E+04  0.00000000000E+00 0. -1.
         -2   -1    0    0    0  501 -0.00000000000E+00 -0.00000000000E+00 -0.23719975818E+04  0.23719975818E+04  0.00000000000E+00 0.  1.
         23    2    1    2    0    0 -0.64636585034E+03 -0.41399669130E+03  0.93294530072E+03  0.12125134772E+04  0.10305302188E+03 0.  0.
        254    2    1    2    0    0  0.64636585034E+03  0.41399669130E+03 -0.20760629875E+04  0.23883639997E+04  0.89725302666E+03 0.  0.
        -24    2    4    4    0    0  0.27077592842E+03  0.22939356803E+03 -0.18879731514E+04  0.19226447224E+04  0.78607224880E+02 0.  0.
         24    2    4    4    0    0  0.37558992193E+03  0.18460312327E+03 -0.18808983616E+03  0.46571927728E+03  0.79815764036E+02 0.  0.
         11    1    3    3    0    0 -0.21315275868E+03 -0.99411671702E+02  0.23064010983E+03  0.32941104910E+03  0.00000000000E+00 0.  1.
        -11    1    3    3    0    0 -0.43321309166E+03 -0.31458501960E+03  0.70230519089E+03  0.88310242809E+03  0.00000000000E+00 0. -1.
          2    1    6    6  502    0  0.22674143261E+03  0.14890214810E+03 -0.99977128982E+02  0.28910024782E+03  0.00000000000E+00 0. -1.
          1    1    5    5  503    0  0.21509802918E+03  0.13972999904E+03 -0.12566985657E+04  0.12826078589E+04  0.00000000000E+00 0. -1.
         -2    1    5    5    0  503  0.55677899237E+02  0.89663568989E+02 -0.63127458571E+03  0.64003686349E+03  0.00000000000E+00 0.  1.
         -3    1    6    6    0  502  0.14884848932E+03  0.35700975166E+02 -0.88112707178E+02  0.17661902946E+03  0.00000000000E+00 0.  1.
<mgrwt>
<rscale>  0 0.34146157E+04</rscale>
<asrwt>0</asrwt>
<pdfrwt beam="1">  1        2 0.18905845E+00 0.34146157E+04</pdfrwt>
<pdfrwt beam="2">  1       -2 0.36492270E+00 0.34146157E+04</pdfrwt>
<totfact> 0.18835044E-01</totfact>
</mgrwt>
</event>
<event>
12    1  0.1536832E-007  0.1891729E+04  0.7818608E-02  0.8658985E-01
         -2   -1    0    0    0  501 -0.00000000000E+00  0.00000000000E+00  0.78376807747E+03  0.78376807747E+03  0.00000000000E+00 0.  1.
          2   -1    0    0  501    0  0.00000000000E+00 -0.00000000000E+00 -0.11414847992E+04  0.11414847992E+04  0.00000000000E+00 0. -1.
         23    2    1    2    0    0  0.46273230089E+03  0.47761207005E+03 -0.43578866454E+03  0.80032195480E+03  0.91482235684E+02 0.  0.
        254    2    1    2    0    0 -0.46273230089E+03 -0.47761207005E+03  0.78071942785E+02  0.11249309219E+04  0.90395789672E+03 0.  0.
        -24    2    4    4    0    0 -0.31242512862E+03  0.13750476176E+03 -0.22714646784E+03  0.41724168369E+03  0.77318071991E+02 0.  0.
         24    2    4    4    0    0 -0.15030717227E+03 -0.61511683181E+03  0.30521841063E+03  0.70768923820E+03  0.81882946087E+02 0.  0.
         11    1    3    3    0    0  0.17995283102E+03  0.20681009756E+03 -0.12933905199E+03  0.30312048465E+03  0.00000000000E+00 0. -1.
        -11    1    3    3    0    0  0.28277946987E+03  0.27080197249E+03 -0.30644961255E+03  0.49720147015E+03  0.00000000000E+00 0.  1.
          4    1    6    6  502    0 -0.45656020833E+02 -0.35583251304E+03  0.17861417814E+03  0.40075463093E+03  0.00000000000E+00 0. -1.
          3    1    5    5  503    0 -0.22263159838E+03  0.10147464508E+03 -0.11880278810E+03  0.27198535742E+03  0.00000000000E+00 0. -1.
         -4    1    5    5    0  503 -0.89793530237E+02  0.36030116682E+02 -0.10834367975E+03  0.14525632627E+03  0.00000000000E+00 0.  1.
         -3    1    6    6    0  502 -0.10465115144E+03 -0.25928431877E+03  0.12660423249E+03  0.30693460727E+03  0.00000000000E+00 0.  1.
<mgrwt>
<rscale>  0 0.18917287E+04</rscale>
<asrwt>0</asrwt>
<pdfrwt beam="1">  1        2 0.17561305E+00 0.18917287E+04</pdfrwt>
<pdfrwt beam="2">  1       -2 0.12057970E+00 0.18917287E+04</pdfrwt>
<totfact> 0.10104125E+01</totfact>
</mgrwt>
</event>
<event>
12    1  0.1536832E-007  0.1846865E+04  0.7818608E-02  0.8681767E-01
         -1   -1    0    0    0  501 -0.00000000000E+00  0.00000000000E+00  0.29568046202E+03  0.29568046202E+03  0.00000000000E+00 0.  1.
          1   -1    0    0  501    0  0.00000000000E+00 -0.00000000000E+00 -0.28839486080E+04  0.28839486080E+04  0.00000000000E+00 0. -1.
         23    2    1    2    0    0  0.48747035882E+03 -0.42774987537E+03 -0.57246656465E+03  0.86970677822E+03  0.89858810619E+02 0.  0.
        254    2    1    2    0    0 -0.48747035882E+03  0.42774987537E+03 -0.20158015813E+04  0.23099222918E+04  0.92286926064E+03 0.  0.
        -24    2    4    4    0    0 -0.44046144036E+03  0.69839339236E+03 -0.13347456463E+04  0.15715509176E+04  0.80416015295E+02 0.  0.
         24    2    4    4    0    0 -0.47008918457E+02 -0.27064351698E+03 -0.68105593507E+03  0.73837137418E+03  0.76794191293E+02 0.  0.
         11    1    3    3    0    0  0.46093838207E+03 -0.37226198607E+03 -0.53017056604E+03  0.79506226638E+03  0.00000000000E+00 0. -1.
        -11    1    3    3    0    0  0.26531976750E+02 -0.55487889306E+02 -0.42295998610E+02  0.74644511843E+02  0.00000000000E+00 0.  1.
          4    1    6    6  502    0  0.11841395157E+02 -0.13029459888E+03 -0.36095408516E+03  0.38393326599E+03  0.00000000000E+00 0. -1.
          1    1    5    5  503    0 -0.40112281891E+03  0.59017547215E+03 -0.11730768086E+04  0.13730680255E+04  0.00000000000E+00 0. -1.
         -2    1    5    5    0  503 -0.39338621448E+02  0.10821792021E+03 -0.16166883765E+03  0.19848289210E+03  0.00000000000E+00 0.  1.
         -1    1    6    6    0  502 -0.58850313614E+02 -0.14034891811E+03 -0.32010184991E+03  0.35443810820E+03  0.00000000000E+00 0.  1.
<mgrwt>
<rscale>  0 0.18468646E+04</rscale>
<asrwt>0</asrwt>
<pdfrwt beam="1">  1        1 0.44368442E+00 0.18468646E+04</pdfrwt>
<pdfrwt beam="2">  1       -1 0.45489300E-01 0.18468646E+04</pdfrwt>
<totfact> 0.32800544E+00</totfact>
</mgrwt>
</event>
<event>
12    1  0.1536832E-007  0.2226256E+04  0.7818608E-02  0.8507579E-01
         -1   -1    0    0    0  501 -0.00000000000E+00  0.00000000000E+00  0.24620603623E+04  0.24620603623E+04  0.00000000000E+00 0. -1.
          1   -1    0    0  501    0  0.00000000000E+00 -0.00000000000E+00 -0.50325894560E+03  0.50325894560E+03  0.00000000000E+00 0.  1.
         23    2    1    2    0    0 -0.53805527468E+03  0.68292575760E+03  0.12029094017E+04  0.14869751688E+04  0.90625906884E+02 0.  0.
        254    2    1    2    0    0  0.53805527468E+03 -0.68292575760E+03  0.75589201497E+03  0.14783441391E+04  0.92641113237E+03 0.  0.
        -24    2    4    4    0    0  0.41228542973E+03 -0.63552906594E+03  0.57660595941E+02  0.76303673796E+03  0.70879121993E+02 0.  0.
         24    2    4    4    0    0  0.12576984495E+03 -0.47396691654E+02  0.69823141903E+03  0.71530740109E+03  0.77929861125E+02 0.  0.
         13    1    3    3    0    0 -0.37308588409E+03  0.49395218143E+03  0.78702203883E+03  0.10012919275E+04  0.00000000000E+00 0. -1.
        -13    1    3    3    0    0 -0.16496939058E+03  0.18897357617E+03  0.41588736285E+03  0.48568324132E+03  0.00000000000E+00 0.  1.
          4    1    6    6  502    0  0.37220318527E+02  0.16182065230E+02  0.11439632199E+03  0.12138257631E+03  0.00000000000E+00 0. -1.
          3    1    5    5  503    0  0.27825893430E+03 -0.36581273473E+03  0.39434629252E+02  0.46130475978E+03  0.00000000000E+00 0. -1.
         -4    1    5    5    0  503  0.13402649543E+03 -0.26971633121E+03  0.18225966689E+02  0.30173197819E+03  0.00000000000E+00 0.  1.
         -3    1    6    6    0  502  0.88549526421E+02 -0.63578756884E+02  0.58383509704E+03  0.59392482478E+03  0.00000000000E+00 0.  1.
<mgrwt>
<rscale>  0 0.22262560E+04</rscale>
<asrwt>0</asrwt>
<pdfrwt beam="1">  1        1 0.77424455E-01 0.22262560E+04</pdfrwt>
<pdfrwt beam="2">  1       -1 0.37877851E+00 0.22262560E+04</pdfrwt>
<totfact> 0.39880424E-01</totfact>
</mgrwt>
</event>
<event>
12    1  0.1573765E-007  0.2172647E+04  0.7818608E-02  0.8529900E-01
         -2   -1    0    0    0  501 -0.00000000000E+00  0.00000000000E+00  0.67608377541E+03  0.67608377541E+03  0.00000000000E+00 0.  1.
          2   -1    0    0  501    0  0.00000000000E+00 -0.00000000000E+00 -0.17454917045E+04  0.17454917045E+04  0.00000000000E+00 0. -1.
         23    2    1    2    0    0 -0.42064545439E+03 -0.72375881123E+03 -0.72268628388E+03  0.11096386366E+04  0.90846154900E+02 0.  0.
        254    2    1    2    0    0  0.42064545439E+03  0.72375881123E+03 -0.34672164523E+03  0.13119368433E+04  0.94878499483E+03 0.  0.
        -24    2    4    4    0    0  0.70554577716E+03  0.40026718633E+03 -0.13687715997E+03  0.82665617218E+03  0.81341293059E+02 0.  0.
         24    2    4    4    0    0 -0.28490032277E+03  0.32349162491E+03 -0.20984448526E+03  0.48528067113E+03  0.75150492233E+02 0.  0.
         11    1    3    3    0    0 -0.27011150289E+03 -0.48866775790E+03 -0.42630719660E+03  0.70249144299E+03  0.00000000000E+00 0. -1.
        -11    1    3    3    0    0 -0.15053395150E+03 -0.23509105333E+03 -0.29637908728E+03  0.40714719364E+03  0.00000000000E+00 0.  1.
          4    1    6    6  502    0 -0.28372232197E+03  0.29604762156E+03 -0.19499573196E+03  0.45405493687E+03  0.00000000000E+00 0. -1.
          3    1    5    5  503    0  0.68880061726E+03  0.37861720987E+03 -0.12172102187E+03  0.79536990709E+03  0.00000000000E+00 0. -1.
         -4    1    5    5    0  503  0.16745159905E+02  0.21649976458E+02 -0.15156138101E+02  0.31286265086E+02  0.00000000000E+00 0.  1.
         -3    1    6    6    0  502 -0.11780008000E+01  0.27444003350E+02 -0.14848753298E+02  0.31225734263E+02  0.00000000000E+00 0.  1.
<mgrwt>
<rscale>  0 0.21726469E+04</rscale>
<asrwt>0</asrwt>
<pdfrwt beam="1">  1        2 0.26853718E+00 0.21726469E+04</pdfrwt>
<pdfrwt beam="2">  1       -2 0.10401289E+00 0.21726469E+04</pdfrwt>
<totfact> 0.63733738E+00</totfact>
</mgrwt>
</event>
<event>
12    1  0.1536832E-007  0.1526445E+04  0.7818608E-02  0.8867055E-01
         -1   -1    0    0    0  501 -0.00000000000E+00  0.00000000000E+00  0.99139099286E+03  0.99139099286E+03  0.00000000000E+00 0.  1.
          1   -1    0    0  501    0  0.00000000000E+00 -0.00000000000E+00 -0.58756696028E+03  0.58756696028E+03  0.00000000000E+00 0. -1.
         23    2    1    2    0    0  0.21548709775E+03 -0.97562711942E+02 -0.29996188570E+03  0.39291807214E+03  0.91947302753E+02 0.  0.
        254    2    1    2    0    0 -0.21548709775E+03  0.97562711942E+02  0.70378591829E+03  0.11860398810E+04  0.92489070082E+03 0.  0.
        -24    2    4    4    0    0 -0.16105818504E+03 -0.37258946850E+03  0.53787788055E+03  0.67861638600E+03  0.80280346058E+02 0.  0.
         24    2    4    4    0    0 -0.54428912715E+02  0.47015218044E+03  0.16590803773E+03  0.50742349499E+03  0.77120340851E+02 0.  0.
         11    1    3    3    0    0  0.16040825860E+03 -0.98542064184E+02 -0.27291794765E+03  0.33155022845E+03  0.00000000000E+00 0. -1.
        -11    1    3    3    0    0  0.55078839155E+02  0.97935224190E+00 -0.27043938054E+02  0.61367843688E+02  0.00000000000E+00 0.  1.
          4    1    6    6  502    0 -0.28602397083E+02  0.42296313623E+03  0.16074698815E+03  0.45338229556E+03  0.00000000000E+00 0. -1.
          3    1    5    5  503    0 -0.65952718219E+02 -0.20462289878E+03  0.22667598953E+03  0.31241366164E+03  0.00000000000E+00 0. -1.
         -2    1    5    5    0  503 -0.95105466817E+02 -0.16796656972E+03  0.31120189102E+03  0.36620272437E+03  0.00000000000E+00 0.  1.
         -3    1    6    6    0  502 -0.25826515632E+02  0.47189044207E+02  0.51610495848E+01  0.54041199429E+02  0.00000000000E+00 0.  1.
<mgrwt>
<rscale>  0 0.15264450E+04</rscale>
<asrwt>0</asrwt>
<pdfrwt beam="1">  1        1 0.90394917E-01 0.15264450E+04</pdfrwt>
<pdfrwt beam="2">  1       -1 0.15252169E+00 0.15264450E+04</pdfrwt>
<totfact> 0.11363891E+01</totfact>
</mgrwt>
</event>
<event>
12    1  0.1536832E-007  0.1603883E+04  0.7818608E-02  0.8818166E-01
         -2   -1    0    0    0  501 -0.00000000000E+00  0.00000000000E+00  0.74337521859E+03  0.74337521859E+03  0.00000000000E+00 0.  1.
          2   -1    0    0  501    0  0.00000000000E+00 -0.00000000000E+00 -0.86512192908E+03  0.86512192908E+03  0.00000000000E+00 0. -1.
         23    2    1    2    0    0  0.27390997494E+03 -0.24432785251E+01  0.43042031143E+03  0.51940918619E+03  0.97424915835E+02 0.  0.
        254    2    1    2    0    0 -0.27390997494E+03  0.24432785251E+01 -0.55216702192E+03  0.10890879615E+04  0.89788168695E+03 0.  0.
        -24    2    4    4    0    0 -0.34111222571E+03 -0.25051827158E+01  0.14864777481E+03  0.38060607875E+03  0.80006248230E+02 0.  0.
         24    2    4    4    0    0  0.67202250772E+02  0.49484612409E+01 -0.70081479673E+03  0.70848188273E+03  0.79149030716E+02 0.  0.
         11    1    3    3    0    0  0.73748402838E+02  0.33065601947E+02  0.76636546453E+02  0.11137917761E+03  0.00000000000E+00 0. -1.
        -11    1    3    3    0    0  0.20016157210E+03 -0.35508880472E+02  0.35378376498E+03  0.40803000858E+03  0.00000000000E+00 0.  1.
          4    1    6    6  502    0  0.74693196958E+02 -0.14951658686E+02 -0.41915314120E+03  0.42601875727E+03  0.00000000000E+00 0. -1.
          3    1    5    5  503    0 -0.16286142633E+03 -0.19548377518E+02  0.10976745472E+03  0.19736989985E+03  0.00000000000E+00 0. -1.
         -4    1    5    5    0  503 -0.17825079938E+03  0.17043194802E+02  0.38880320088E+02  0.18323617890E+03  0.00000000000E+00 0.  1.
         -3    1    6    6    0  502 -0.74909461855E+01  0.19900119927E+02 -0.28166165553E+03  0.28246312546E+03  0.00000000000E+00 0.  1.
<mgrwt>
<rscale>  0 0.16038830E+04</rscale>
<asrwt>0</asrwt>
<pdfrwt beam="1">  1        2 0.13309568E+00 0.16038830E+04</pdfrwt>
<pdfrwt beam="2">  1       -2 0.11436542E+00 0.16038830E+04</pdfrwt>
<totfact> 0.17750733E+01</totfact>
</mgrwt>
</event>
<event>
12    1  0.1536832E-007  0.1613876E+04  0.7818608E-02  0.8812069E-01
         -3   -1    0    0    0  501 -0.00000000000E+00  0.00000000000E+00  0.72384569538E+03  0.72384569538E+03  0.00000000000E+00 0.  1.
          3   -1    0    0  501    0  0.00000000000E+00 -0.00000000000E+00 -0.89956861187E+03  0.89956861187E+03  0.00000000000E+00 0. -1.
         23    2    1    2    0    0  0.15974900350E+03  0.23959807417E+03  0.41195764153E+03  0.51025973278E+03  0.87914249201E+02 0.  0.
        254    2    1    2    0    0 -0.15974900350E+03 -0.23959807417E+03 -0.58768055802E+03  0.11131545745E+04  0.90045415605E+03 0.  0.
        -24    2    4    4    0    0 -0.30673704661E+03  0.18080572712E+03  0.79542394472E+01  0.36490419397E+03  0.79457373042E+02 0.  0.
         24    2    4    4    0    0  0.14698804311E+03 -0.42040380130E+03 -0.59563479747E+03  0.74825038051E+03  0.82176511338E+02 0.  0.
         11    1    3    3    0    0  0.10349517299E+03  0.21574734124E+03  0.31354458947E+03  0.39442157100E+03  0.00000000000E+00 0.  1.
        -11    1    3    3    0    0  0.56253830506E+02  0.23850732934E+02  0.98413052056E+02  0.11583816177E+03  0.00000000000E+00 0. -1.
          2    1    6    6  502    0  0.22187819908E+02 -0.18478809966E+03 -0.25387885842E+03  0.31479106703E+03  0.00000000000E+00 0. -1.
          3    1    5    5  503    0 -0.13748476534E+02 -0.37330043513E+01 -0.11187937761E+02  0.18114245219E+02  0.00000000000E+00 0. -1.
         -4    1    5    5    0  503 -0.29298857007E+03  0.18453873147E+03  0.19142177208E+02  0.34678994875E+03  0.00000000000E+00 0.  1.
         -1    1    6    6    0  502  0.12480022320E+03 -0.23561570164E+03 -0.34175593905E+03  0.43345931348E+03  0.00000000000E+00 0.  1.
<mgrwt>
<rscale>  0 0.16138759E+04</rscale>
<asrwt>0</asrwt>
<pdfrwt beam="1">  1        3 0.13839517E+00 0.16138759E+04</pdfrwt>
<pdfrwt beam="2">  1       -3 0.11136088E+00 0.16138759E+04</pdfrwt>
<totfact> 0.67528893E-01</totfact>
</mgrwt>
</event>
<event>
12    1  0.1536832E-007  0.1675903E+04  0.7818608E-02  0.8775229E-01
          2   -1    0    0  501    0  0.00000000000E+00  0.00000000000E+00  0.99584834439E+03  0.99584834439E+03  0.00000000000E+00 0. -1.
         -2   -1    0    0    0  501 -0.00000000000E+00 -0.00000000000E+00 -0.70508962673E+03  0.70508962673E+03  0.00000000000E+00 0.  1.
         23    2    1    2    0    0 -0.31710906833E+03 -0.66330486922E+02 -0.39776599556E+03  0.52014744765E+03  0.85893453534E+02 0.  0.
        254    2    1    2    0    0  0.31710906833E+03  0.66330486922E+02  0.68852471322E+03  0.11807905235E+04  0.90290757273E+03 0.  0.
        -24    2    4    4    0    0  0.49673775855E+03  0.27841203842E+03  0.19340338253E+03  0.60661507521E+03  0.79468969983E+02 0.  0.
         24    2    4    4    0    0 -0.17962869023E+03 -0.21208155150E+03  0.49512133069E+03  0.57417544826E+03  0.85365463957E+02 0.  0.
         11    1    3    3    0    0 -0.29593730224E+03 -0.55815249832E+02 -0.32246544551E+03  0.44122351764E+03  0.00000000000E+00 0.  1.
        -11    1    3    3    0    0 -0.21171766089E+02 -0.10515237090E+02 -0.75300550043E+02  0.78923930004E+02  0.00000000000E+00 0. -1.
          4    1    6    6  502    0 -0.17612191140E+03 -0.16009725251E+03  0.42002949412E+03  0.48277824503E+03  0.00000000000E+00 0. -1.
          1    1    5    5  503    0  0.42029974786E+03  0.26562916157E+03  0.16107617812E+03  0.52264353501E+03  0.00000000000E+00 0. -1.
         -4    1    5    5    0  503  0.76438010691E+02  0.12782876852E+02  0.32327204416E+02  0.83971540205E+02  0.00000000000E+00 0.  1.
         -3    1    6    6    0  502 -0.35067788209E+01 -0.51984298987E+02  0.75091836568E+02  0.91397203228E+02  0.00000000000E+00 0.  1.
<mgrwt>
<rscale>  0 0.16759025E+04</rscale>
<asrwt>0</asrwt>
<pdfrwt beam="1">  1        2 0.15320744E+00 0.16759025E+04</pdfrwt>
<pdfrwt beam="2">  1       -2 0.10847533E+00 0.16759025E+04</pdfrwt>
<totfact> 0.16422428E+01</totfact>
</mgrwt>
</event>
<event>
12    1  0.1536832E-007  0.1188114E+04  0.7818608E-02  0.9123325E-01
          2   -1    0    0  501    0  0.00000000000E+00  0.00000000000E+00  0.27133750561E+04  0.27133750561E+04  0.00000000000E+00 0. -1.
         -2   -1    0    0    0  501 -0.00000000000E+00 -0.00000000000E+00 -0.13006075950E+03  0.13006075950E+03  0.00000000000E+00 0.  1.
         23    2    1    2    0    0 -0.15433933729E+03 -0.11516395926E+02  0.12088386523E+03  0.21713703377E+03  0.92640834170E+02 0.  0.
        254    2    1    2    0    0  0.15433933729E+03  0.11516395926E+02  0.24624304313E+04  0.26262987818E+04  0.89996022337E+03 0.  0.
        -24    2    4    4    0    0  0.37751258583E+03 -0.30809861517E+03  0.16359965516E+04  0.17089419861E+04  0.80978304105E+02 0.  0.
         24    2    4    4    0    0 -0.22317324854E+03  0.31961501110E+03  0.82643387970E+03  0.91735679570E+03  0.81181764644E+02 0.  0.
         11    1    3    3    0    0  0.10276064593E+02  0.10022844812E+02  0.92813352836E+01  0.17093803155E+02  0.00000000000E+00 0. -1.
        -11    1    3    3    0    0 -0.16461540188E+03 -0.21539240738E+02  0.11160252994E+03  0.20004323062E+03  0.00000000000E+00 0.  1.
          2    1    6    6  502    0 -0.14488476775E+02  0.52211236008E+01  0.74203735877E+02  0.75785028265E+02  0.00000000000E+00 0. -1.
          1    1    5    5  503    0  0.70502182078E+02 -0.97140375893E+02  0.45694964849E+03  0.47245083507E+03  0.00000000000E+00 0. -1.
         -2    1    5    5    0  503  0.30701040375E+03 -0.21095823928E+03  0.11790469031E+04  0.12364911510E+04  0.00000000000E+00 0.  1.
         -1    1    6    6    0  502 -0.20868477177E+03  0.31439388750E+03  0.75223014383E+03  0.84157176744E+03  0.00000000000E+00 0.  1.
<mgrwt>
<rscale>  0 0.11881138E+04</rscale>
<asrwt>0</asrwt>
<pdfrwt beam="1">  1        2 0.41744227E+00 0.11881138E+04</pdfrwt>
<pdfrwt beam="2">  1       -2 0.20009350E-01 0.11881138E+04</pdfrwt>
<totfact> 0.55529395E+01</totfact>
</mgrwt>
</event>
<event>
12    1  0.2094933E-007  0.1533835E+04  0.7818608E-02  0.8862260E-01
          2   -1    0    0  501    0  0.00000000000E+00  0.00000000000E+00  0.29700797889E+04  0.29700797889E+04  0.00000000000E+00 0. -1.
         -2   -1    0    0    0  501 -0.00000000000E+00 -0.00000000000E+00 -0.19802905444E+03  0.19802905444E+03  0.00000000000E+00 0.  1.
         23    2    1    2    0    0  0.34671703006E+03  0.22529264823E+03  0.14706645343E+04  0.15300077455E+04  0.84261809527E+02 0.  0.
        254    2    1    2    0    0 -0.34671703006E+03 -0.22529264823E+03  0.13013862001E+04  0.16381010978E+04  0.90487550994E+03 0.  0.
        -24    2    4    4    0    0 -0.27949825935E+02  0.23448275710E+03  0.92732553113E+03  0.96032529516E+03  0.80800220879E+02 0.  0.
         24    2    4    4    0    0 -0.31876720413E+03 -0.45977540533E+03  0.37406066895E+03  0.67777580261E+03  0.80328704579E+02 0.  0.
         13    1    3    3    0    0  0.10390290867E+03  0.86952974776E+02  0.35784583685E+03  0.38263595911E+03  0.00000000000E+00 0.  1.
        -13    1    3    3    0    0  0.24281412140E+03  0.13833967345E+03  0.11128186975E+04  0.11473717864E+04  0.00000000000E+00 0. -1.
          2    1    6    6  502    0 -0.30996252211E+03 -0.45125603503E+03  0.37756911154E+03  0.66503173477E+03  0.00000000000E+00 0. -1.
          1    1    5    5  503    0 -0.62827793842E+01  0.21223712001E+03  0.71895496383E+03  0.74965345890E+03  0.00000000000E+00 0. -1.
         -2    1    5    5    0  503 -0.21667046550E+02  0.22245637085E+02  0.20837056731E+03  0.21067183627E+03  0.00000000000E+00 0.  1.
         -3    1    6    6    0  502 -0.88046820214E+01 -0.85193702947E+01 -0.35084425898E+01  0.12744067840E+02  0.00000000000E+00 0.  1.
<mgrwt>
<rscale>  0 0.15338345E+04</rscale>
<asrwt>0</asrwt>
<pdfrwt beam="1">  1        2 0.45693532E+00 0.15338345E+04</pdfrwt>
<pdfrwt beam="2">  1       -2 0.30466011E-01 0.15338345E+04</pdfrwt>
<totfact> 0.17568392E+01</totfact>
</mgrwt>
</event>
<event>
12    1  0.1536832E-007  0.1669565E+04  0.7818608E-02  0.8778916E-01
         -2   -1    0    0    0  501 -0.00000000000E+00  0.00000000000E+00  0.33938568766E+03  0.33938568766E+03  0.00000000000E+00 0.  1.
          2   -1    0    0  501    0  0.00000000000E+00 -0.00000000000E+00 -0.20533029589E+04  0.20533029589E+04  0.00000000000E+00 0. -1.
         23    2    1    2    0    0  0.54572208453E+03  0.21699963489E+03 -0.52451033143E+03  0.79273836800E+03  0.91769260934E+02 0.  0.
        254    2    1    2    0    0 -0.54572208453E+03 -0.21699963489E+03 -0.11894069398E+04  0.15999502786E+04  0.89456726426E+03 0.  0.
        -24    2    4    4    0    0 -0.41173580376E+03  0.30686017489E+03 -0.64400054075E+03  0.82778112558E+03  0.82433951417E+02 0.  0.
         24    2    4    4    0    0 -0.13398628076E+03 -0.52385980978E+03 -0.54540639909E+03  0.77216915300E+03  0.79972726200E+02 0.  0.
         13    1    3    3    0    0  0.14785219897E+03  0.52210835494E+02 -0.19654266817E+03  0.25142645942E+03  0.00000000000E+00 0. -1.
        -13    1    3    3    0    0  0.39786988556E+03  0.16478879939E+03 -0.32796766326E+03  0.54131190859E+03  0.00000000000E+00 0.  1.
          4    1    6    6  502    0 -0.49265359328E+02 -0.16489737393E+03 -0.22737439372E+03  0.28516194430E+03  0.00000000000E+00 0. -1.
          1    1    5    5  503    0 -0.70787283995E+02  0.51665308980E+02 -0.65416241083E+02  0.10935917120E+03  0.00000000000E+00 0. -1.
         -2    1    5    5    0  503 -0.34094851977E+03  0.25519486591E+03 -0.57858429967E+03  0.71842195438E+03  0.00000000000E+00 0.  1.
         -3    1    6    6    0  502 -0.84720921435E+02 -0.35896243585E+03 -0.31803200537E+03  0.48700720870E+03  0.00000000000E+00 0.  1.
<mgrwt>
<rscale>  0 0.16695648E+04</rscale>
<asrwt>0</asrwt>
<pdfrwt beam="1">  1        2 0.31589275E+00 0.16695648E+04</pdfrwt>
<pdfrwt beam="2">  1       -2 0.52213184E-01 0.16695648E+04</pdfrwt>
<totfact> 0.20611198E+01</totfact>
</mgrwt>
</event>
<event>
12    1  0.1536832E-007  0.1367270E+04  0.7818608E-02  0.8977857E-01
         -2   -1    0    0    0  501 -0.00000000000E+00  0.00000000000E+00  0.14851767308E+03  0.14851767308E+03  0.00000000000E+00 0.  1.
          2   -1    0    0  501    0  0.00000000000E+00 -0.00000000000E+00 -0.31468084848E+04  0.31468084848E+04  0.00000000000E+00 0. -1.
         23    2    1    2    0    0  0.27355441765E+03 -0.25845863192E+03 -0.93244215281E+03  0.10096412758E+04  0.91072793326E+02 0.  0.
        254    2    1    2    0    0 -0.27355441765E+03  0.25845863192E+03 -0.20658486589E+04  0.22856848820E+04  0.90276897086E+03 0.  0.
        -24    2    4    4    0    0 -0.59450262655E+03  0.21194610772E+03 -0.12054810583E+04  0.13627019344E+04  0.73603359144E+02 0.  0.
         24    2    4    4    0    0  0.32094820890E+03  0.46512524194E+02 -0.86036760060E+03  0.92298294768E+03  0.80585022428E+02 0.  0.
         13    1    3    3    0    0  0.27654786398E+03 -0.25295620959E+03 -0.93040422168E+03  0.10030541265E+04  0.00000000000E+00 0. -1.
        -13    1    3    3    0    0 -0.29934463361E+01 -0.55024223276E+01 -0.20379311302E+01  0.65871492870E+01  0.00000000000E+00 0.  1.
          2    1    6    6  502    0  0.75728583393E+02 -0.19247010967E+02 -0.24977151471E+03  0.26170799632E+03  0.00000000000E+00 0. -1.
          1    1    5    5  503    0 -0.43133800118E+03  0.14524550870E+03 -0.79680020648E+03  0.91762699290E+03  0.00000000000E+00 0. -1.
         -2    1    5    5    0  503 -0.16316462537E+03  0.66700599025E+02 -0.40868085181E+03  0.44507494147E+03  0.00000000000E+00 0.  1.
         -1    1    6    6    0  502  0.24521962551E+03  0.65759535161E+02 -0.61059608589E+03  0.66127495136E+03  0.00000000000E+00 0.  1.
<mgrwt>
<rscale>  0 0.13672698E+04</rscale>
<asrwt>0</asrwt>
<pdfrwt beam="1">  1        2 0.48412435E+00 0.13672698E+04</pdfrwt>
<pdfrwt beam="2">  1       -2 0.22848874E-01 0.13672698E+04</pdfrwt>
<totfact> 0.23395212E+01</totfact>
</mgrwt>
</event>
<event>
12    1  0.1536832E-007  0.3170094E+04  0.7818608E-02  0.8196760E-01
         -2   -1    0    0    0  501 -0.00000000000E+00  0.00000000000E+00  0.74179210464E+03  0.74179210464E+03  0.00000000000E+00 0. -1.
          2   -1    0    0  501    0  0.00000000000E+00 -0.00000000000E+00 -0.33868984136E+04  0.33868984136E+04  0.00000000000E+00 0.  1.
         23    2    1    2    0    0 -0.45279266841E+02 -0.13796417535E+04 -0.17840849505E+04  0.22578347926E+04  0.96939466340E+02 0.  0.
        254    2    1    2    0    0  0.45279266841E+02  0.13796417535E+04 -0.86102135852E+03  0.18708557257E+04  0.92373252979E+03 0.  0.
        -24    2    4    4    0    0 -0.41011937015E+02  0.69061882948E+03  0.77029047883E+02  0.70104197089E+03  0.83006169188E+02 0.  0.
         24    2    4    4    0    0  0.86291203855E+02  0.68902292399E+03 -0.93805040640E+03  0.11698137548E+04  0.79541777220E+02 0.  0.
         13    1    3    3    0    0  0.77143895013E+01 -0.92553324568E+03 -0.12347036302E+04  0.15431021855E+04  0.00000000000E+00 0. -1.
        -13    1    3    3    0    0 -0.52993656342E+02 -0.45410850779E+03 -0.54938132029E+03  0.71473260702E+03  0.00000000000E+00 0.  1.
          2    1    6    6  502    0  0.10101741648E+03  0.58080238816E+03 -0.78090926814E+03  0.97844530639E+03  0.00000000000E+00 0. -1.
          1    1    5    5  503    0 -0.48068798063E+02  0.60528589380E+03  0.91990570884E+02  0.61412041792E+03  0.00000000000E+00 0. -1.
         -2    1    5    5    0  503  0.70568610481E+01  0.85332935677E+02 -0.14961523001E+02  0.86921552964E+02  0.00000000000E+00 0.  1.
         -3    1    6    6    0  502 -0.14726212628E+02  0.10822053583E+03 -0.15714113826E+03  0.19136844841E+03  0.00000000000E+00 0.  1.
<mgrwt>
<rscale>  0 0.31700943E+04</rscale>
<asrwt>0</asrwt>
<pdfrwt beam="1">  1        2 0.52106130E+00 0.31700943E+04</pdfrwt>
<pdfrwt beam="2">  1       -2 0.11412186E+00 0.31700943E+04</pdfrwt>
<totfact> 0.49302718E-01</totfact>
</mgrwt>
</event>
<event>
12    1  0.1536832E-007  0.1848497E+04  0.7818608E-02  0.8680926E-01
          1   -1    0    0  501    0  0.00000000000E+00  0.00000000000E+00  0.73214975431E+03  0.73214975431E+03  0.00000000000E+00 0. -1.
         -1   -1    0    0    0  501 -0.00000000000E+00 -0.00000000000E+00 -0.11667494801E+04  0.11667494801E+04  0.00000000000E+00 0.  1.
         23    2    1    2    0    0  0.44449902953E+03 -0.45520122988E+03 -0.45646664591E+03  0.78826319304E+03  0.90606377982E+02 0.  0.
        254    2    1    2    0    0 -0.44449902953E+03  0.45520122988E+03  0.21866920140E+02  0.11106360414E+04  0.91008060479E+03 0.  0.
        -24    2    4    4    0    0 -0.35305518541E+03 -0.15859014075E+03 -0.20508366212E+03  0.44500995204E+03  0.78585954586E+02 0.  0.
         24    2    4    4    0    0 -0.91443844116E+02  0.61379137064E+03  0.22695058226E+03  0.66562608931E+03  0.80310028569E+02 0.  0.
         11    1    3    3    0    0  0.18156673288E+03 -0.12699140503E+03 -0.14231147624E+03  0.26333600535E+03  0.00000000000E+00 0. -1.
        -11    1    3    3    0    0  0.26293229664E+03 -0.32820982485E+03 -0.31415516967E+03  0.52492718769E+03  0.00000000000E+00 0.  1.
          4    1    6    6  502    0 -0.48292744294E+02  0.11816688610E+03  0.34841402220E+02  0.13232356340E+03  0.00000000000E+00 0. -1.
          3    1    5    5  503    0 -0.18114091105E+03 -0.39995377873E+02 -0.84453683677E+02  0.20382366054E+03  0.00000000000E+00 0. -1.
         -4    1    5    5    0  503 -0.17191427436E+03 -0.11859476288E+03 -0.12062997844E+03  0.24118629150E+03  0.00000000000E+00 0.  1.
         -3    1    6    6    0  502 -0.43151099822E+02  0.49562448454E+03  0.19210918004E+03  0.53330252592E+03  0.00000000000E+00 0.  1.
<mgrwt>
<rscale>  0 0.18484971E+04</rscale>
<asrwt>0</asrwt>
<pdfrwt beam="1">  1        1 0.11263842E+00 0.18484971E+04</pdfrwt>
<pdfrwt beam="2">  1       -1 0.17949992E+00 0.18484971E+04</pdfrwt>
<totfact> 0.50138044E+00</totfact>
</mgrwt>
</event>
<event>
12    1  0.1536832E-007  0.1341945E+04  0.7818608E-02  0.8996948E-01
         -1   -1    0    0    0  501 -0.00000000000E+00  0.00000000000E+00  0.43063010939E+03  0.43063010939E+03  0.00000000000E+00 0.  1.
          1   -1    0    0  501    0  0.00000000000E+00 -0.00000000000E+00 -0.10454548890E+04  0.10454548890E+04  0.00000000000E+00 0. -1.
         23    2    1    2    0    0  0.19033006957E+03  0.13477651779E+03 -0.46417877535E+03  0.52703214419E+03  0.88942118197E+02 0.  0.
        254    2    1    2    0    0 -0.19033006957E+03 -0.13477651779E+03 -0.15064600430E+03  0.94905285425E+03  0.90753339135E+03 0.  0.
        -24    2    4    4    0    0 -0.38288580891E+03  0.22673579063E+03  0.98910179318E+02  0.46272431828E+03  0.79497859965E+02 0.  0.
         24    2    4    4    0    0  0.19255573933E+03 -0.36151230841E+03 -0.24955618362E+03  0.48632853598E+03  0.80425706335E+02 0.  0.
         11    1    3    3    0    0  0.28719771433E+02  0.13805317900E+02 -0.16369080723E+02  0.35823998621E+02  0.00000000000E+00 0.  1.
        -11    1    3    3    0    0  0.16161029814E+03  0.12097119989E+03 -0.44780969463E+03  0.49120814557E+03  0.00000000000E+00 0. -1.
          2    1    6    6  502    0  0.15321521425E+03 -0.23005423075E+03 -0.13517010523E+03  0.30768621729E+03  0.00000000000E+00 0. -1.
          1    1    5    5  503    0 -0.18771745157E+03  0.65394882302E+02  0.45909220990E+02  0.20401467797E+03  0.00000000000E+00 0. -1.
         -2    1    5    5    0  503 -0.19516835734E+03  0.16134090832E+03  0.53000958328E+02  0.25870964031E+03  0.00000000000E+00 0.  1.
         -1    1    6    6    0  502  0.39340525084E+02 -0.13145807766E+03 -0.11438607838E+03  0.17864231868E+03  0.00000000000E+00 0.  1.
<mgrwt>
<rscale>  0 0.13419454E+04</rscale>
<asrwt>0</asrwt>
<pdfrwt beam="1">  1        1 0.16083921E+00 0.13419454E+04</pdfrwt>
<pdfrwt beam="2">  1       -1 0.66250787E-01 0.13419454E+04</pdfrwt>
<totfact> 0.31551062E+01</totfact>
</mgrwt>
</event>
<event>
12    1  0.1536832E-007  0.2124177E+04  0.7818608E-02  0.8550667E-01
          1   -1    0    0  501    0  0.00000000000E+00  0.00000000000E+00  0.15578066323E+04  0.15578066323E+04  0.00000000000E+00 0. -1.
         -1   -1    0    0    0  501 -0.00000000000E+00 -0.00000000000E+00 -0.72411541448E+03  0.72411541448E+03  0.00000000000E+00 0.  1.
         23    2    1    2    0    0 -0.78125331205E+03 -0.99228768745E+02  0.73255019736E+03  0.10796824531E+04  0.94240764629E+02 0.  0.
        254    2    1    2    0    0  0.78125331205E+03  0.99228768745E+02  0.10114102048E+03  0.12022395937E+04  0.90274439821E+03 0.  0.
        -24    2    4    4    0    0  0.92855648905E+03 -0.19351535068E+02 -0.69571537346E+02  0.93515354111E+03  0.84144586104E+02 0.  0.
         24    2    4    4    0    0 -0.14730317700E+03  0.11858030381E+03  0.17071255782E+03  0.26708605260E+03  0.80203913165E+02 0.  0.
         11    1    3    3    0    0 -0.20219605691E+03  0.68973854897E-01  0.23302791484E+03  0.30852108402E+03  0.00000000000E+00 0.  1.
        -11    1    3    3    0    0 -0.57905725514E+03 -0.99297742599E+02  0.49952228252E+03  0.77116136907E+03  0.00000000000E+00 0. -1.
          4    1    6    6  502    0 -0.63126897372E+02  0.78039391265E+01  0.74341035801E+02  0.97839134510E+02  0.00000000000E+00 0. -1.
          1    1    5    5  503    0  0.11221054244E+03  0.21350171022E+02  0.54807794169E+01  0.11435503740E+03  0.00000000000E+00 0. -1.
         -2    1    5    5    0  503  0.81634594661E+03 -0.40701706090E+02 -0.75052316763E+02  0.82079850370E+03  0.00000000000E+00 0.  1.
         -3    1    6    6    0  502 -0.84176279625E+02  0.11077636469E+03  0.96371522021E+02  0.16924691809E+03  0.00000000000E+00 0.  1.
<mgrwt>
<rscale>  0 0.21241768E+04</rscale>
<asrwt>0</asrwt>
<pdfrwt beam="1">  1        1 0.23966256E+00 0.21241768E+04</pdfrwt>
<pdfrwt beam="2">  1       -1 0.11140237E+00 0.21241768E+04</pdfrwt>
<totfact> 0.40548570E+00</totfact>
</mgrwt>
</event>
<event>
12    1  0.1536832E-007  0.1582114E+04  0.7818608E-02  0.8831612E-01
         -2   -1    0    0    0  501 -0.00000000000E+00  0.00000000000E+00  0.34915380195E+03  0.34915380195E+03  0.00000000000E+00 0.  1.
          2   -1    0    0  501    0  0.00000000000E+00 -0.00000000000E+00 -0.17922513434E+04  0.17922513434E+04  0.00000000000E+00 0. -1.
         23    2    1    2    0    0 -0.28767322920E+02 -0.36570949459E+03  0.32546970350E+02  0.37766244699E+03  0.83657786752E+02 0.  0.
        254    2    1    2    0    0  0.28767322920E+02  0.36570949459E+03 -0.14756445118E+04  0.17637426983E+04  0.89369490740E+03 0.  0.
        -24    2    4    4    0    0  0.38189766654E+01  0.65464998642E+03 -0.11007802962E+04  0.12831968841E+04  0.79346036500E+02 0.  0.
         24    2    4    4    0    0  0.24948346255E+02 -0.28894049183E+03 -0.37486421550E+03  0.48054581419E+03  0.79322579862E+02 0.  0.
         13    1    3    3    0    0 -0.27090964922E+02 -0.89092524436E+02 -0.22070291574E+02  0.95700031667E+02  0.00000000000E+00 0. -1.
        -13    1    3    3    0    0 -0.16763579974E+01 -0.27661697016E+03  0.54617261924E+02  0.28196241532E+03  0.00000000000E+00 0.  1.
          4    1    6    6  502    0  0.12557384208E+01 -0.23437093082E+03 -0.33532487363E+03  0.40911377509E+03  0.00000000000E+00 0. -1.
          1    1    5    5  503    0  0.48906637237E+01  0.60576096346E+03 -0.97054834491E+03  0.11440866896E+04  0.00000000000E+00 0. -1.
         -2    1    5    5    0  503 -0.10716870584E+01  0.48889022967E+02 -0.13023195134E+03  0.13911019455E+03  0.00000000000E+00 0.  1.
         -3    1    6    6    0  502  0.23692607834E+02 -0.54569561016E+02 -0.39539341867E+02  0.71432039105E+02  0.00000000000E+00 0.  1.
<mgrwt>
<rscale>  0 0.15821142E+04</rscale>
<asrwt>0</asrwt>
<pdfrwt beam="1">  1        2 0.27573097E+00 0.15821142E+04</pdfrwt>
<pdfrwt beam="2">  1       -2 0.53715971E-01 0.15821142E+04</pdfrwt>
<totfact> 0.27323025E+01</totfact>
</mgrwt>
</event>
<event>
12    1  0.1536832E-007  0.1791102E+04  0.7818608E-02  0.8711046E-01
         -1   -1    0    0    0  501 -0.00000000000E+00  0.00000000000E+00  0.43912468361E+03  0.43912468361E+03  0.00000000000E+00 0.  1.
          1   -1    0    0  501    0  0.00000000000E+00 -0.00000000000E+00 -0.18263862193E+04  0.18263862193E+04  0.00000000000E+00 0. -1.
         23    2    1    2    0    0 -0.12965504883E+03 -0.59560842427E+03 -0.85479262524E+03  0.10535480764E+04  0.87939128385E+02 0.  0.
        254    2    1    2    0    0  0.12965504883E+03  0.59560842427E+03 -0.53246891043E+03  0.12119628265E+04  0.90209252603E+03 0.  0.
        -24    2    4    4    0    0  0.23227115339E+03 -0.80704053578E+02 -0.44994734776E+03  0.51845213313E+03  0.76661369871E+02 0.  0.
         24    2    4    4    0    0 -0.10261610457E+03  0.67631247785E+03 -0.82521562668E+02  0.69351069338E+03  0.78858359841E+02 0.  0.
         11    1    3    3    0    0 -0.10754335087E+03 -0.56173183135E+03 -0.82239769450E+03  0.10017216133E+04  0.00000000000E+00 0. -1.
        -11    1    3    3    0    0 -0.22111697958E+02 -0.33876592921E+02 -0.32394930740E+02  0.51826463049E+02  0.00000000000E+00 0.  1.
          2    1    6    6  502    0 -0.40150888197E+02  0.37304322986E+03 -0.81144761869E+02  0.38387213698E+03  0.00000000000E+00 0. -1.
          3    1    5    5  503    0  0.16020248948E+03 -0.91493677375E+02 -0.31306122375E+03  0.36337757285E+03  0.00000000000E+00 0. -1.
         -4    1    5    5    0  503  0.72068663915E+02  0.10789623797E+02 -0.13688612401E+03  0.15507456028E+03  0.00000000000E+00 0.  1.
         -1    1    6    6    0  502 -0.62465216369E+02  0.30326924799E+03 -0.13768007992E+01  0.30963855640E+03  0.00000000000E+00 0.  1.
<mgrwt>
<rscale>  0 0.17911016E+04</rscale>
<asrwt>0</asrwt>
<pdfrwt beam="1">  1        1 0.28098250E+00 0.17911016E+04</pdfrwt>
<pdfrwt beam="2">  1       -1 0.67557643E-01 0.17911016E+04</pdfrwt>
<totfact> 0.81909992E+00</totfact>
</mgrwt>
</event>
<event>
12    1  0.1536832E-007  0.1903643E+04  0.7818608E-02  0.8653045E-01
         -3   -1    0    0    0  501 -0.00000000000E+00  0.00000000000E+00  0.25698509982E+03  0.25698509982E+03  0.00000000000E+00 0.  1.
          3   -1    0    0  501    0  0.00000000000E+00 -0.00000000000E+00 -0.35253576640E+04  0.35253576640E+04  0.00000000000E+00 0. -1.
         23    2    1    2    0    0  0.18141263589E+03 -0.35154011228E+03 -0.25082879531E+04  0.25415092013E+04  0.10615822906E+03 0.  0.
        254    2    1    2    0    0 -0.18141263589E+03  0.35154011228E+03 -0.76008461112E+03  0.12408335626E+04  0.89746772583E+03 0.  0.
        -24    2    4    4    0    0  0.37346529889E+01 -0.22513853637E+03  0.31846167332E+02  0.24070433530E+03  0.78886567094E+02 0.  0.
         24    2    4    4    0    0 -0.18514728887E+03  0.57667864865E+03 -0.79193077845E+03  0.10001292272E+04  0.79160160150E+02 0.  0.
         13    1    3    3    0    0  0.11168357791E+03 -0.25801557144E+03 -0.14662496251E+04  0.14929612251E+04  0.00000000000E+00 0. -1.
        -13    1    3    3    0    0  0.69729057978E+02 -0.93524540837E+02 -0.10420383280E+04  0.10485479761E+04  0.00000000000E+00 0.  1.
          4    1    6    6  502    0 -0.33006532996E+02  0.64338039018E+02 -0.13600739894E+03  0.15403514875E+03  0.00000000000E+00 0. -1.
          3    1    5    5  503    0  0.54334248505E+01 -0.48430236395E+02 -0.25388063555E+02  0.54950556630E+02  0.00000000000E+00 0. -1.
         -4    1    5    5    0  503 -0.16987718616E+01 -0.17670829998E+03  0.57234230887E+02  0.18575377867E+03  0.00000000000E+00 0.  1.
         -3    1    6    6    0  502 -0.15214075588E+03  0.51234060963E+03 -0.65592337951E+03  0.84609407850E+03  0.00000000000E+00 0.  1.
<mgrwt>
<rscale>  0 0.19036432E+04</rscale>
<asrwt>0</asrwt>
<pdfrwt beam="1">  1        3 0.54236266E+00 0.19036432E+04</pdfrwt>
<pdfrwt beam="2">  1       -3 0.39536174E-01 0.19036432E+04</pdfrwt>
<totfact> 0.33500091E-02</totfact>
</mgrwt>
</event>
<event>
12    1  0.1536832E-007  0.1089523E+04  0.7818608E-02  0.9215464E-01
         -2   -1    0    0    0  501 -0.00000000000E+00  0.00000000000E+00  0.30290556792E+03  0.30290556792E+03  0.00000000000E+00 0. -1.
          2   -1    0    0  501    0  0.00000000000E+00 -0.00000000000E+00 -0.97972787961E+03  0.97972787961E+03  0.00000000000E+00 0.  1.
         23    2    1    2    0    0  0.22391734736E+02 -0.21770558265E+03 -0.38603468483E+03  0.45419073250E+03  0.96795315459E+02 0.  0.
        254    2    1    2    0    0 -0.22391734736E+02  0.21770558265E+03 -0.29078762686E+03  0.82844271503E+03  0.74421957623E+03 0.  0.
        -24    2    4    4    0    0  0.23794691477E+03  0.95395591069E+02  0.14120581178E+03  0.30338068404E+03  0.79885575217E+02 0.  0.
         24    2    4    4    0    0 -0.26033864951E+03  0.12230999158E+03 -0.43199343864E+03  0.52506203099E+03  0.79598108581E+02 0.  0.
         11    1    3    3    0    0  0.59714203663E+02 -0.12679612125E+03 -0.24580802930E+03  0.28295693975E+03  0.00000000000E+00 0.  1.
        -11    1    3    3    0    0 -0.37322468926E+02 -0.90909461402E+02 -0.14022665553E+03  0.17123379275E+03  0.00000000000E+00 0. -1.
          2    1    6    6  502    0 -0.87039577125E+02  0.49849418393E+02 -0.89442641796E+02  0.13439061973E+03  0.00000000000E+00 0. -1.
          1    1    5    5  503    0  0.70171807911E+02  0.57267216948E+02  0.79753696093E+02  0.12068251242E+03  0.00000000000E+00 0. -1.
         -2    1    5    5    0  503  0.16777510686E+03  0.38128374121E+02  0.61452115685E+02  0.18269817163E+03  0.00000000000E+00 0.  1.
         -1    1    6    6    0  502 -0.17329907238E+03  0.72460573188E+02 -0.34255079684E+03  0.39067141126E+03  0.00000000000E+00 0.  1.
<mgrwt>
<rscale>  0 0.10895229E+04</rscale>
<asrwt>0</asrwt>
<pdfrwt beam="1">  1        2 0.15072737E+00 0.10895229E+04</pdfrwt>
<pdfrwt beam="2">  1       -2 0.46600857E-01 0.10895229E+04</pdfrwt>
<totfact> 0.11255008E+02</totfact>
</mgrwt>
</event>
<event>
12    1  0.1536832E-007  0.1754484E+04  0.7818608E-02  0.8730886E-01
         -2   -1    0    0    0  501 -0.00000000000E+00  0.00000000000E+00  0.22292567148E+04  0.22292567148E+04  0.00000000000E+00 0.  1.
          2   -1    0    0  501    0  0.00000000000E+00 -0.00000000000E+00 -0.34520616922E+03  0.34520616922E+03  0.00000000000E+00 0. -1.
         23    2    1    2    0    0  0.18502843982E+03  0.30653017075E+02 -0.19949132150E+03  0.28802394078E+03  0.89363706913E+02 0.  0.
        254    2    1    2    0    0 -0.18502843982E+03 -0.30653017075E+02  0.20835418671E+04  0.22864389432E+04  0.92275738862E+03 0.  0.
        -24    2    4    4    0    0  0.21763935079E+03  0.12899631078E+03  0.15276727057E+03  0.30603683087E+03  0.79459220256E+02 0.  0.
         24    2    4    4    0    0 -0.40266779061E+03 -0.15964932785E+03  0.19307745965E+04  0.19804021124E+04  0.80453257639E+02 0.  0.
         13    1    3    3    0    0  0.71604267273E+02 -0.22119067407E+02 -0.38839680740E+02  0.84409389494E+02  0.00000000000E+00 0.  1.
        -13    1    3    3    0    0  0.11342417254E+03  0.52772084482E+02 -0.16065164076E+03  0.20361455129E+03  0.00000000000E+00 0. -1.
          2    1    6    6  502    0 -0.34274798205E+03 -0.13903124336E+03  0.17550388983E+04  0.17935906446E+04  0.00000000000E+00 0. -1.
          3    1    5    5  503    0  0.19289578056E+03  0.97304542179E+02  0.95863538535E+02  0.23636153263E+03  0.00000000000E+00 0. -1.
         -4    1    5    5    0  503  0.24743570225E+02  0.31691768596E+02  0.56903732039E+02  0.69675298236E+02  0.00000000000E+00 0.  1.
         -1    1    6    6    0  502 -0.59919808559E+02 -0.20618084486E+02  0.17573569817E+03  0.18681146773E+03  0.00000000000E+00 0.  1.
<mgrwt>
<rscale>  0 0.17544836E+04</rscale>
<asrwt>0</asrwt>
<pdfrwt beam="1">  1        2 0.53108643E-01 0.17544836E+04</pdfrwt>
<pdfrwt beam="2">  1       -2 0.34296256E+00 0.17544836E+04</pdfrwt>
<totfact> 0.15378279E+00</totfact>
</mgrwt>
</event>
<event>
12    1  0.1536832E-007  0.1584736E+04  0.7818608E-02  0.8829980E-01
         -1   -1    0    0    0  501 -0.00000000000E+00  0.00000000000E+00  0.64185784165E+03  0.64185784165E+03  0.00000000000E+00 0.  1.
          1   -1    0    0  501    0  0.00000000000E+00 -0.00000000000E+00 -0.97817202242E+03  0.97817202242E+03  0.00000000000E+00 0. -1.
         23    2    1    2    0    0 -0.17677829792E+03  0.11001284937E+03  0.38673298682E+03  0.44882337861E+03  0.92339744691E+02 0.  0.
        254    2    1    2    0    0  0.17677829792E+03 -0.11001284937E+03 -0.72304716759E+03  0.11712064855E+04  0.89753776042E+03 0.  0.
        -24    2    4    4    0    0  0.16703062439E+03  0.37850829212E+03 -0.27292035308E+03  0.50206137661E+03  0.80077150741E+02 0.  0.
         24    2    4    4    0    0  0.97476735329E+01 -0.48852114149E+03 -0.45012681451E+03  0.66914510885E+03  0.79956893015E+02 0.  0.
         13    1    3    3    0    0 -0.72880448032E+02  0.80920091631E+02  0.12535858283E+03  0.16605539805E+03  0.00000000000E+00 0. -1.
        -13    1    3    3    0    0 -0.10389784989E+03  0.29092757740E+02  0.26137440399E+03  0.28276798055E+03  0.00000000000E+00 0.  1.
          4    1    6    6  502    0  0.15683193403E+02 -0.74972527790E+02 -0.10790837576E+03  0.13232936196E+03  0.00000000000E+00 0. -1.
          3    1    5    5  503    0  0.98909610060E+01  0.90757109608E+02 -0.38842984078E+02  0.99214220080E+02  0.00000000000E+00 0. -1.
         -4    1    5    5    0  503  0.15713966339E+03  0.28775118251E+03 -0.23407736900E+03  0.40284715653E+03  0.00000000000E+00 0.  1.
         -3    1    6    6    0  502 -0.59355198700E+01 -0.41354861370E+03 -0.34221843875E+03  0.53681574689E+03  0.00000000000E+00 0.  1.
<mgrwt>
<rscale>  0 0.15847364E+04</rscale>
<asrwt>0</asrwt>
<pdfrwt beam="1">  1        1 0.15048800E+00 0.15847364E+04</pdfrwt>
<pdfrwt beam="2">  1       -1 0.98747361E-01 0.15847364E+04</pdfrwt>
<totfact> 0.14838893E+01</totfact>
</mgrwt>
</event>
<event>
12    1  0.1536832E-007  0.1591128E+04  0.7818608E-02  0.8826017E-01
         -1   -1    0    0    0  501 -0.00000000000E+00  0.00000000000E+00  0.33366639950E+03  0.33366639950E+03  0.00000000000E+00 0.  1.
          1   -1    0    0  501    0  0.00000000000E+00 -0.00000000000E+00 -0.18968698525E+04  0.18968698525E+04  0.00000000000E+00 0. -1.
         23    2    1    2    0    0  0.97410921240E+01 -0.48477442166E+03 -0.21095303982E+03  0.53658973330E+03  0.91248167667E+02 0.  0.
        254    2    1    2    0    0 -0.97410921240E+01  0.48477442166E+03 -0.13522504132E+04  0.16939465187E+04  0.89764831615E+03 0.  0.
        -24    2    4    4    0    0  0.24764666820E+03 -0.16705789602E+03 -0.32202614418E+03  0.44544121517E+03  0.74025845118E+02 0.  0.
         24    2    4    4    0    0 -0.25738776033E+03  0.65183231768E+03 -0.10302242690E+04  0.12485053035E+04  0.79180925416E+02 0.  0.
         13    1    3    3    0    0  0.70473308095E+01 -0.87923700139E+02 -0.23316672049E+01  0.88236492391E+02  0.00000000000E+00 0.  1.
        -13    1    3    3    0    0  0.26937613144E+01 -0.39685072152E+03 -0.20862137261E+03  0.44835324091E+03  0.00000000000E+00 0. -1.
          4    1    6    6  502    0 -0.10463895247E+03  0.20360862690E+03 -0.28495985382E+03  0.36552414641E+03  0.00000000000E+00 0. -1.
          3    1    5    5  503    0  0.24977030260E+03 -0.15771090049E+03 -0.32027124692E+03  0.43569668785E+03  0.00000000000E+00 0. -1.
         -4    1    5    5    0  503 -0.21236344001E+01 -0.93469955252E+01 -0.17548972590E+01  0.97445273258E+01  0.00000000000E+00 0.  1.
         -3    1    6    6    0  502 -0.15274880786E+03  0.44822369078E+03 -0.74526441516E+03  0.88298115709E+03  0.00000000000E+00 0.  1.
<mgrwt>
<rscale>  0 0.15911276E+04</rscale>
<asrwt>0</asrwt>
<pdfrwt beam="1">  1        1 0.29182613E+00 0.15911276E+04</pdfrwt>
<pdfrwt beam="2">  1       -1 0.51333292E-01 0.15911276E+04</pdfrwt>
<totfact> 0.12835605E+01</totfact>
</mgrwt>
</event>
<event>
12    1  0.1536832E-007  0.2656055E+04  0.7818608E-02  0.8349406E-01
          2   -1    0    0  501    0  0.00000000000E+00  0.00000000000E+00  0.18085706938E+04  0.18085706938E+04  0.00000000000E+00 0. -1.
         -2   -1    0    0    0  501 -0.00000000000E+00 -0.00000000000E+00 -0.97516599946E+03  0.97516599946E+03  0.00000000000E+00 0.  1.
         23    2    1    2    0    0  0.10777146545E+04  0.26549265249E+03  0.76962100152E+03  0.13536915285E+04  0.90603770762E+02 0.  0.
        254    2    1    2    0    0 -0.10777146545E+04 -0.26549265249E+03  0.63783692855E+02  0.14300451648E+04  0.89944737971E+03 0.  0.
        -24    2    4    4    0    0 -0.64725095810E+03 -0.49732508310E+03  0.31003266402E+03  0.87684017250E+03  0.80389018639E+02 0.  0.
         24    2    4    4    0    0 -0.43046369640E+03  0.23183243061E+03 -0.24624897117E+03  0.55320499230E+03  0.79699045825E+02 0.  0.
         13    1    3    3    0    0  0.20914951617E+03  0.52778965363E+02  0.19476418329E+03  0.29062385723E+03  0.00000000000E+00 0.  1.
        -13    1    3    3    0    0  0.86856513833E+03  0.21271368713E+03  0.57485681823E+03  0.10630676713E+04  0.00000000000E+00 0. -1.
          4    1    6    6  502    0 -0.94588734397E+02  0.90678685023E+02 -0.66892928843E+02  0.14712007518E+03  0.00000000000E+00 0. -1.
          3    1    5    5  503    0 -0.26725705098E+03 -0.19969405131E+03  0.16896028014E+03  0.37396740726E+03  0.00000000000E+00 0. -1.
         -4    1    5    5    0  503 -0.37999390712E+03 -0.29763103179E+03  0.14107238388E+03  0.50287276524E+03  0.00000000000E+00 0.  1.
         -3    1    6    6    0  502 -0.33587496200E+03  0.14115374559E+03 -0.17935604233E+03  0.40608491712E+03  0.00000000000E+00 0.  1.
<mgrwt>
<rscale>  0 0.26560547E+04</rscale>
<asrwt>0</asrwt>
<pdfrwt beam="1">  1        2 0.27824165E+00 0.26560547E+04</pdfrwt>
<pdfrwt beam="2">  1       -2 0.15002554E+00 0.26560547E+04</pdfrwt>
<totfact> 0.22508186E+00</totfact>
</mgrwt>
</event>
<event>
12    1  0.1536832E-007  0.1975123E+04  0.7818608E-02  0.8618340E-01
         -2   -1    0    0    0  501 -0.00000000000E+00  0.00000000000E+00  0.35654176941E+03  0.35654176941E+03  0.00000000000E+00 0.  1.
          2   -1    0    0  501    0  0.00000000000E+00 -0.00000000000E+00 -0.27353818290E+04  0.27353818290E+04  0.00000000000E+00 0. -1.
         23    2    1    2    0    0 -0.20736192240E+02 -0.21618253389E+02 -0.21491132234E+04  0.21512763451E+04  0.91678390625E+02 0.  0.
        254    2    1    2    0    0  0.20736192240E+02  0.21618253389E+02 -0.22972683610E+03  0.94064725325E+03  0.91167181446E+03 0.  0.
        -24    2    4    4    0    0 -0.43205020601E+03  0.48154564166E+02 -0.18070158447E+03  0.47742692389E+03  0.79354662538E+02 0.  0.
         24    2    4    4    0    0  0.45278639825E+03 -0.26536310777E+02 -0.49025251633E+02  0.46322032936E+03  0.80311269524E+02 0.  0.
         13    1    3    3    0    0 -0.62416708591E-01 -0.39101163163E+02 -0.19428845541E+04  0.19432779768E+04  0.00000000000E+00 0. -1.
        -13    1    3    3    0    0 -0.20673775532E+02  0.17482909774E+02 -0.20622866939E+03  0.20799836828E+03  0.00000000000E+00 0.  1.
          4    1    6    6  502    0  0.40630011308E+03 -0.75511621600E+01 -0.62697698380E+02  0.41117855406E+03  0.00000000000E+00 0. -1.
          3    1    5    5  503    0 -0.29487481966E+03  0.53664570445E+02 -0.90208866592E+02  0.31299949681E+03  0.00000000000E+00 0. -1.
         -4    1    5    5    0  503 -0.13717538635E+03 -0.55100062786E+01 -0.90492717875E+02  0.16442742708E+03  0.00000000000E+00 0.  1.
         -3    1    6    6    0  502  0.46486285167E+02 -0.18985148617E+02  0.13672446747E+02  0.52041775303E+02  0.00000000000E+00 0.  1.
<mgrwt>
<rscale>  0 0.19751232E+04</rscale>
<asrwt>0</asrwt>
<pdfrwt beam="1">  1        2 0.42082796E+00 0.19751232E+04</pdfrwt>
<pdfrwt beam="2">  1       -2 0.54852581E-01 0.19751232E+04</pdfrwt>
<totfact> 0.73714231E+00</totfact>
</mgrwt>
</event>
<event>
12    1  0.3202754E-007  0.2212075E+04  0.7818608E-02  0.8513419E-01
         -1   -1    0    0    0  501 -0.00000000000E+00  0.00000000000E+00  0.79581112148E+03  0.79581112148E+03  0.00000000000E+00 0.  1.
          1   -1    0    0  501    0  0.00000000000E+00 -0.00000000000E+00 -0.15371970830E+04  0.15371970830E+04  0.00000000000E+00 0. -1.
         23    2    1    2    0    0  0.77970683665E+03  0.24122187293E+02 -0.82838179160E+03  0.11414399140E+04  0.90244410096E+02 0.  0.
        254    2    1    2    0    0 -0.77970683665E+03 -0.24122187293E+02  0.86995830089E+02  0.11915682905E+04  0.89651663977E+03 0.  0.
        -24    2    4    4    0    0 -0.58126677947E+03  0.18172943714E+03  0.42077448753E+03  0.74455058508E+03  0.80048404985E+02 0.  0.
         24    2    4    4    0    0 -0.19844005718E+03 -0.20585162443E+03 -0.33377865744E+03  0.44701770540E+03  0.81628972799E+02 0.  0.
         13    1    3    3    0    0  0.72718697908E+03  0.39945202075E+02 -0.74671915701E+03  0.10430656840E+04  0.00000000000E+00 0. -1.
        -13    1    3    3    0    0  0.52519857570E+02 -0.15823014781E+02 -0.81662634585E+02  0.98374229975E+02  0.00000000000E+00 0.  1.
          2    1    6    6  502    0 -0.52744953015E+02 -0.58505367890E+02 -0.42360238554E+02  0.89438794440E+02  0.00000000000E+00 0. -1.
          3    1    5    5  503    0 -0.62596048598E+02  0.39652961582E+02  0.73634557785E+02  0.10446372941E+03  0.00000000000E+00 0. -1.
         -4    1    5    5    0  503 -0.51867073087E+03  0.14207647556E+03  0.34713992975E+03  0.64008685567E+03  0.00000000000E+00 0.  1.
         -1    1    6    6    0  502 -0.14569510416E+03 -0.14734625654E+03 -0.29141841889E+03  0.35757891096E+03  0.00000000000E+00 0.  1.
<mgrwt>
<rscale>  0 0.22120746E+04</rscale>
<asrwt>0</asrwt>
<pdfrwt beam="1">  1        1 0.23649186E+00 0.22120746E+04</pdfrwt>
<pdfrwt beam="2">  1       -1 0.12243248E+00 0.22120746E+04</pdfrwt>
<totfact> 0.33082972E+00</totfact>
</mgrwt>
</event>
<event>
12    1  0.1536832E-007  0.1417690E+04  0.7818608E-02  0.8941113E-01
          2   -1    0    0  501    0  0.00000000000E+00  0.00000000000E+00  0.90320062576E+03  0.90320062576E+03  0.00000000000E+00 0. -1.
         -2   -1    0    0    0  501 -0.00000000000E+00 -0.00000000000E+00 -0.55631150251E+03  0.55631150251E+03  0.00000000000E+00 0.  1.
         23    2    1    2    0    0  0.17571731096E+01 -0.17723231032E+03 -0.28330849369E+03  0.34646778335E+03  0.91443112498E+02 0.  0.
        254    2    1    2    0    0 -0.17571731096E+01  0.17723231032E+03  0.63019761693E+03  0.11130443449E+04  0.90016903852E+03 0.  0.
        -24    2    4    4    0    0  0.31349942520E+03  0.15568329405E+03 -0.45986651222E+02  0.36249705737E+03  0.82281023729E+02 0.  0.
         24    2    4    4    0    0 -0.31525659831E+03  0.21549016276E+02  0.67618426815E+03  0.75054728755E+03  0.79025207827E+02 0.  0.
         13    1    3    3    0    0  0.41692727986E+02 -0.52643059979E+02 -0.11653607194E+03  0.13449993083E+03  0.00000000000E+00 0.  1.
        -13    1    3    3    0    0 -0.39935554876E+02 -0.12458925034E+03 -0.16677242174E+03  0.21196785251E+03  0.00000000000E+00 0. -1.
          4    1    6    6  502    0 -0.19159045144E+03  0.90125106870E+01  0.31751532874E+03  0.37095028025E+03  0.00000000000E+00 0. -1.
          3    1    5    5  503    0  0.24613335936E+03  0.12850848458E+03 -0.21812349359E+01  0.27767034228E+03  0.00000000000E+00 0. -1.
         -2    1    5    5    0  503  0.67366065849E+02  0.27174809465E+02 -0.43805416286E+02  0.84826715093E+02  0.00000000000E+00 0.  1.
         -3    1    6    6    0  502 -0.12366614688E+03  0.12536505589E+02  0.35866893941E+03  0.37959700730E+03  0.00000000000E+00 0.  1.
<mgrwt>
<rscale>  0 0.14176895E+04</rscale>
<asrwt>0</asrwt>
<pdfrwt beam="1">  1        2 0.13895394E+00 0.14176895E+04</pdfrwt>
<pdfrwt beam="2">  1       -2 0.85586385E-01 0.14176895E+04</pdfrwt>
<totfact> 0.33650489E+01</totfact>
</mgrwt>
</event>
<event>
12    1  0.1536832E-007  0.1261581E+04  0.7818608E-02  0.9060599E-01
          1   -1    0    0  501    0  0.00000000000E+00  0.00000000000E+00  0.33778164314E+04  0.33778164314E+04  0.00000000000E+00 0. -1.
         -1   -1    0    0    0  501 -0.00000000000E+00 -0.00000000000E+00 -0.11779702605E+03  0.11779702605E+03  0.00000000000E+00 0.  1.
         23    2    1    2    0    0  0.25734783719E+02  0.80017354739E+02  0.10298204098E+04  0.10371961725E+04  0.90447596025E+02 0.  0.
        254    2    1    2    0    0 -0.25734783719E+02 -0.80017354739E+02  0.22301989956E+04  0.24584172850E+04  0.10310009365E+04 0.  0.
        -24    2    4    4    0    0 -0.42564514985E+03 -0.48505860691E+02  0.18475372155E+04  0.18983366266E+04  0.82228786521E+02 0.  0.
         24    2    4    4    0    0  0.39991036613E+03 -0.31511494048E+02  0.38266178010E+03  0.56008065835E+03  0.79618030094E+02 0.  0.
         13    1    3    3    0    0 -0.13720178880E+02  0.42430059839E+02  0.79021517533E+03  0.79147241051E+03  0.00000000000E+00 0.  1.
        -13    1    3    3    0    0  0.39454962599E+02  0.37587294901E+02  0.23960523451E+03  0.24572376201E+03  0.00000000000E+00 0. -1.
          2    1    6    6  502    0  0.33948227086E+03 -0.99506811268E+01  0.35143131986E+03  0.48872405390E+03  0.00000000000E+00 0. -1.
          1    1    5    5  503    0 -0.42166233029E+03 -0.56973349130E+02  0.17797039253E+04  0.18298609633E+04  0.00000000000E+00 0. -1.
         -2    1    5    5    0  503 -0.39828195600E+01  0.84674884387E+01  0.67833290179E+02  0.68475663331E+02  0.00000000000E+00 0.  1.
         -1    1    6    6    0  502  0.60428095270E+02 -0.21560812921E+02  0.31230460233E+02  0.71356604447E+02  0.00000000000E+00 0.  1.
<mgrwt>
<rscale>  0 0.12615811E+04</rscale>
<asrwt>0</asrwt>
<pdfrwt beam="1">  1        1 0.51966399E+00 0.12615811E+04</pdfrwt>
<pdfrwt beam="2">  1       -1 0.18122622E-01 0.12615811E+04</pdfrwt>
<totfact> 0.75222927E+00</totfact>
</mgrwt>
</event>
<event>
12    1  0.1536832E-007  0.1246254E+04  0.7818608E-02  0.9073307E-01
          1   -1    0    0  501    0  0.00000000000E+00  0.00000000000E+00  0.63934164999E+03  0.63934164999E+03  0.00000000000E+00 0. -1.
         -1   -1    0    0    0  501 -0.00000000000E+00 -0.00000000000E+00 -0.60732313911E+03  0.60732313911E+03  0.00000000000E+00 0.  1.
         23    2    1    2    0    0 -0.18438242693E+03 -0.19433288370E+03  0.13371434639E+03  0.31354277559E+03  0.93098854177E+02 0.  0.
        254    2    1    2    0    0  0.18438242693E+03  0.19433288370E+03 -0.10169583551E+03  0.93312201350E+03  0.88803856902E+03 0.  0.
        -24    2    4    4    0    0  0.26660666265E+03 -0.18457914336E+03 -0.33578595761E+03  0.47340975946E+03  0.78841729388E+02 0.  0.
         24    2    4    4    0    0 -0.82224235717E+02  0.37891202705E+03  0.23409012210E+03  0.45971225404E+03  0.78752917829E+02 0.  0.
         13    1    3    3    0    0 -0.78026618784E+02 -0.89793809072E+02  0.92859189589E+01  0.11932019811E+03  0.00000000000E+00 0.  1.
        -13    1    3    3    0    0 -0.10635580814E+03 -0.10453907462E+03  0.12442842743E+03  0.19422257748E+03  0.00000000000E+00 0. -1.
          2    1    6    6  502    0 -0.51296751251E+02  0.33624270674E+03  0.22028279325E+03  0.40523452904E+03  0.00000000000E+00 0. -1.
          1    1    5    5  503    0  0.24865590088E+03 -0.18692689735E+03 -0.29468394994E+03  0.42849743564E+03  0.00000000000E+00 0. -1.
         -2    1    5    5    0  503  0.17950761760E+02  0.23477539868E+01 -0.41102007666E+02  0.44912323818E+02  0.00000000000E+00 0.  1.
         -1    1    6    6    0  502 -0.30927484465E+02  0.42669320319E+02  0.13807328850E+02  0.54477725005E+02  0.00000000000E+00 0.  1.
<mgrwt>
<rscale>  0 0.12462536E+04</rscale>
<asrwt>0</asrwt>
<pdfrwt beam="1">  1        1 0.98360254E-01 0.12462536E+04</pdfrwt>
<pdfrwt beam="2">  1       -1 0.93434329E-01 0.12462536E+04</pdfrwt>
<totfact> 0.34236886E+01</totfact>
</mgrwt>
</event>
<event>
12    1  0.1536832E-007  0.1645258E+04  0.7818608E-02  0.8793217E-01
         -1   -1    0    0    0  501 -0.00000000000E+00  0.00000000000E+00  0.30970279792E+03  0.30970279792E+03  0.00000000000E+00 0.  1.
          1   -1    0    0  501    0  0.00000000000E+00 -0.00000000000E+00 -0.21850581774E+04  0.21850581774E+04  0.00000000000E+00 0. -1.
         23    2    1    2    0    0 -0.99932276347E+02  0.12440698236E+03 -0.14792888004E+04  0.14906680308E+04  0.91281246529E+02 0.  0.
        254    2    1    2    0    0  0.99932276347E+02 -0.12440698236E+03 -0.39606657910E+03  0.10040929445E+04  0.90877409132E+03 0.  0.
        -24    2    4    4    0    0  0.11600040830E+03 -0.46419728980E+03 -0.12763783350E+02  0.48540081391E+03  0.80720613244E+02 0.  0.
         24    2    4    4    0    0 -0.16068131952E+02  0.33979030743E+03 -0.38330279575E+03  0.51869213062E+03  0.80030339497E+02 0.  0.
         13    1    3    3    0    0 -0.90571628629E+02  0.59690824066E+02 -0.66814836033E+03  0.67689618539E+03  0.00000000000E+00 0.  1.
        -13    1    3    3    0    0 -0.93606477180E+01  0.64716158296E+02 -0.81114044010E+03  0.81377184544E+03  0.00000000000E+00 0. -1.
          2    1    6    6  502    0  0.14870777620E+02  0.78852163187E+02 -0.51105118551E+02  0.95134309313E+02  0.00000000000E+00 0. -1.
          3    1    5    5  503    0 -0.34225871919E+01 -0.38260142166E+01  0.78115507265E+01  0.93473425434E+01  0.00000000000E+00 0. -1.
         -4    1    5    5    0  503  0.11942299549E+03 -0.46037127558E+03 -0.20575334077E+02  0.47605347137E+03  0.00000000000E+00 0.  1.
         -1    1    6    6    0  502 -0.30938909572E+02  0.26093814425E+03 -0.33219767720E+03  0.42355782130E+03  0.00000000000E+00 0.  1.
<mgrwt>
<rscale>  0 0.16452582E+04</rscale>
<asrwt>0</asrwt>
<pdfrwt beam="1">  1        1 0.33616281E+00 0.16452582E+04</pdfrwt>
<pdfrwt beam="2">  1       -1 0.47646582E-01 0.16452582E+04</pdfrwt>
<totfact> 0.93850100E+00</totfact>
</mgrwt>
</event>
<event>
12    1  0.1536832E-007  0.2120216E+04  0.7818608E-02  0.8552390E-01
          2   -1    0    0  501    0  0.00000000000E+00  0.00000000000E+00  0.10764995024E+04  0.10764995024E+04  0.00000000000E+00 0.  1.
         -2   -1    0    0    0  501 -0.00000000000E+00 -0.00000000000E+00 -0.10439662262E+04  0.10439662262E+04  0.00000000000E+00 0. -1.
         23    2    1    2    0    0 -0.10768345618E+03  0.22957658534E+03 -0.81171443170E+03  0.85507664407E+03  0.89300690576E+02 0.  0.
        254    2    1    2    0    0  0.10768345618E+03 -0.22957658534E+03  0.84424770787E+03  0.12653890845E+04  0.90782939345E+03 0.  0.
        -24    2    4    4    0    0 -0.22258307064E+03 -0.39157280270E+03  0.16025608546E+03  0.48460320906E+03  0.79282874326E+02 0.  0.
         24    2    4    4    0    0  0.33026652682E+03  0.16199621736E+03  0.68399162241E+03  0.78078587541E+03  0.80394592748E+02 0.  0.
         11    1    3    3    0    0 -0.83447704606E+02  0.17693328302E+03 -0.72386590078E+03  0.74983381383E+03  0.00000000000E+00 0. -1.
        -11    1    3    3    0    0 -0.24235751578E+02  0.52643302319E+02 -0.87848530917E+02  0.10524283024E+03  0.00000000000E+00 0.  1.
          4    1    6    6  502    0  0.22136060669E+03  0.65291313450E+02  0.41027603388E+03  0.47073336166E+03  0.00000000000E+00 0. -1.
          3    1    5    5  503    0 -0.16088867895E+03 -0.20455006463E+03  0.97571779431E+02  0.27793191270E+03  0.00000000000E+00 0. -1.
         -4    1    5    5    0  503 -0.61694391692E+02 -0.18702273807E+03  0.62684306026E+02  0.20667129637E+03  0.00000000000E+00 0.  1.
         -3    1    6    6    0  502  0.10890592013E+03  0.96704903908E+02  0.27371558853E+03  0.31005251375E+03  0.00000000000E+00 0.  1.
<mgrwt>
<rscale>  0 0.21202161E+04</rscale>
<asrwt>0</asrwt>
<pdfrwt beam="1">  1        2 0.16561531E+00 0.21202161E+04</pdfrwt>
<pdfrwt beam="2">  1       -2 0.16061019E+00 0.21202161E+04</pdfrwt>
<totfact> 0.51671030E+00</totfact>
</mgrwt>
</event>
<event>
12    1  0.1536832E-007  0.2733238E+04  0.7818608E-02  0.8324300E-01
          1   -1    0    0  501    0  0.00000000000E+00  0.00000000000E+00  0.18152403667E+04  0.18152403667E+04  0.00000000000E+00 0. -1.
         -1   -1    0    0    0  501 -0.00000000000E+00 -0.00000000000E+00 -0.10288705656E+04  0.10288705656E+04  0.00000000000E+00 0.  1.
         23    2    1    2    0    0 -0.23547945126E+03 -0.70773251823E+03 -0.64755727731E+03  0.99216441822E+03  0.93401906080E+02 0.  0.
        254    2    1    2    0    0  0.23547945126E+03  0.70773251823E+03  0.14339270784E+04  0.18519465141E+04  0.90400394668E+03 0.  0.
        -24    2    4    4    0    0  0.13394772257E+03 -0.16276436205E+03  0.84419698931E+02  0.24072753354E+03  0.79930156393E+02 0.  0.
         24    2    4    4    0    0  0.10153172869E+03  0.87049688027E+03  0.13495073795E+04  0.16112189806E+04  0.82358518721E+02 0.  0.
         13    1    3    3    0    0  0.47568053025E+01 -0.25799694403E+02 -0.95976864945E+01  0.27935049920E+02  0.00000000000E+00 0. -1.
        -13    1    3    3    0    0 -0.24023625656E+03 -0.68193282383E+03 -0.63795959081E+03  0.96422936830E+03  0.00000000000E+00 0.  1.
          4    1    6    6  502    0  0.11192396228E+03  0.70428598301E+03  0.10701397696E+04  0.12859801110E+04  0.00000000000E+00 0. -1.
          1    1    5    5  503    0  0.20883034737E+02 -0.72341616460E+02  0.46699932630E+01  0.75440171321E+02  0.00000000000E+00 0. -1.
         -2    1    5    5    0  503  0.11306468783E+03 -0.90422745586E+02  0.79749705668E+02  0.16528736222E+03  0.00000000000E+00 0.  1.
         -3    1    6    6    0  502 -0.10392233592E+02  0.16621089726E+03  0.27936760984E+03  0.32523886962E+03  0.00000000000E+00 0.  1.
<mgrwt>
<rscale>  0 0.27332379E+04</rscale>
<asrwt>0</asrwt>
<pdfrwt beam="1">  1        1 0.27926775E+00 0.27332379E+04</pdfrwt>
<pdfrwt beam="2">  1       -1 0.15828778E+00 0.27332379E+04</pdfrwt>
<totfact> 0.10429715E+00</totfact>
</mgrwt>
</event>
<event>
12    1  0.1536832E-007  0.1333972E+04  0.7818608E-02  0.9003051E-01
         -1   -1    0    0    0  501 -0.00000000000E+00  0.00000000000E+00  0.90004636394E+03  0.90004636394E+03  0.00000000000E+00 0.  1.
          1   -1    0    0  501    0  0.00000000000E+00 -0.00000000000E+00 -0.49427457224E+03  0.49427457224E+03  0.00000000000E+00 0. -1.
         23    2    1    2    0    0 -0.23100232952E+03  0.32939706541E+02  0.37458143210E+03  0.44960319758E+03  0.85934192829E+02 0.  0.
        254    2    1    2    0    0  0.23100232952E+03 -0.32939706541E+02  0.31190359607E+02  0.94471773859E+03  0.91491620740E+03 0.  0.
        -24    2    4    4    0    0  0.14160205147E+03 -0.45025875314E+03 -0.10279569457E+03  0.49036637084E+03  0.84309768582E+02 0.  0.
         24    2    4    4    0    0  0.89400278051E+02  0.41731904659E+03  0.13398605418E+03  0.45435136775E+03  0.79594637357E+02 0.  0.
         13    1    3    3    0    0 -0.52056135499E+02 -0.87919236276E+01  0.15239442099E+03  0.16127987696E+03  0.00000000000E+00 0. -1.
        -13    1    3    3    0    0 -0.17894619402E+03  0.41731630169E+02  0.22218701111E+03  0.28832332062E+03  0.00000000000E+00 0.  1.
          4    1    6    6  502    0  0.18335692218E+02  0.16723616373E+02  0.19895212163E+02  0.31807175616E+02  0.00000000000E+00 0. -1.
          3    1    5    5  503    0  0.80169933411E+02 -0.12820377162E+03 -0.23139481365E+02  0.15296686203E+03  0.00000000000E+00 0. -1.
         -4    1    5    5    0  503  0.61432118055E+02 -0.32205498151E+03 -0.79656213205E+02  0.33739950882E+03  0.00000000000E+00 0.  1.
         -3    1    6    6    0  502  0.71064585833E+02  0.40059543022E+03  0.11409084201E+03  0.42254419213E+03  0.00000000000E+00 0.  1.
<mgrwt>
<rscale>  0 0.13339716E+04</rscale>
<asrwt>0</asrwt>
<pdfrwt beam="1">  1        1 0.76042242E-01 0.13339716E+04</pdfrwt>
<pdfrwt beam="2">  1       -1 0.13846867E+00 0.13339716E+04</pdfrwt>
<totfact> 0.19042037E+01</totfact>
</mgrwt>
</event>
<event>
12    1  0.1536832E-007  0.1228282E+04  0.7818608E-02  0.9088455E-01
          2   -1    0    0  501    0  0.00000000000E+00  0.00000000000E+00  0.52011149072E+03  0.52011149072E+03  0.00000000000E+00 0. -1.
         -2   -1    0    0    0  501 -0.00000000000E+00 -0.00000000000E+00 -0.72516992733E+03  0.72516992733E+03  0.00000000000E+00 0.  1.
         23    2    1    2    0    0 -0.14462539822E+03  0.14781436722E+02 -0.28028906172E+03  0.32952664330E+03  0.94291324337E+02 0.  0.
        254    2    1    2    0    0  0.14462539822E+03 -0.14781436722E+02  0.75230625104E+02  0.91575477475E+03  0.90100619523E+03 0.  0.
        -24    2    4    4    0    0  0.12670518216E+03  0.42290068423E+03  0.12917509290E+03  0.46687191908E+03  0.79899889179E+02 0.  0.
         24    2    4    4    0    0  0.17920216055E+02 -0.43768212095E+03 -0.53944467792E+02  0.44888285567E+03  0.81847659492E+02 0.  0.
         13    1    3    3    0    0 -0.36692172599E+02  0.47880185787E+02 -0.93416328209E+02  0.11119999144E+03  0.00000000000E+00 0. -1.
        -13    1    3    3    0    0 -0.10793322562E+03 -0.33098749065E+02 -0.18687273351E+03  0.21832665186E+03  0.00000000000E+00 0.  1.
          2    1    6    6  502    0 -0.94662703364E+01 -0.38714342931E+03 -0.56420488533E+02  0.39134756504E+03  0.00000000000E+00 0. -1.
          1    1    5    5  503    0  0.71585053822E+02  0.14007717057E+03  0.72476633246E+02  0.17320189379E+03  0.00000000000E+00 0. -1.
         -2    1    5    5    0  503  0.55120128342E+02  0.28282351366E+03  0.56698459651E+02  0.29367002529E+03  0.00000000000E+00 0.  1.
         -1    1    6    6    0  502  0.27386486391E+02 -0.50538691638E+02  0.24760207413E+01  0.57535290632E+02  0.00000000000E+00 0.  1.
<mgrwt>
<rscale>  0 0.12282821E+04</rscale>
<asrwt>0</asrwt>
<pdfrwt beam="1">  1        2 0.80017153E-01 0.12282821E+04</pdfrwt>
<pdfrwt beam="2">  1       -2 0.11156460E+00 0.12282821E+04</pdfrwt>
<totfact> 0.36769105E+01</totfact>
</mgrwt>
</event>
<event>
12    1  0.1536832E-007  0.2702412E+04  0.7818608E-02  0.8334223E-01
         -1   -1    0    0    0  501 -0.00000000000E+00  0.00000000000E+00  0.15773671699E+04  0.15773671699E+04  0.00000000000E+00 0.  1.
          1   -1    0    0  501    0  0.00000000000E+00 -0.00000000000E+00 -0.11574711439E+04  0.11574711439E+04  0.00000000000E+00 0. -1.
         23    2    1    2    0    0  0.41301528059E+03 -0.95447248052E+03  0.79007361685E+03  0.13091994631E+04  0.90485225144E+02 0.  0.
        254    2    1    2    0    0 -0.41301528059E+03  0.95447248052E+03 -0.37017759086E+03  0.14256388508E+04  0.90211714646E+03 0.  0.
        -24    2    4    4    0    0  0.81823674953E+02  0.79166677437E+03 -0.35017092476E+02  0.80066665393E+03  0.80059343720E+02 0.  0.
         24    2    4    4    0    0 -0.49483895554E+03  0.16280570615E+03 -0.33516049838E+03  0.62497219682E+03  0.82984319310E+02 0.  0.
         11    1    3    3    0    0  0.30359187729E+03 -0.62127674121E+03  0.48807729840E+03  0.84638777540E+03  0.00000000000E+00 0. -1.
        -11    1    3    3    0    0  0.10942340330E+03 -0.33319573930E+03  0.30199631845E+03  0.46281168766E+03  0.00000000000E+00 0.  1.
          4    1    6    6  502    0 -0.55159462959E+02  0.19570237348E+02 -0.72440261424E+02  0.93129759041E+02  0.00000000000E+00 0. -1.
          1    1    5    5  503    0  0.17409840199E+02  0.52198958898E+03 -0.11477905716E+02  0.52240594929E+03  0.00000000000E+00 0. -1.
         -2    1    5    5    0  503  0.64413834754E+02  0.26967718539E+03 -0.23539186760E+02  0.27826070463E+03  0.00000000000E+00 0.  1.
         -3    1    6    6    0  502 -0.43967949258E+03  0.14323546880E+03 -0.26272023696E+03  0.53184243778E+03  0.00000000000E+00 0.  1.
<mgrwt>
<rscale>  0 0.27024115E+04</rscale>
<asrwt>0</asrwt>
<pdfrwt beam="1">  1        1 0.17807248E+00 0.27024115E+04</pdfrwt>
<pdfrwt beam="2">  1       -1 0.24267187E+00 0.27024115E+04</pdfrwt>
<totfact> 0.78062932E-01</totfact>
</mgrwt>
</event>
<event>
12    1  0.1536832E-007  0.1905845E+04  0.7818608E-02  0.8651952E-01
         -2   -1    0    0    0  501 -0.00000000000E+00  0.00000000000E+00  0.18094756473E+04  0.18094756473E+04  0.00000000000E+00 0.  1.
          2   -1    0    0  501    0  0.00000000000E+00 -0.00000000000E+00 -0.50183696485E+03  0.50183696485E+03  0.00000000000E+00 0. -1.
         23    2    1    2    0    0 -0.72656943791E+03 -0.11986049285E+03  0.56022182807E+03  0.92966107152E+03  0.90285798478E+02 0.  0.
        254    2    1    2    0    0  0.72656943791E+03  0.11986049285E+03  0.74741685440E+03  0.13816515406E+04  0.89892120883E+03 0.  0.
        -24    2    4    4    0    0  0.25097713380E+03 -0.85448765658E+02  0.80763122377E+03  0.85375294769E+03  0.79592014903E+02 0.  0.
         24    2    4    4    0    0  0.47559230410E+03  0.20530925850E+03 -0.60214369374E+02  0.52789859295E+03  0.81922053274E+02 0.  0.
         11    1    3    3    0    0 -0.15863171094E+02 -0.17000875450E+02  0.24169349723E+02  0.33538447031E+02  0.00000000000E+00 0. -1.
        -11    1    3    3    0    0 -0.71070626681E+03 -0.10285961740E+03  0.53605247835E+03  0.89612262449E+03  0.00000000000E+00 0.  1.
          4    1    6    6  502    0  0.43935715920E+03  0.16549550774E+03 -0.64460139513E+02  0.47389723149E+03  0.00000000000E+00 0. -1.
          3    1    5    5  503    0  0.22873604189E+03 -0.89016361587E+02  0.65517419876E+03  0.69964085087E+03  0.00000000000E+00 0. -1.
         -4    1    5    5    0  503  0.22241091913E+02  0.35675959292E+01  0.15245702502E+03  0.15411209682E+03  0.00000000000E+00 0.  1.
         -3    1    6    6    0  502  0.36235144900E+02  0.39813750769E+02  0.42457701390E+01  0.54001361467E+02  0.00000000000E+00 0.  1.
<mgrwt>
<rscale>  0 0.19058455E+04</rscale>
<asrwt>0</asrwt>
<pdfrwt beam="1">  1        2 0.77205688E-01 0.19058455E+04</pdfrwt>
<pdfrwt beam="2">  1       -2 0.27838087E+00 0.19058455E+04</pdfrwt>
<totfact> 0.24743878E+00</totfact>
</mgrwt>
</event>
<event>
12    1  0.1536832E-007  0.1834354E+04  0.7818608E-02  0.8688241E-01
          1   -1    0    0  501    0  0.00000000000E+00  0.00000000000E+00  0.58919406960E+03  0.58919406960E+03  0.00000000000E+00 0. -1.
         -1   -1    0    0    0  501 -0.00000000000E+00 -0.00000000000E+00 -0.14277357313E+04  0.14277357313E+04  0.00000000000E+00 0.  1.
         23    2    1    2    0    0 -0.23673758316E+03 -0.13202494868E+03 -0.10095217083E+04  0.10495023257E+04  0.94052016316E+02 0.  0.
        254    2    1    2    0    0  0.23673758316E+03  0.13202494868E+03  0.17098004664E+03  0.96742747517E+03  0.91280144227E+03 0.  0.
        -24    2    4    4    0    0 -0.12865352944E+03 -0.29534668308E+03  0.21839763572E+03  0.39703344991E+03  0.78464254372E+02 0.  0.
         24    2    4    4    0    0  0.36539111260E+03  0.42737163175E+03 -0.47417589082E+02  0.57039402526E+03  0.83329103587E+02 0.  0.
         11    1    3    3    0    0 -0.10488827491E+03 -0.76393480416E+01 -0.34161679364E+03  0.35743802756E+03  0.00000000000E+00 0. -1.
        -11    1    3    3    0    0 -0.13184930825E+03 -0.12438560064E+03 -0.66790491468E+03  0.69206429816E+03  0.00000000000E+00 0.  1.
          2    1    6    6  502    0  0.32064731975E+03  0.39500510207E+03 -0.21058481248E+02  0.50920250781E+03  0.00000000000E+00 0. -1.
          1    1    5    5  503    0 -0.13710778080E+03 -0.28177890765E+03  0.21661942199E+03  0.38094864527E+03  0.00000000000E+00 0. -1.
         -2    1    5    5    0  503  0.84542513561E+01 -0.13567775431E+02  0.17782137301E+01  0.16084804637E+02  0.00000000000E+00 0.  1.
         -1    1    6    6    0  502  0.44743792856E+02  0.32366529679E+02 -0.26359107834E+02  0.61191517454E+02  0.00000000000E+00 0.  1.
<mgrwt>
<rscale>  0 0.18343538E+04</rscale>
<asrwt>0</asrwt>
<pdfrwt beam="1">  1        1 0.90645242E-01 0.18343538E+04</pdfrwt>
<pdfrwt beam="2">  1       -1 0.21965165E+00 0.18343538E+04</pdfrwt>
<totfact> 0.36594986E+00</totfact>
</mgrwt>
</event>
<event>
12    1  0.1536832E-007  0.1912807E+04  0.7818608E-02  0.8648508E-01
          1   -1    0    0  501    0  0.00000000000E+00  0.00000000000E+00  0.38167571028E+03  0.38167571028E+03  0.00000000000E+00 0. -1.
         -1   -1    0    0    0  501 -0.00000000000E+00 -0.00000000000E+00 -0.23965566832E+04  0.23965566832E+04  0.00000000000E+00 0.  1.
         23    2    1    2    0    0 -0.22430816490E+03 -0.51432549396E+02 -0.18095710858E+04  0.18264556981E+04  0.91833776833E+02 0.  0.
        254    2    1    2    0    0  0.22430816490E+03  0.51432549396E+02 -0.20530988712E+03  0.95177669538E+03  0.90042615918E+03 0.  0.
        -24    2    4    4    0    0 -0.87757895661E+02  0.42030375197E+03 -0.60704122589E+02  0.44081954420E+03  0.79247636427E+02 0.  0.
         24    2    4    4    0    0  0.31206606056E+03 -0.36887120258E+03 -0.14460576453E+03  0.51095715117E+03  0.81946280879E+02 0.  0.
         11    1    3    3    0    0 -0.11480535617E+03 -0.68132526487E+02 -0.83416255478E+03  0.84477776886E+03  0.00000000000E+00 0. -1.
        -11    1    3    3    0    0 -0.10950280874E+03  0.16699977092E+02 -0.97540853099E+03  0.98167792920E+03  0.00000000000E+00 0.  1.
          2    1    6    6  502    0  0.27307630906E+03 -0.27193165790E+03 -0.10772766080E+03  0.40015340313E+03  0.00000000000E+00 0. -1.
          1    1    5    5  503    0 -0.57800092772E+02  0.38659067170E+03 -0.61591930787E+02  0.39571045489E+03  0.00000000000E+00 0. -1.
         -2    1    5    5    0  503 -0.29957802889E+02  0.33713080271E+02  0.88780819716E+00  0.45109089313E+02  0.00000000000E+00 0.  1.
         -1    1    6    6    0  502  0.38989751507E+02 -0.96939544675E+02 -0.36878103727E+02  0.11080374804E+03  0.00000000000E+00 0.  1.
<mgrwt>
<rscale>  0 0.19128068E+04</rscale>
<asrwt>0</asrwt>
<pdfrwt beam="1">  1        1 0.58719339E-01 0.19128068E+04</pdfrwt>
<pdfrwt beam="2">  1       -1 0.36870104E+00 0.19128068E+04</pdfrwt>
<totfact> 0.69733516E-01</totfact>
</mgrwt>
</event>
<event>
12    1  0.1536832E-007  0.1807989E+04  0.7818608E-02  0.8702062E-01
          1   -1    0    0  501    0  0.00000000000E+00  0.00000000000E+00  0.16619272776E+04  0.16619272776E+04  0.00000000000E+00 0. -1.
         -1   -1    0    0    0  501 -0.00000000000E+00 -0.00000000000E+00 -0.49172193503E+03  0.49172193503E+03  0.00000000000E+00 0.  1.
         23    2    1    2    0    0 -0.32850884441E+03  0.60404078954E+02  0.11446089261E+04  0.11957396638E+04  0.89983532588E+02 0.  0.
        254    2    1    2    0    0  0.32850884441E+03 -0.60404078954E+02  0.25596416448E+02  0.95790954887E+03  0.89742343053E+03 0.  0.
        -24    2    4    4    0    0  0.82915169658E+02 -0.46286747407E+03  0.33975648978E+02  0.47801226479E+03  0.78867969783E+02 0.  0.
         24    2    4    4    0    0  0.24559367476E+03  0.40246339512E+03 -0.83792325301E+01  0.47989728408E+03  0.89096319994E+02 0.  0.
         11    1    3    3    0    0 -0.29445788711E+02  0.32569789773E+02  0.11078763948E+03  0.11917108182E+03  0.00000000000E+00 0.  1.
        -11    1    3    3    0    0 -0.29906305570E+03  0.27834289181E+02  0.10338212866E+04  0.10765685820E+04  0.00000000000E+00 0. -1.
          2    1    6    6  502    0  0.21800731391E+03  0.28460458112E+03 -0.13298505122E+02  0.35875312787E+03  0.00000000000E+00 0. -1.
          3    1    5    5  503    0  0.24060411796E+02 -0.24307638625E+03 -0.16938375483E+02  0.24485085569E+03  0.00000000000E+00 0. -1.
         -4    1    5    5    0  503  0.58854757861E+02 -0.21979108782E+03  0.50914024461E+02  0.23316140910E+03  0.00000000000E+00 0.  1.
         -1    1    6    6    0  502  0.27586360841E+02  0.11785881399E+03  0.49192725917E+01  0.12114415621E+03  0.00000000000E+00 0.  1.
<mgrwt>
<rscale>  0 0.18079890E+04</rscale>
<asrwt>0</asrwt>
<pdfrwt beam="1">  1        1 0.25568112E+00 0.18079890E+04</pdfrwt>
<pdfrwt beam="2">  1       -1 0.75649529E-01 0.18079890E+04</pdfrwt>
<totfact> 0.83778198E+00</totfact>
</mgrwt>
</event>
<event>
12    1  0.1536832E-007  0.2091851E+04  0.7818608E-02  0.8564842E-01
         -2   -1    0    0    0  501 -0.00000000000E+00  0.00000000000E+00  0.16128934999E+04  0.16128934999E+04  0.00000000000E+00 0.  1.
          2   -1    0    0  501    0  0.00000000000E+00 -0.00000000000E+00 -0.67825933787E+03  0.67825933787E+03  0.00000000000E+00 0. -1.
         23    2    1    2    0    0 -0.17019798315E+02 -0.44288852518E+03  0.11659394680E+04  0.12500656091E+04  0.82518269307E+02 0.  0.
        254    2    1    2    0    0  0.17019798315E+02  0.44288852518E+03 -0.23130530601E+03  0.10410872286E+04  0.91319250641E+03 0.  0.
        -24    2    4    4    0    0  0.33956197733E+03  0.15923445808E+03 -0.41703507844E+03  0.56650075043E+03  0.79667399203E+02 0.  0.
         24    2    4    4    0    0 -0.32254217902E+03  0.28365406709E+03  0.18572977243E+03  0.47458647820E+03  0.79017022833E+02 0.  0.
         11    1    3    3    0    0 -0.24513795413E+01 -0.39489788186E+03  0.95881176179E+03  0.10369524294E+04  0.00000000000E+00 0.  1.
        -11    1    3    3    0    0 -0.14568418774E+02 -0.47990643316E+02  0.20712770624E+03  0.21311317970E+03  0.00000000000E+00 0. -1.
          4    1    6    6  502    0 -0.48214866210E+02  0.70671818719E+02  0.62975500550E+02  0.10623131814E+03  0.00000000000E+00 0. -1.
          1    1    5    5  503    0  0.37236406851E+02  0.47370563793E+02 -0.79626393920E+02  0.99854308460E+02  0.00000000000E+00 0. -1.
         -2    1    5    5    0  503  0.30232557048E+03  0.11186389429E+03 -0.33740868452E+03  0.46664644197E+03  0.00000000000E+00 0.  1.
         -3    1    6    6    0  502 -0.27432731281E+03  0.21298224838E+03  0.12275427188E+03  0.36835516006E+03  0.00000000000E+00 0.  1.
<mgrwt>
<rscale>  0 0.20918509E+04</rscale>
<asrwt>0</asrwt>
<pdfrwt beam="1">  1        2 0.10434759E+00 0.20918509E+04</pdfrwt>
<pdfrwt beam="2">  1       -2 0.24813746E+00 0.20918509E+04</pdfrwt>
<totfact> 0.25937336E+00</totfact>
</mgrwt>
</event>
<event>
12    1  0.1536832E-007  0.1857654E+04  0.7818608E-02  0.8676226E-01
         -1   -1    0    0    0  501 -0.00000000000E+00  0.00000000000E+00  0.13860016324E+04  0.13860016324E+04  0.00000000000E+00 0.  1.
          1   -1    0    0  501    0  0.00000000000E+00 -0.00000000000E+00 -0.62245237978E+03  0.62245237978E+03  0.00000000000E+00 0. -1.
         23    2    1    2    0    0 -0.21101197702E+03 -0.64626760176E+03  0.69044003464E+02  0.68936830253E+03  0.90959961432E+02 0.  0.
        254    2    1    2    0    0  0.21101197702E+03  0.64626760176E+03  0.69450524914E+03  0.13190857096E+04  0.89188659635E+03 0.  0.
        -24    2    4    4    0    0  0.51071724177E+03  0.54231803473E+03  0.64722356863E+03  0.99008430818E+03  0.80172549475E+02 0.  0.
         24    2    4    4    0    0 -0.29970526474E+03  0.10394956703E+03  0.47281680513E+02  0.32900140145E+03  0.73332166519E+02 0.  0.
         11    1    3    3    0    0  0.76401256208E+01 -0.15392022834E+02  0.78061743349E+01  0.18873850804E+02  0.00000000000E+00 0.  1.
        -11    1    3    3    0    0 -0.21865210265E+03 -0.63087557892E+03  0.61237829129E+02  0.67049445172E+03  0.00000000000E+00 0. -1.
          4    1    6    6  502    0 -0.35074218700E+02 -0.43814103313E+01 -0.11313873660E+02  0.37113357583E+02  0.00000000000E+00 0. -1.
          1    1    5    5  503    0  0.11683347065E+03  0.17601342608E+03  0.18973599855E+03  0.28395516402E+03  0.00000000000E+00 0. -1.
         -2    1    5    5    0  503  0.39388377111E+03  0.36630460864E+03  0.45748757008E+03  0.70612914416E+03  0.00000000000E+00 0.  1.
         -3    1    6    6    0  502 -0.26463104604E+03  0.10833097736E+03  0.58595554173E+02  0.29188804387E+03  0.00000000000E+00 0.  1.
<mgrwt>
<rscale>  0 0.18576545E+04</rscale>
<asrwt>0</asrwt>
<pdfrwt beam="1">  1        1 0.95761905E-01 0.18576545E+04</pdfrwt>
<pdfrwt beam="2">  1       -1 0.21323102E+00 0.18576545E+04</pdfrwt>
<totfact> 0.37254548E+00</totfact>
</mgrwt>
</event>
<event>
12    1  0.1536832E-007  0.1919451E+04  0.7818608E-02  0.8645235E-01
          1   -1    0    0  501    0  0.00000000000E+00  0.00000000000E+00  0.17312492490E+04  0.17312492490E+04  0.00000000000E+00 0. -1.
         -1   -1    0    0    0  501 -0.00000000000E+00 -0.00000000000E+00 -0.53202793010E+03  0.53202793010E+03  0.00000000000E+00 0.  1.
         23    2    1    2    0    0 -0.39733291280E+03 -0.30891089600E+03  0.11317974321E+04  0.12420448264E+04  0.91708986913E+02 0.  0.
        254    2    1    2    0    0  0.39733291280E+03  0.30891089600E+03  0.67423886811E+02  0.10212323527E+04  0.88604184576E+03 0.  0.
        -24    2    4    4    0    0  0.66616383284E+03  0.28968908235E+03  0.10261820365E+03  0.73805805914E+03  0.80654735335E+02 0.  0.
         24    2    4    4    0    0 -0.26883092004E+03  0.19221813643E+02 -0.35194316835E+02  0.28317429356E+03  0.79432354264E+02 0.  0.
         11    1    3    3    0    0 -0.11048839497E+03 -0.10279291852E+03  0.24840504777E+03  0.29065294989E+03  0.00000000000E+00 0. -1.
        -11    1    3    3    0    0 -0.28684451783E+03 -0.20611797748E+03  0.88339238435E+03  0.95139187655E+03  0.00000000000E+00 0.  1.
          2    1    6    6  502    0 -0.54309395940E+02 -0.18559976024E+01  0.24349206074E+02  0.59546948292E+02  0.00000000000E+00 0. -1.
          1    1    5    5  503    0  0.39032707604E+02 -0.15259842660E+01  0.10894357904E+02  0.40553272679E+02  0.00000000000E+00 0. -1.
         -2    1    5    5    0  503  0.62713112523E+03  0.29121506662E+03  0.91723845742E+02  0.69750478646E+03  0.00000000000E+00 0.  1.
         -1    1    6    6    0  502 -0.21452152410E+03  0.21077811246E+02 -0.59543522910E+02  0.22362734526E+03  0.00000000000E+00 0.  1.
<mgrwt>
<rscale>  0 0.19194509E+04</rscale>
<asrwt>0</asrwt>
<pdfrwt beam="1">  1        1 0.26634604E+00 0.19194509E+04</pdfrwt>
<pdfrwt beam="2">  1       -1 0.81850452E-01 0.19194509E+04</pdfrwt>
<totfact> 0.62952445E+00</totfact>
</mgrwt>
</event>
<event>
12    1  0.1536832E-007  0.2020810E+04  0.7818608E-02  0.8596953E-01
         -1   -1    0    0    0  501 -0.00000000000E+00  0.00000000000E+00  0.82778407771E+03  0.82778407771E+03  0.00000000000E+00 0.  1.
          1   -1    0    0  501    0  0.00000000000E+00 -0.00000000000E+00 -0.12333143468E+04  0.12333143468E+04  0.00000000000E+00 0. -1.
         23    2    1    2    0    0  0.46365923119E+03 -0.47130416115E+03  0.30324438612E+03  0.73308916702E+03  0.91406094467E+02 0.  0.
        254    2    1    2    0    0 -0.46365923119E+03  0.47130416115E+03 -0.70877465519E+03  0.13280092574E+04  0.90782133762E+03 0.  0.
        -24    2    4    4    0    0 -0.50630469585E+02  0.39827357521E+03 -0.79455636966E+03  0.89366070464E+03  0.78258196309E+02 0.  0.
         24    2    4    4    0    0 -0.41302876160E+03  0.73030585940E+02  0.85781714470E+02  0.43434855281E+03  0.73307151047E+02 0.  0.
         11    1    3    3    0    0  0.18997875207E+03 -0.25030012866E+03  0.16701347415E+03  0.35585893440E+03  0.00000000000E+00 0. -1.
        -11    1    3    3    0    0  0.27368047911E+03 -0.22100403250E+03  0.13623091198E+03  0.37723023262E+03  0.00000000000E+00 0.  1.
          2    1    6    6  502    0 -0.11480792097E+03  0.43694609324E+02  0.69925759899E+00  0.12284366716E+03  0.00000000000E+00 0. -1.
          3    1    5    5  503    0 -0.38761935504E+02  0.15045408964E+03 -0.23689292701E+03  0.28329698128E+03  0.00000000000E+00 0. -1.
         -4    1    5    5    0  503 -0.11868534081E+02  0.24781948557E+03 -0.55766344264E+03  0.61036372336E+03  0.00000000000E+00 0.  1.
         -1    1    6    6    0  502 -0.29822084063E+03  0.29335976616E+02  0.85082456871E+02  0.31150488564E+03  0.00000000000E+00 0.  1.
<mgrwt>
<rscale>  0 0.20208097E+04</rscale>
<asrwt>0</asrwt>
<pdfrwt beam="1">  1        1 0.18974067E+00 0.20208097E+04</pdfrwt>
<pdfrwt beam="2">  1       -1 0.12735140E+00 0.20208097E+04</pdfrwt>
<totfact> 0.49981273E+00</totfact>
</mgrwt>
</event>
<event>
12    1  0.1536832E-007  0.2211180E+04  0.7818608E-02  0.8513789E-01
          1   -1    0    0  501    0  0.00000000000E+00  0.00000000000E+00  0.13300631728E+04  0.13300631728E+04  0.00000000000E+00 0. -1.
         -1   -1    0    0    0  501 -0.00000000000E+00 -0.00000000000E+00 -0.91900061153E+03  0.91900061153E+03  0.00000000000E+00 0.  1.
         23    2    1    2    0    0  0.56397808832E+03 -0.45016288887E+03 -0.39953696782E+03  0.82983741938E+03  0.91007929986E+02 0.  0.
        254    2    1    2    0    0 -0.56397808832E+03  0.45016288887E+03  0.81059952914E+03  0.14192263650E+04  0.91455670564E+03 0.  0.
        -24    2    4    4    0    0 -0.24934007559E+03 -0.18049758619E+03 -0.30083247912E+02  0.31933161476E+03  0.79484756185E+02 0.  0.
         24    2    4    4    0    0 -0.31463801273E+03  0.63066047506E+03  0.84068277705E+03  0.10998947502E+04  0.79317186734E+02 0.  0.
         13    1    3    3    0    0  0.66281510586E+02 -0.44496490577E+02 -0.78537501678E+02  0.11198801494E+03  0.00000000000E+00 0. -1.
        -13    1    3    3    0    0  0.49769657774E+03 -0.40566639829E+03 -0.32099946614E+03  0.71784940444E+03  0.00000000000E+00 0.  1.
          2    1    6    6  502    0 -0.31063217234E+03  0.63245874474E+03  0.83302053354E+03  0.10910635268E+04  0.00000000000E+00 0. -1.
          1    1    5    5  503    0 -0.25406497746E+03 -0.17713879920E+03 -0.35049713094E+02  0.31169800984E+03  0.00000000000E+00 0. -1.
         -2    1    5    5    0  503  0.47249018645E+01 -0.33587869907E+01  0.49664651825E+01  0.76336049208E+01  0.00000000000E+00 0.  1.
         -1    1    6    6    0  502 -0.40058403947E+01 -0.17982696848E+01  0.76622435109E+01  0.88312234003E+01  0.00000000000E+00 0.  1.
<mgrwt>
<rscale>  0 0.22111797E+04</rscale>
<asrwt>0</asrwt>
<pdfrwt beam="1">  1        1 0.20462510E+00 0.22111797E+04</pdfrwt>
<pdfrwt beam="2">  1       -1 0.14138471E+00 0.22111797E+04</pdfrwt>
<totfact> 0.32034240E+00</totfact>
</mgrwt>
</event>
<event>
12    1  0.1536832E-007  0.1602193E+04  0.7818608E-02  0.8819202E-01
          2   -1    0    0  501    0  0.00000000000E+00  0.00000000000E+00  0.70218702561E+03  0.70218702561E+03  0.00000000000E+00 0. -1.
         -2   -1    0    0    0  501 -0.00000000000E+00 -0.00000000000E+00 -0.91393857065E+03  0.91393857065E+03  0.00000000000E+00 0.  1.
         23    2    1    2    0    0 -0.10087357658E+03  0.53245098384E+03 -0.97941945591E+02  0.55860871528E+03  0.93656518395E+02 0.  0.
        254    2    1    2    0    0  0.10087357658E+03 -0.53245098384E+03 -0.11380959944E+03  0.10575168810E+04  0.90094938813E+03 0.  0.
        -24    2    4    4    0    0  0.42550566790E+03 -0.20623813928E+03 -0.28751250074E+03  0.55862263747E+03  0.76200849730E+02 0.  0.
         24    2    4    4    0    0 -0.32463209132E+03 -0.32621284456E+03  0.17370290130E+03  0.49889424351E+03  0.83198278900E+02 0.  0.
         13    1    3    3    0    0 -0.97322827189E+02  0.53485088104E+03 -0.92125687050E+02  0.55138402213E+03  0.00000000000E+00 0.  1.
        -13    1    3    3    0    0 -0.35507493872E+01 -0.23998971995E+01 -0.58162585402E+01  0.72246931551E+01  0.00000000000E+00 0. -1.
          4    1    6    6  502    0 -0.23435705880E+03 -0.17869394878E+03  0.10737311154E+03  0.31366182972E+03  0.00000000000E+00 0. -1.
          1    1    5    5  503    0  0.31937326648E+03 -0.18915916487E+03 -0.21507183954E+03  0.42899460272E+03  0.00000000000E+00 0. -1.
         -2    1    5    5    0  503  0.10613240142E+03 -0.17078974409E+02 -0.72440661201E+02  0.12962803475E+03  0.00000000000E+00 0.  1.
         -3    1    6    6    0  502 -0.90275032524E+02 -0.14751889578E+03  0.66329789758E+02  0.18523241379E+03  0.00000000000E+00 0.  1.
<mgrwt>
<rscale>  0 0.16021933E+04</rscale>
<asrwt>0</asrwt>
<pdfrwt beam="1">  1        2 0.10802877E+00 0.16021933E+04</pdfrwt>
<pdfrwt beam="2">  1       -2 0.14060593E+00 0.16021933E+04</pdfrwt>
<totfact> 0.13890120E+01</totfact>
</mgrwt>
</event>
<event>
12    1  0.1536832E-007  0.1843405E+04  0.7818608E-02  0.8683552E-01
          1   -1    0    0  501    0  0.00000000000E+00  0.00000000000E+00  0.10917409216E+04  0.10917409216E+04  0.00000000000E+00 0. -1.
         -1   -1    0    0    0  501 -0.00000000000E+00 -0.00000000000E+00 -0.77814744384E+03  0.77814744384E+03  0.00000000000E+00 0.  1.
         23    2    1    2    0    0 -0.64934428866E+03  0.25049155986E+03  0.30055675610E+02  0.70332512117E+03  0.96792849185E+02 0.  0.
        254    2    1    2    0    0  0.64934428866E+03 -0.25049155986E+03  0.28353780215E+03  0.11665632443E+04  0.89223432508E+03 0.  0.
        -24    2    4    4    0    0  0.51518686685E+03 -0.23184019821E+03 -0.24071245893E+03  0.61921666623E+03  0.79494695160E+02 0.  0.
         24    2    4    4    0    0  0.13415742181E+03 -0.18651361652E+02  0.52425026108E+03  0.54734657804E+03  0.80024078433E+02 0.  0.
         11    1    3    3    0    0 -0.30554829645E+03  0.99792777175E+02  0.59135456610E+02  0.32682619550E+03  0.00000000000E+00 0. -1.
        -11    1    3    3    0    0 -0.34379599222E+03  0.15069878269E+03 -0.29079781000E+02  0.37649892567E+03  0.00000000000E+00 0.  1.
          2    1    6    6  502    0  0.11928418657E+03 -0.28753036855E+02  0.50957194311E+03  0.52413645123E+03  0.00000000000E+00 0. -1.
          3    1    5    5  503    0  0.49967515536E+03 -0.22893794833E+03 -0.21738635697E+03  0.59105386663E+03  0.00000000000E+00 0. -1.
         -4    1    5    5    0  503  0.15511711498E+02 -0.29022498864E+01 -0.23326101967E+02  0.28162799594E+02  0.00000000000E+00 0.  1.
         -1    1    6    6    0  502  0.14873235237E+02  0.10101675204E+02  0.14678317968E+02  0.23210126814E+02  0.00000000000E+00 0.  1.
<mgrwt>
<rscale>  0 0.18434049E+04</rscale>
<asrwt>0</asrwt>
<pdfrwt beam="1">  1        1 0.16796014E+00 0.18434049E+04</pdfrwt>
<pdfrwt beam="2">  1       -1 0.11971499E+00 0.18434049E+04</pdfrwt>
<totfact> 0.75307635E+00</totfact>
</mgrwt>
</event>
<event>
12    1  0.1536832E-007  0.3443119E+04  0.7818608E-02  0.8127404E-01
         -2   -1    0    0    0  501 -0.00000000000E+00  0.00000000000E+00  0.92891545983E+03  0.92891545983E+03  0.00000000000E+00 0.  1.
          2   -1    0    0  501    0  0.00000000000E+00 -0.00000000000E+00 -0.31905676897E+04  0.31905676897E+04  0.00000000000E+00 0. -1.
         23    2    1    2    0    0  0.66050823666E+03 -0.14242026050E+04 -0.14300222724E+04  0.21259661990E+04  0.10071935848E+03 0.  0.
        254    2    1    2    0    0 -0.66050823666E+03  0.14242026050E+04 -0.83162995753E+03  0.19935169505E+04  0.90436566447E+03 0.  0.
        -24    2    4    4    0    0  0.11626342454E+03  0.67559571711E+03 -0.53153896105E+03  0.87110351703E+03  0.79629852529E+02 0.  0.
         24    2    4    4    0    0 -0.77677166120E+03  0.74860688788E+03 -0.30009099648E+03  0.11224134335E+04  0.77271102805E+02 0.  0.
         11    1    3    3    0    0  0.33150684411E+03 -0.74661953268E+03 -0.67834587950E+03  0.10618336247E+04  0.00000000000E+00 0.  1.
        -11    1    3    3    0    0  0.32900139255E+03 -0.67758307230E+03 -0.75167639288E+03  0.10641325744E+04  0.00000000000E+00 0. -1.
          4    1    6    6  502    0 -0.14988513621E+03  0.18827016533E+03 -0.72953744900E+02  0.25146263759E+03  0.00000000000E+00 0. -1.
          3    1    5    5  503    0  0.52445616281E+02  0.12111220035E+03 -0.99632021232E+02  0.16536398457E+03  0.00000000000E+00 0. -1.
         -4    1    5    5    0  503  0.63817808255E+02  0.55448351676E+03 -0.43190693982E+03  0.70573953246E+03  0.00000000000E+00 0.  1.
         -3    1    6    6    0  502 -0.62688652499E+03  0.56033672255E+03 -0.22713725158E+03  0.87095079592E+03  0.00000000000E+00 0.  1.
<mgrwt>
<rscale>  0 0.34431193E+04</rscale>
<asrwt>0</asrwt>
<pdfrwt beam="1">  1        2 0.49085656E+00 0.34431193E+04</pdfrwt>
<pdfrwt beam="2">  1       -2 0.14291007E+00 0.34431193E+04</pdfrwt>
<totfact> 0.36921985E-01</totfact>
</mgrwt>
</event>
<event>
12    1  0.1536832E-007  0.1010435E+04  0.7818608E-02  0.9297174E-01
          2   -1    0    0  501    0  0.00000000000E+00  0.00000000000E+00  0.72625686150E+03  0.72625686150E+03  0.00000000000E+00 0.  1.
         -2   -1    0    0    0  501 -0.00000000000E+00 -0.00000000000E+00 -0.35145218721E+03  0.35145218721E+03  0.00000000000E+00 0. -1.
         23    2    1    2    0    0 -0.53264843173E+02  0.43024516182E+02  0.18157442097E+02  0.10851324874E+03  0.82202067717E+02 0.  0.
        254    2    1    2    0    0  0.53264843173E+02 -0.43024516182E+02  0.35664723219E+03  0.96919579997E+03  0.89858499762E+03 0.  0.
        -24    2    4    4    0    0  0.26284113603E+03 -0.36699364622E+03  0.34687395314E+03  0.57467289919E+03  0.78470392769E+02 0.  0.
         24    2    4    4    0    0 -0.20957629286E+03  0.32396913004E+03  0.97732790443E+01  0.39452290078E+03  0.81698118179E+02 0.  0.
         13    1    3    3    0    0  0.43999402900E+01  0.83736574661E+01  0.37370117864E+02  0.38548713637E+02  0.00000000000E+00 0.  1.
        -13    1    3    3    0    0 -0.57664783463E+02  0.34650858716E+02 -0.19212675767E+02  0.69964535100E+02  0.00000000000E+00 0. -1.
          2    1    6    6  502    0 -0.23825657112E+02  0.10025695446E+03 -0.68176656405E+01  0.10327438898E+03  0.00000000000E+00 0. -1.
          1    1    5    5  503    0  0.22022224905E+02 -0.69748250118E+02  0.34924477450E+02  0.81052550296E+02  0.00000000000E+00 0. -1.
         -4    1    5    5    0  503  0.24081891113E+03 -0.29724539610E+03  0.31194947569E+03  0.49362034890E+03  0.00000000000E+00 0.  1.
         -1    1    6    6    0  502 -0.18575063575E+03  0.22371217557E+03  0.16590944685E+02  0.29124851180E+03  0.00000000000E+00 0.  1.
<mgrwt>
<rscale>  0 0.10104347E+04</rscale>
<asrwt>0</asrwt>
<pdfrwt beam="1">  1        2 0.11173182E+00 0.10104347E+04</pdfrwt>
<pdfrwt beam="2">  1       -2 0.54069567E-01 0.10104347E+04</pdfrwt>
<totfact> 0.12568446E+02</totfact>
</mgrwt>
</event>
<event>
12    1  0.1536832E-007  0.1653754E+04  0.7818608E-02  0.8788189E-01
         -1   -1    0    0    0  501 -0.00000000000E+00  0.00000000000E+00  0.29601526594E+03  0.29601526594E+03  0.00000000000E+00 0.  1.
          1   -1    0    0  501    0  0.00000000000E+00 -0.00000000000E+00 -0.23097648775E+04  0.23097648775E+04  0.00000000000E+00 0. -1.
         23    2    1    2    0    0  0.44490526931E+02  0.67575630569E+00 -0.16182451019E+04  0.16214123154E+04  0.90999027743E+02 0.  0.
        254    2    1    2    0    0 -0.44490526931E+02 -0.67575630569E+00 -0.39550450965E+03  0.98436782803E+03  0.90032013200E+03 0.  0.
        -24    2    4    4    0    0  0.30078702663E+03 -0.14232376201E+03 -0.48350521371E+03  0.59231652352E+03  0.79578161059E+02 0.  0.
         24    2    4    4    0    0 -0.34527755356E+03  0.14164800571E+03  0.88000704067E+02  0.39205130452E+03  0.81727320647E+02 0.  0.
         13    1    3    3    0    0 -0.27660127760E+02 -0.34297066630E+01 -0.34878551288E+03  0.34989738432E+03  0.00000000000E+00 0.  1.
        -13    1    3    3    0    0  0.72150654691E+02  0.41054629687E+01 -0.12694595890E+04  0.12715149311E+04  0.00000000000E+00 0. -1.
          2    1    6    6  502    0 -0.18044004320E+02  0.10364820875E+02 -0.13912835783E+02  0.25031632052E+02  0.00000000000E+00 0. -1.
          1    1    5    5  503    0  0.13795739128E+03 -0.61645544759E+02 -0.28907886186E+03  0.32618860092E+03  0.00000000000E+00 0. -1.
         -2    1    5    5    0  503  0.16282963536E+03 -0.80678217255E+02 -0.19442635185E+03  0.26612792260E+03  0.00000000000E+00 0.  1.
         -1    1    6    6    0  502 -0.32723354924E+03  0.13128318483E+03  0.10191353985E+03  0.36701967246E+03  0.00000000000E+00 0.  1.
<mgrwt>
<rscale>  0 0.16537541E+04</rscale>
<asrwt>0</asrwt>
<pdfrwt beam="1">  1        1 0.35534844E+00 0.16537541E+04</pdfrwt>
<pdfrwt beam="2">  1       -1 0.45540810E-01 0.16537541E+04</pdfrwt>
<totfact> 0.83935361E+00</totfact>
</mgrwt>
</event>
<event>
12    1  0.1536832E-007  0.2742532E+04  0.7818608E-02  0.8321335E-01
          3   -1    0    0  501    0  0.00000000000E+00  0.00000000000E+00  0.19699688200E+04  0.19699688200E+04  0.00000000000E+00 0. -1.
         -3   -1    0    0    0  501 -0.00000000000E+00 -0.00000000000E+00 -0.95451793278E+03  0.95451793278E+03  0.00000000000E+00 0.  1.
         23    2    1    2    0    0  0.10178501329E+04 -0.18163848804E+03  0.11504870268E+04  0.15495896328E+04  0.92715682363E+02 0.  0.
        254    2    1    2    0    0 -0.10178501329E+04  0.18163848804E+03 -0.13503613963E+03  0.13748971200E+04  0.89615617949E+03 0.  0.
        -24    2    4    4    0    0 -0.25164941330E+03 -0.67494859569E+02 -0.43373035065E+03  0.51208323762E+03  0.78893864796E+02 0.  0.
         24    2    4    4    0    0 -0.76620071962E+03  0.24913334761E+03  0.29869421102E+03  0.86281388233E+03  0.78093509447E+02 0.  0.
         13    1    3    3    0    0  0.74362808888E+03 -0.92847313763E+02  0.85084859352E+03  0.11338195127E+04  0.00000000000E+00 0. -1.
        -13    1    3    3    0    0  0.27422204403E+03 -0.88791174277E+02  0.29963843333E+03  0.41577012012E+03  0.00000000000E+00 0.  1.
          4    1    6    6  502    0 -0.11794002570E+03  0.47647473530E+02  0.19045056634E+02  0.12861899385E+03  0.00000000000E+00 0. -1.
          1    1    5    5  503    0 -0.90855739221E+01  0.11848168508E+02 -0.12049323510E+02  0.19186269766E+02  0.00000000000E+00 0. -1.
         -2    1    5    5    0  503 -0.24256383937E+03 -0.79343028077E+02 -0.42168102714E+03  0.49289696786E+03  0.00000000000E+00 0.  1.
         -3    1    6    6    0  502 -0.64826069392E+03  0.20148587408E+03  0.27964915438E+03  0.73419488848E+03  0.00000000000E+00 0.  1.
<mgrwt>
<rscale>  0 0.27425321E+04</rscale>
<asrwt>0</asrwt>
<pdfrwt beam="1">  1        3 0.30307213E+00 0.27425321E+04</pdfrwt>
<pdfrwt beam="2">  1       -3 0.14684891E+00 0.27425321E+04</pdfrwt>
<totfact> 0.28813785E-02</totfact>
</mgrwt>
</event>
<event>
12    1  0.1536832E-007  0.3672826E+04  0.7818608E-02  0.8074011E-01
          2   -1    0    0  501    0  0.00000000000E+00  0.00000000000E+00  0.23281653378E+04  0.23281653378E+04  0.00000000000E+00 0. -1.
         -2   -1    0    0    0  501 -0.00000000000E+00 -0.00000000000E+00 -0.14485283336E+04  0.14485283336E+04  0.00000000000E+00 0.  1.
         23    2    1    2    0    0 -0.85292527789E+03  0.30273673219E+03 -0.10966499607E+04  0.14249236715E+04  0.92926179197E+02 0.  0.
        254    2    1    2    0    0  0.85292527789E+03 -0.30273673219E+03  0.19762869649E+04  0.23517699999E+04  0.89776439334E+03 0.  0.
        -24    2    4    4    0    0  0.27499842124E+03  0.72636596490E+01  0.19958290397E+02  0.28701777090E+03  0.79397575644E+02 0.  0.
         24    2    4    4    0    0  0.57792685665E+03 -0.31000039183E+03  0.19563286745E+04  0.20647522290E+04  0.76682395462E+02 0.  0.
         11    1    3    3    0    0 -0.42752614028E+03  0.11610404531E+03 -0.48513383753E+03  0.65697305141E+03  0.00000000000E+00 0. -1.
        -11    1    3    3    0    0 -0.42539913761E+03  0.18663268688E+03 -0.61151612315E+03  0.76795062013E+03  0.00000000000E+00 0.  1.
          2    1    6    6  502    0  0.53186093907E+03 -0.26245524279E+03  0.17916632664E+04  0.18872774235E+04  0.00000000000E+00 0. -1.
          3    1    5    5  503    0  0.17178037619E+02 -0.15967031343E+02 -0.11726514603E+02  0.26221026126E+02  0.00000000000E+00 0. -1.
         -2    1    5    5    0  503  0.25782038362E+03  0.23230690992E+02  0.31684805001E+02  0.26079674477E+03  0.00000000000E+00 0.  1.
         -1    1    6    6    0  502  0.46065917580E+02 -0.47545149049E+02  0.16466540805E+03  0.17747480545E+03  0.00000000000E+00 0.  1.
<mgrwt>
<rscale>  0 0.36728264E+04</rscale>
<asrwt>0</asrwt>
<pdfrwt beam="1">  1        2 0.35817928E+00 0.36728264E+04</pdfrwt>
<pdfrwt beam="2">  1       -2 0.22285051E+00 0.36728264E+04</pdfrwt>
<totfact> 0.33566858E-01</totfact>
</mgrwt>
</event>
<event>
12    1  0.1536832E-007  0.1475470E+04  0.7818608E-02  0.8900931E-01
         -4   -1    0    0    0  501 -0.00000000000E+00  0.00000000000E+00  0.29314209511E+03  0.29314209511E+03  0.00000000000E+00 0.  1.
          4   -1    0    0  501    0  0.00000000000E+00 -0.00000000000E+00 -0.18566173379E+04  0.18566173379E+04  0.00000000000E+00 0. -1.
         23    2    1    2    0    0  0.24683737760E+03 -0.12175598477E+03 -0.99554601063E+03  0.10369050701E+04  0.91143043374E+02 0.  0.
        254    2    1    2    0    0 -0.24683737760E+03  0.12175598477E+03 -0.56792923213E+03  0.11128543629E+04  0.91659588119E+03 0.  0.
        -24    2    4    4    0    0  0.35298388022E+02 -0.27146763909E+03  0.83617342273E+02  0.29738131439E+03  0.80641992483E+02 0.  0.
         24    2    4    4    0    0 -0.28213576562E+03  0.39322362386E+03 -0.65154657441E+03  0.81547304847E+03  0.79107177687E+02 0.  0.
         13    1    3    3    0    0  0.84045239724E+02 -0.32089056808E+01 -0.21682302482E+03  0.23256423519E+03  0.00000000000E+00 0.  1.
        -13    1    3    3    0    0  0.16279213787E+03 -0.11854707909E+03 -0.77872298581E+03  0.80434083493E+03  0.00000000000E+00 0. -1.
          2    1    6    6  502    0 -0.45469040275E+02  0.77430254873E+02 -0.17537982770E+03  0.19703035796E+03  0.00000000000E+00 0. -1.
          3    1    5    5  503    0 -0.24758940737E+02 -0.87167200277E+02  0.15557285800E+02  0.91941041391E+02  0.00000000000E+00 0. -1.
         -4    1    5    5    0  503  0.60057328759E+02 -0.18430043881E+03  0.68060056473E+02  0.20544027300E+03  0.00000000000E+00 0.  1.
         -1    1    6    6    0  502 -0.23666672534E+03  0.31579336899E+03 -0.47616674671E+03  0.61844269051E+03  0.00000000000E+00 0.  1.
<mgrwt>
<rscale>  0 0.14754697E+04</rscale>
<asrwt>0</asrwt>
<pdfrwt beam="1">  1        4 0.28563343E+00 0.14754697E+04</pdfrwt>
<pdfrwt beam="2">  1       -4 0.45098784E-01 0.14754697E+04</pdfrwt>
<totfact> 0.35298534E-01</totfact>
</mgrwt>
</event>
<event>
12    1  0.1536832E-007  0.1654988E+04  0.7818608E-02  0.8787461E-01
         -4   -1    0    0    0  501 -0.00000000000E+00  0.00000000000E+00  0.32832177879E+03  0.32832177879E+03  0.00000000000E+00 0.  1.
          4   -1    0    0  501    0  0.00000000000E+00 -0.00000000000E+00 -0.20855957466E+04  0.20855957466E+04  0.00000000000E+00 0. -1.
         23    2    1    2    0    0  0.23221703707E+02 -0.30004258829E+03 -0.14510245538E+04  0.14846634711E+04  0.90490687120E+02 0.  0.
        254    2    1    2    0    0 -0.23221703707E+02  0.30004258829E+03 -0.30624941406E+03  0.92925405432E+03  0.82411139510E+03 0.  0.
        -24    2    4    4    0    0  0.12494796658E+03  0.39187332810E+03  0.13994160301E+03  0.44184085539E+03  0.80392721150E+02 0.  0.
         24    2    4    4    0    0 -0.14816967029E+03 -0.91830739806E+02 -0.44619101708E+03  0.48741319892E+03  0.89989259348E+02 0.  0.
         13    1    3    3    0    0  0.14618493396E+02 -0.51144910076E+02 -0.13166237560E+03  0.14200170184E+03  0.00000000000E+00 0.  1.
        -13    1    3    3    0    0  0.86032103107E+01 -0.24889767822E+03 -0.13193621782E+04  0.13426617693E+04  0.00000000000E+00 0. -1.
          2    1    6    6  502    0  0.40328704034E+01  0.11455718771E+02 -0.31426417751E+02  0.33691501435E+02  0.00000000000E+00 0. -1.
          3    1    5    5  503    0  0.98727950155E+01  0.66584423522E+02 -0.52003855805E+01  0.67512973178E+02  0.00000000000E+00 0. -1.
         -4    1    5    5    0  503  0.11507517157E+03  0.32528890458E+03  0.14514198859E+03  0.37432788222E+03  0.00000000000E+00 0.  1.
         -1    1    6    6    0  502 -0.15220254069E+03 -0.10328645858E+03 -0.41476459933E+03  0.45372169749E+03  0.00000000000E+00 0.  1.
<mgrwt>
<rscale>  0 0.16549882E+04</rscale>
<asrwt>0</asrwt>
<pdfrwt beam="1">  1        4 0.32086088E+00 0.16549882E+04</pdfrwt>
<pdfrwt beam="2">  1       -4 0.50511043E-01 0.16549882E+04</pdfrwt>
<totfact> 0.16576041E-01</totfact>
</mgrwt>
</event>
<event>
12    1  0.1536832E-007  0.1659271E+04  0.7818608E-02  0.8784940E-01
         -2   -1    0    0    0  501 -0.00000000000E+00  0.00000000000E+00  0.76495027946E+03  0.76495027946E+03  0.00000000000E+00 0. -1.
          2   -1    0    0  501    0  0.00000000000E+00 -0.00000000000E+00 -0.89979104446E+03  0.89979104446E+03  0.00000000000E+00 0.  1.
         23    2    1    2    0    0 -0.52241023693E+03  0.32123232493E+02  0.19755267620E+03  0.57004745928E+03  0.10946546595E+03 0.  0.
        254    2    1    2    0    0  0.52241023693E+03 -0.32123232493E+02 -0.33239344119E+03  0.10946938646E+04  0.90217786485E+03 0.  0.
        -24    2    4    4    0    0 -0.24870133152E+03 -0.45759195946E+02 -0.50077436359E+02  0.27029355699E+03  0.81268696316E+02 0.  0.
         24    2    4    4    0    0  0.77111156846E+03  0.13635963453E+02 -0.28231600483E+03  0.82440030766E+03  0.71655775597E+02 0.  0.
         11    1    3    3    0    0 -0.34054824678E+03  0.44756592541E+02  0.17755130581E+03  0.38665323891E+03  0.00000000000E+00 0.  1.
        -11    1    3    3    0    0 -0.18186199015E+03 -0.12633360048E+02  0.20001370389E+02  0.18339422037E+03  0.00000000000E+00 0. -1.
          2    1    6    6  502    0  0.12543943523E+02  0.70961160491E+01 -0.13023035755E+02  0.19424336343E+02  0.00000000000E+00 0. -1.
          1    1    5    5  503    0 -0.69242621973E+02  0.12165601462E+00 -0.49405416331E+02  0.85061452261E+02  0.00000000000E+00 0. -1.
         -2    1    5    5    0  503 -0.17945870955E+03 -0.45880851961E+02 -0.67202002798E+00  0.18523210473E+03  0.00000000000E+00 0.  1.
         -1    1    6    6    0  502  0.75856762493E+03  0.65398474040E+01 -0.26929296908E+03  0.80497597131E+03  0.00000000000E+00 0.  1.
<mgrwt>
<rscale>  0 0.16592714E+04</rscale>
<asrwt>0</asrwt>
<pdfrwt beam="1">  1        2 0.13842939E+00 0.16592714E+04</pdfrwt>
<pdfrwt beam="2">  1       -2 0.11768466E+00 0.16592714E+04</pdfrwt>
<totfact> 0.15602428E+01</totfact>
</mgrwt>
</event>
<event>
12    1  0.1536832E-007  0.1492217E+04  0.7818608E-02  0.8889645E-01
         -1   -1    0    0    0  501 -0.00000000000E+00  0.00000000000E+00  0.23196622544E+03  0.23196622544E+03  0.00000000000E+00 0.  1.
          1   -1    0    0  501    0  0.00000000000E+00 -0.00000000000E+00 -0.23998235488E+04  0.23998235488E+04  0.00000000000E+00 0. -1.
         23    2    1    2    0    0  0.40528807749E+03 -0.15242457605E+03 -0.10504761078E+04  0.11392148488E+04  0.82575671306E+02 0.  0.
        254    2    1    2    0    0 -0.40528807749E+03  0.15242457605E+03 -0.11173812156E+04  0.14925749255E+04  0.88980191621E+03 0.  0.
        -24    2    4    4    0    0  0.11456179355E+03  0.36943042366E+03 -0.62869752649E+03  0.74249982865E+03  0.80263150117E+02 0.  0.
         24    2    4    4    0    0 -0.51984987104E+03 -0.21700584761E+03 -0.48868368906E+03  0.75007509681E+03  0.80408187265E+02 0.  0.
         13    1    3    3    0    0 -0.21443509080E+01  0.38701752042E+01 -0.10592809161E+02  0.11479725731E+02  0.00000000000E+00 0.  1.
        -13    1    3    3    0    0  0.40743242840E+03 -0.15629475125E+03 -0.10398832987E+04  0.11277351231E+04  0.00000000000E+00 0. -1.
          2    1    6    6  502    0 -0.28609593136E+03 -0.89192155016E+02 -0.22052282138E+03  0.37207047344E+03  0.00000000000E+00 0. -1.
          1    1    5    5  503    0  0.93956552041E+01  0.72982412303E+02 -0.71231079065E+02  0.10241375624E+03  0.00000000000E+00 0. -1.
         -2    1    5    5    0  503  0.10516613834E+03  0.29644801136E+03 -0.55746644743E+03  0.64008607241E+03  0.00000000000E+00 0.  1.
         -1    1    6    6    0  502 -0.23375393968E+03 -0.12781369259E+03 -0.26816086768E+03  0.37800462336E+03  0.00000000000E+00 0.  1.
<mgrwt>
<rscale>  0 0.14922172E+04</rscale>
<asrwt>0</asrwt>
<pdfrwt beam="1">  1        1 0.36920362E+00 0.14922172E+04</pdfrwt>
<pdfrwt beam="2">  1       -1 0.35687112E-01 0.14922172E+04</pdfrwt>
<totfact> 0.11551412E+01</totfact>
</mgrwt>
</event>
<event>
12    1  0.1536832E-007  0.1345740E+04  0.7818608E-02  0.8994059E-01
          2   -1    0    0  501    0  0.00000000000E+00  0.00000000000E+00  0.22267975792E+04  0.22267975792E+04  0.00000000000E+00 0.  1.
         -2   -1    0    0    0  501 -0.00000000000E+00 -0.00000000000E+00 -0.20332084547E+03  0.20332084547E+03  0.00000000000E+00 0. -1.
         23    2    1    2    0    0 -0.97010539599E+02  0.28980136960E+03  0.90933064315E+03  0.96369485650E+03  0.91813284762E+02 0.  0.
        254    2    1    2    0    0  0.97010539599E+02 -0.28980136960E+03  0.11141460906E+04  0.14664235682E+04  0.90315042574E+03 0.  0.
        -24    2    4    4    0    0  0.21009637658E+03  0.28041907619E+03  0.33375187105E+03  0.49074948946E+03  0.81666420498E+02 0.  0.
         24    2    4    4    0    0 -0.11308583698E+03 -0.57022044578E+03  0.78039421956E+03  0.97567407873E+03  0.70604579660E+02 0.  0.
         11    1    3    3    0    0 -0.10230254914E+03  0.29464078906E+03  0.88670646565E+03  0.93996136217E+03  0.00000000000E+00 0.  1.
        -11    1    3    3    0    0  0.52920095430E+01 -0.48394194635E+01  0.22624177495E+02  0.23733494329E+02  0.00000000000E+00 0. -1.
          4    1    6    6  502    0 -0.11792358218E+03 -0.54865119433E+03  0.73106284016E+03  0.92161650405E+03  0.00000000000E+00 0. -1.
          3    1    5    5  503    0  0.13972285942E+03  0.23282336215E+03  0.28095215705E+03  0.39072152482E+03  0.00000000000E+00 0. -1.
         -4    1    5    5    0  503  0.70373517157E+02  0.47595714037E+02  0.52799714003E+02  0.10002796464E+03  0.00000000000E+00 0.  1.
         -3    1    6    6    0  502  0.48377451997E+01 -0.21569251451E+02  0.49331379395E+02  0.54057574676E+02  0.00000000000E+00 0.  1.
<mgrwt>
<rscale>  0 0.13457405E+04</rscale>
<asrwt>0</asrwt>
<pdfrwt beam="1">  1        2 0.34258423E+00 0.13457405E+04</pdfrwt>
<pdfrwt beam="2">  1       -2 0.31280132E-01 0.13457405E+04</pdfrwt>
<totfact> 0.46298239E+01</totfact>
</mgrwt>
</event>
<event>
12    1  0.1536832E-007  0.1590646E+04  0.7818608E-02  0.8826315E-01
          1   -1    0    0  501    0  0.00000000000E+00  0.00000000000E+00  0.12234958768E+04  0.12234958768E+04  0.00000000000E+00 0. -1.
         -1   -1    0    0    0  501 -0.00000000000E+00 -0.00000000000E+00 -0.51699303593E+03  0.51699303593E+03  0.00000000000E+00 0.  1.
         23    2    1    2    0    0  0.65683446799E+02 -0.62803707663E+02 -0.33950414094E+03  0.36427525197E+03  0.95785054161E+02 0.  0.
        254    2    1    2    0    0 -0.65683446799E+02  0.62803707663E+02  0.10460069818E+04  0.13762136607E+04  0.88970490229E+03 0.  0.
        -24    2    4    4    0    0  0.15200841345E+03  0.24264895457E+03  0.70933142894E+01  0.29658834977E+03  0.77001696079E+02 0.  0.
         24    2    4    4    0    0 -0.21769186024E+03 -0.17984524691E+03  0.10389136675E+04  0.10796253110E+04  0.80716446327E+02 0.  0.
         13    1    3    3    0    0  0.35810885089E+02 -0.19513589204E+02 -0.30757402632E+02  0.51080499911E+02  0.00000000000E+00 0. -1.
        -13    1    3    3    0    0  0.29872561709E+02 -0.43290118458E+02 -0.30874673831E+03  0.31319475206E+03  0.00000000000E+00 0.  1.
          4    1    6    6  502    0 -0.18813165640E+03 -0.12086711118E+03  0.71856973869E+03  0.75255886685E+03  0.00000000000E+00 0. -1.
          3    1    5    5  503    0  0.82632952817E+02  0.17929330364E+03  0.30509526272E+02  0.19976267122E+03  0.00000000000E+00 0. -1.
         -4    1    5    5    0  503  0.69375460628E+02  0.63355650934E+02 -0.23416211983E+02  0.96825678548E+02  0.00000000000E+00 0.  1.
         -3    1    6    6    0  502 -0.29560203846E+02 -0.58978135733E+02  0.32034392879E+03  0.32706644410E+03  0.00000000000E+00 0.  1.
<mgrwt>
<rscale>  0 0.15906462E+04</rscale>
<asrwt>0</asrwt>
<pdfrwt beam="1">  1        1 0.18823013E+00 0.15906462E+04</pdfrwt>
<pdfrwt beam="2">  1       -1 0.79537391E-01 0.15906462E+04</pdfrwt>
<totfact> 0.15578863E+01</totfact>
</mgrwt>
</event>
<event>
12    1  0.1536832E-007  0.1974177E+04  0.7818608E-02  0.8618790E-01
          2   -1    0    0  501    0  0.00000000000E+00  0.00000000000E+00  0.15603203967E+04  0.15603203967E+04  0.00000000000E+00 0. -1.
         -2   -1    0    0    0  501 -0.00000000000E+00 -0.00000000000E+00 -0.62445135425E+03  0.62445135425E+03  0.00000000000E+00 0.  1.
         23    2    1    2    0    0 -0.62148642768E+03 -0.31885612502E+03  0.70182976940E+03  0.99405343735E+03  0.87536294347E+02 0.  0.
        254    2    1    2    0    0  0.62148642768E+03  0.31885612502E+03  0.23403927306E+03  0.11907183136E+04  0.93547908197E+03 0.  0.
        -24    2    4    4    0    0  0.55867396346E+03 -0.63159960980E+02 -0.20121504229E+03  0.60228453620E+03  0.78443554132E+02 0.  0.
         24    2    4    4    0    0  0.62812464222E+02  0.38201608600E+03  0.43525431535E+03  0.58843377742E+03  0.83224369943E+02 0.  0.
         13    1    3    3    0    0 -0.61248281680E+03 -0.30023292001E+03  0.68990331180E+03  0.97017605967E+03  0.00000000000E+00 0. -1.
        -13    1    3    3    0    0 -0.90036108807E+01 -0.18623205003E+02  0.11926457604E+02  0.23877377671E+02  0.00000000000E+00 0.  1.
          4    1    6    6  502    0  0.54585474506E+02  0.38325951026E+03  0.42104053281E+03  0.57196377202E+03  0.00000000000E+00 0. -1.
          3    1    5    5  503    0  0.55925246998E+03 -0.60059651252E+02 -0.20375382697E+03  0.59823583050E+03  0.00000000000E+00 0. -1.
         -4    1    5    5    0  503 -0.57850652548E+00 -0.31003097279E+01  0.25387846762E+01  0.40487056995E+01  0.00000000000E+00 0.  1.
         -3    1    6    6    0  502  0.82269897162E+01 -0.12434242664E+01  0.14213782537E+02  0.16470005395E+02  0.00000000000E+00 0.  1.
<mgrwt>
<rscale>  0 0.19741775E+04</rscale>
<asrwt>0</asrwt>
<pdfrwt beam="1">  1        2 0.24004929E+00 0.19741775E+04</pdfrwt>
<pdfrwt beam="2">  1       -2 0.96069439E-01 0.19741775E+04</pdfrwt>
<totfact> 0.99223820E+00</totfact>
</mgrwt>
</event>
<event>
12    1  0.1536832E-007  0.2578691E+04  0.7818608E-02  0.8375476E-01
          2   -1    0    0  501    0  0.00000000000E+00  0.00000000000E+00  0.20011510312E+04  0.20011510312E+04  0.00000000000E+00 0. -1.
         -2   -1    0    0    0  501 -0.00000000000E+00 -0.00000000000E+00 -0.83072782562E+03  0.83072782562E+03  0.00000000000E+00 0.  1.
         23    2    1    2    0    0 -0.92200890251E+03 -0.63592113620E+03  0.33517002754E+03  0.11725850469E+04  0.90114577361E+02 0.  0.
        254    2    1    2    0    0  0.92200890251E+03  0.63592113620E+03  0.83525317803E+03  0.16592938099E+04  0.89504858440E+03 0.  0.
        -24    2    4    4    0    0  0.14984425440E+03 -0.18574137515E+03 -0.43341606350E+01  0.25119665828E+03  0.78280375358E+02 0.  0.
         24    2    4    4    0    0  0.77216464811E+03  0.82166251134E+03  0.83958733867E+03  0.14080971516E+04  0.80393798573E+02 0.  0.
         13    1    3    3    0    0 -0.14755850901E+03 -0.79249920155E+02  0.23155395610E+02  0.16908647424E+03  0.00000000000E+00 0.  1.
        -13    1    3    3    0    0 -0.77445039350E+03 -0.55667121604E+03  0.31201463193E+03  0.10034985726E+04  0.00000000000E+00 0. -1.
          4    1    6    6  502    0  0.72008759935E+02  0.11424615899E+03  0.10456614587E+03  0.17079673654E+03  0.00000000000E+00 0. -1.
          3    1    5    5  503    0  0.27157842128E+02 -0.10677259208E+02 -0.22216354038E+02  0.36675859090E+02  0.00000000000E+00 0. -1.
         -4    1    5    5    0  503  0.12268641227E+03 -0.17506411594E+03  0.17882193403E+02  0.21452079919E+03  0.00000000000E+00 0.  1.
         -3    1    6    6    0  502  0.70015588818E+03  0.70741635235E+03  0.73502119279E+03  0.12373004151E+04  0.00000000000E+00 0.  1.
<mgrwt>
<rscale>  0 0.25786910E+04</rscale>
<asrwt>0</asrwt>
<pdfrwt beam="1">  1        2 0.30786939E+00 0.25786910E+04</pdfrwt>
<pdfrwt beam="2">  1       -2 0.12780428E+00 0.25786910E+04</pdfrwt>
<totfact> 0.26805373E+00</totfact>
</mgrwt>
</event>
<event>
12    1  0.1536832E-007  0.1825668E+04  0.7818608E-02  0.8692767E-01
          1   -1    0    0  501    0  0.00000000000E+00  0.00000000000E+00  0.20932790820E+04  0.20932790820E+04  0.00000000000E+00 0. -1.
         -1   -1    0    0    0  501 -0.00000000000E+00 -0.00000000000E+00 -0.39806741184E+03  0.39806741184E+03  0.00000000000E+00 0.  1.
         23    2    1    2    0    0 -0.47816354379E+03  0.32463843441E+03  0.13259911576E+03  0.59957205773E+03  0.88733529259E+02 0.  0.
        254    2    1    2    0    0  0.47816354379E+03 -0.32463843441E+03  0.15626125544E+04  0.18917744361E+04  0.89611496706E+03 0.  0.
        -24    2    4    4    0    0  0.37471320097E+03 -0.49578675772E+03  0.48365249234E+03  0.79163257541E+03  0.80919150974E+02 0.  0.
         24    2    4    4    0    0  0.10345034281E+03  0.17114832331E+03  0.10789600620E+04  0.11001418607E+04  0.78508446157E+02 0.  0.
         13    1    3    3    0    0 -0.44377103766E+03  0.32093362087E+03  0.11101271994E+03  0.55879776920E+03  0.00000000000E+00 0.  1.
        -13    1    3    3    0    0 -0.34392506126E+02  0.37048135313E+01  0.21586395821E+02  0.40774288535E+02  0.00000000000E+00 0. -1.
          4    1    6    6  502    0 -0.57112890383E+01  0.11885199312E+01  0.61342378510E+01  0.84652392830E+01  0.00000000000E+00 0. -1.
          1    1    5    5  503    0  0.62396379082E+02 -0.13757598469E+03  0.10472555273E+03  0.18381485544E+03  0.00000000000E+00 0. -1.
         -2    1    5    5    0  503  0.31231682189E+03 -0.35821077303E+03  0.37892693961E+03  0.60781771997E+03  0.00000000000E+00 0.  1.
         -3    1    6    6    0  502  0.10916163185E+03  0.16995980338E+03  0.10728258242E+04  0.10916766214E+04  0.00000000000E+00 0.  1.
<mgrwt>
<rscale>  0 0.18256683E+04</rscale>
<asrwt>0</asrwt>
<pdfrwt beam="1">  1        1 0.32204293E+00 0.18256683E+04</pdfrwt>
<pdfrwt beam="2">  1       -1 0.61241141E-01 0.18256683E+04</pdfrwt>
<totfact> 0.65585923E+00</totfact>
</mgrwt>
</event>
<event>
12    1  0.1536832E-007  0.1908410E+04  0.7818608E-02  0.8650681E-01
         -2   -1    0    0    0  501 -0.00000000000E+00  0.00000000000E+00  0.51281205115E+03  0.51281205115E+03  0.00000000000E+00 0. -1.
          2   -1    0    0  501    0  0.00000000000E+00 -0.00000000000E+00 -0.17755182989E+04  0.17755182989E+04  0.00000000000E+00 0.  1.
         23    2    1    2    0    0 -0.39804424668E+03  0.51588467001E+03 -0.96597591558E+03  0.11685542672E+04  0.88506445760E+02 0.  0.
        254    2    1    2    0    0  0.39804424668E+03 -0.51588467001E+03 -0.29673033221E+03  0.11197760829E+04  0.86097234022E+03 0.  0.
        -24    2    4    4    0    0  0.78643584411E+02 -0.65479716041E+03 -0.36220843440E+03  0.75647953114E+03  0.78244465816E+02 0.  0.
         24    2    4    4    0    0  0.31940066227E+03  0.13891249040E+03  0.65478102192E+02  0.36329655172E+03  0.79897056145E+02 0.  0.
         11    1    3    3    0    0 -0.24757594761E+03  0.38546015730E+03 -0.69020864242E+03  0.82840892847E+03  0.00000000000E+00 0.  1.
        -11    1    3    3    0    0 -0.15046829907E+03  0.13042451271E+03 -0.27576727316E+03  0.34014533877E+03  0.00000000000E+00 0. -1.
          2    1    6    6  502    0  0.20970669734E+03  0.55868796536E+02  0.18058998393E+02  0.21777132216E+03  0.00000000000E+00 0. -1.
          3    1    5    5  503    0  0.12845447006E+02 -0.42178936794E+03 -0.23321144749E+03  0.48213987147E+03  0.00000000000E+00 0. -1.
         -2    1    5    5    0  503  0.65798137405E+02 -0.23300779246E+03 -0.12899698691E+03  0.27433965967E+03  0.00000000000E+00 0.  1.
         -1    1    6    6    0  502  0.10969396493E+03  0.83043693862E+02  0.47419103800E+02  0.14552522956E+03  0.00000000000E+00 0.  1.
<mgrwt>
<rscale>  0 0.19084100E+04</rscale>
<asrwt>0</asrwt>
<pdfrwt beam="1">  1        2 0.27315666E+00 0.19084100E+04</pdfrwt>
<pdfrwt beam="2">  1       -2 0.78894162E-01 0.19084100E+04</pdfrwt>
<totfact> 0.11883489E+01</totfact>
</mgrwt>
</event>
<event>
12    1  0.1536832E-007  0.2421202E+04  0.7818608E-02  0.8431608E-01
         -2   -1    0    0    0  501 -0.00000000000E+00  0.00000000000E+00  0.55717981504E+03  0.55717981504E+03  0.00000000000E+00 0.  1.
          2   -1    0    0  501    0  0.00000000000E+00 -0.00000000000E+00 -0.26303088087E+04  0.26303088087E+04  0.00000000000E+00 0. -1.
         23    2    1    2    0    0 -0.84757503576E+03  0.27496861082E+03 -0.19044657508E+03  0.91565057100E+03  0.90304440899E+02 0.  0.
        254    2    1    2    0    0  0.84757503576E+03 -0.27496861082E+03 -0.18826824185E+04  0.22718380527E+04  0.90706332218E+03 0.  0.
        -24    2    4    4    0    0  0.41774906300E+02 -0.16388105923E+02 -0.11372943066E+04  0.11409534011E+04  0.79514846487E+02 0.  0.
         24    2    4    4    0    0  0.80580012946E+03 -0.25858050489E+03 -0.74538811190E+03  0.11308846516E+04  0.84373761689E+02 0.  0.
         13    1    3    3    0    0 -0.39790630729E+03  0.11383692767E+03 -0.13206174971E+03  0.43442902898E+03  0.00000000000E+00 0.  1.
        -13    1    3    3    0    0 -0.44966872846E+03  0.16113168315E+03 -0.58384825365E+02  0.48122154202E+03  0.00000000000E+00 0. -1.
          2    1    6    6  502    0  0.16256095782E+03 -0.66450263528E+02 -0.19818924666E+03  0.26480309670E+03  0.00000000000E+00 0. -1.
          3    1    5    5  503    0 -0.90108882317E+01  0.11911386651E+02 -0.65461309066E+03  0.65478345711E+03  0.00000000000E+00 0. -1.
         -4    1    5    5    0  503  0.50785794531E+02 -0.28299492573E+02 -0.48268121597E+03  0.48616994401E+03  0.00000000000E+00 0.  1.
         -1    1    6    6    0  502  0.64323917163E+03 -0.19213024137E+03 -0.54719886524E+03  0.86608155487E+03  0.00000000000E+00 0.  1.
<mgrwt>
<rscale>  0 0.24212022E+04</rscale>
<asrwt>0</asrwt>
<pdfrwt beam="1">  1        2 0.40466288E+00 0.24212022E+04</pdfrwt>
<pdfrwt beam="2">  1       -2 0.85719974E-01 0.24212022E+04</pdfrwt>
<totfact> 0.30986457E+00</totfact>
</mgrwt>
</event>
<event>
12    1  0.1536832E-007  0.1475107E+04  0.7818608E-02  0.8901177E-01
          2   -1    0    0  501    0  0.00000000000E+00  0.00000000000E+00  0.12995036893E+04  0.12995036893E+04  0.00000000000E+00 0. -1.
         -2   -1    0    0    0  501 -0.00000000000E+00 -0.00000000000E+00 -0.41861016470E+03  0.41861016470E+03  0.00000000000E+00 0.  1.
         23    2    1    2    0    0 -0.12956661386E+03 -0.38567632325E+03  0.54606374329E+03  0.68714011403E+03  0.91881395500E+02 0.  0.
        254    2    1    2    0    0  0.12956661386E+03  0.38567632325E+03  0.33482978133E+03  0.10309737400E+04  0.88615017708E+03 0.  0.
        -24    2    4    4    0    0 -0.18612423683E+03  0.23952037786E+03 -0.21163249104E+03  0.37801591300E+03  0.78073531173E+02 0.  0.
         24    2    4    4    0    0  0.31569085069E+03  0.14615594539E+03  0.54646227237E+03  0.65295782699E+03  0.81918466282E+02 0.  0.
         11    1    3    3    0    0 -0.12501604721E+03 -0.37692370652E+03  0.54832102834E+03  0.67702026758E+03  0.00000000000E+00 0. -1.
        -11    1    3    3    0    0 -0.45505666491E+01 -0.87526167309E+01 -0.22572850503E+01  0.10119846455E+02  0.00000000000E+00 0.  1.
          4    1    6    6  502    0  0.17994712476E+03  0.74283318698E+02  0.37664726812E+03  0.42398365974E+03  0.00000000000E+00 0. -1.
          1    1    5    5  503    0 -0.12521052697E+03  0.19760436115E+03 -0.18883551097E+03  0.30063933511E+03  0.00000000000E+00 0. -1.
         -2    1    5    5    0  503 -0.60913709864E+02  0.41916016709E+02 -0.22796980070E+02  0.77376577893E+02  0.00000000000E+00 0.  1.
         -3    1    6    6    0  502  0.13574372594E+03  0.71872626693E+02  0.16981500426E+03  0.22897416725E+03  0.00000000000E+00 0.  1.
<mgrwt>
<rscale>  0 0.14751074E+04</rscale>
<asrwt>0</asrwt>
<pdfrwt beam="1">  1        2 0.19992364E+00 0.14751074E+04</pdfrwt>
<pdfrwt beam="2">  1       -2 0.64401564E-01 0.14751074E+04</pdfrwt>
<totfact> 0.35660019E+01</totfact>
</mgrwt>
</event>
<event>
12    1  0.1536832E-007  0.2587626E+04  0.7818608E-02  0.8372417E-01
         -2   -1    0    0    0  501 -0.00000000000E+00  0.00000000000E+00  0.67991644789E+03  0.67991644789E+03  0.00000000000E+00 0.  1.
          2   -1    0    0  501    0  0.00000000000E+00 -0.00000000000E+00 -0.24619968341E+04  0.24619968341E+04  0.00000000000E+00 0. -1.
         23    2    1    2    0    0  0.41358817837E+03 -0.63988149644E+03  0.23881179295E+03  0.80374512442E+03  0.92041522200E+02 0.  0.
        254    2    1    2    0    0 -0.41358817837E+03  0.63988149644E+03 -0.20208921792E+04  0.23381681576E+04  0.89583571179E+03 0.  0.
        -24    2    4    4    0    0 -0.16643387235E+03  0.12849334739E+03 -0.16269675608E+04  0.16424125752E+04  0.79277041166E+02 0.  0.
         24    2    4    4    0    0 -0.24715430602E+03  0.51138814905E+03 -0.39392461838E+03  0.69575558233E+03  0.79348190978E+02 0.  0.
         13    1    3    3    0    0  0.26170840619E+03 -0.48130973562E+03  0.17267629911E+03  0.57442793781E+03  0.00000000000E+00 0.  1.
        -13    1    3    3    0    0  0.15187977218E+03 -0.15857176083E+03  0.66135493842E+02  0.22931718661E+03  0.00000000000E+00 0. -1.
          4    1    6    6  502    0 -0.56586033681E+02  0.20510843903E+03 -0.14596399354E+03  0.25802507316E+03  0.00000000000E+00 0. -1.
          1    1    5    5  503    0  0.44582069969E+01  0.16396782469E+02 -0.67324701067E+02  0.69435909000E+02  0.00000000000E+00 0. -1.
         -2    1    5    5    0  503 -0.17089207934E+03  0.11209656492E+03 -0.15596428597E+04  0.15729766662E+04  0.00000000000E+00 0.  1.
         -3    1    6    6    0  502 -0.19056827234E+03  0.30627971003E+03 -0.24796062483E+03  0.43773050918E+03  0.00000000000E+00 0.  1.
<mgrwt>
<rscale>  0 0.25876260E+04</rscale>
<asrwt>0</asrwt>
<pdfrwt beam="1">  1        2 0.37876875E+00 0.25876260E+04</pdfrwt>
<pdfrwt beam="2">  1       -2 0.10460253E+00 0.25876260E+04</pdfrwt>
<totfact> 0.24048530E+00</totfact>
</mgrwt>
</event>
<event>
12    1  0.1536832E-007  0.2030876E+04  0.7818608E-02  0.8592320E-01
          2   -1    0    0  501    0  0.00000000000E+00  0.00000000000E+00  0.35182888243E+04  0.35182888243E+04  0.00000000000E+00 0. -1.
         -2   -1    0    0    0  501 -0.00000000000E+00 -0.00000000000E+00 -0.29307268673E+03  0.29307268673E+03  0.00000000000E+00 0.  1.
         23    2    1    2    0    0  0.62491674885E+02  0.47016033478E+03  0.63637505481E+02  0.48728773108E+03  0.91889340689E+02 0.  0.
        254    2    1    2    0    0 -0.62491674885E+02 -0.47016033478E+03  0.31615786321E+04  0.33240737799E+04  0.91045653263E+03 0.  0.
        -24    2    4    4    0    0  0.11141625472E+02 -0.34183439635E+03  0.31296703332E+03  0.47046645436E+03  0.80096381852E+02 0.  0.
         24    2    4    4    0    0 -0.73633300357E+02 -0.12832593843E+03  0.28486115988E+04  0.28536073256E+04  0.81223879566E+02 0.  0.
         13    1    3    3    0    0  0.46550090006E+02  0.10909691733E+03  0.39700708188E+02  0.12508075184E+03  0.00000000000E+00 0. -1.
        -13    1    3    3    0    0  0.15941584879E+02  0.36106341744E+03  0.23936797293E+02  0.36220697924E+03  0.00000000000E+00 0.  1.
          4    1    6    6  502    0 -0.30536670159E+02 -0.49761348052E+02  0.18674084018E+04  0.18683208555E+04  0.00000000000E+00 0. -1.
          3    1    5    5  503    0 -0.10192615707E+01 -0.22954308717E+03  0.25641907693E+03  0.34415376037E+03  0.00000000000E+00 0. -1.
         -4    1    5    5    0  503  0.12160887043E+02 -0.11229130918E+03  0.56547956387E+02  0.12631269399E+03  0.00000000000E+00 0.  1.
         -3    1    6    6    0  502 -0.43096630197E+02 -0.78564590374E+02  0.98120319699E+03  0.98528647010E+03  0.00000000000E+00 0.  1.
<mgrwt>
<rscale>  0 0.20308760E+04</rscale>
<asrwt>0</asrwt>
<pdfrwt beam="1">  1        2 0.54127517E+00 0.20308760E+04</pdfrwt>
<pdfrwt beam="2">  1       -2 0.45088108E-01 0.20308760E+04</pdfrwt>
<totfact> 0.34307785E+00</totfact>
</mgrwt>
</event>
<event>
12    1  0.1536832E-007  0.1465522E+04  0.7818608E-02  0.8907710E-01
         -2   -1    0    0    0  501 -0.00000000000E+00  0.00000000000E+00  0.96008896224E+03  0.96008896224E+03  0.00000000000E+00 0.  1.
          2   -1    0    0  501    0  0.00000000000E+00 -0.00000000000E+00 -0.55925950971E+03  0.55925950971E+03  0.00000000000E+00 0. -1.
         23    2    1    2    0    0 -0.82246881827E+02  0.26290955969E+02 -0.32676341297E+03  0.36147237404E+03  0.12818808525E+03 0.  0.
        254    2    1    2    0    0  0.82246881827E+02 -0.26290955969E+02  0.72759286550E+03  0.11578760979E+04  0.89656562295E+03 0.  0.
        -24    2    4    4    0    0 -0.15169970787E+03  0.59199822808E+02 -0.15359763849E+03  0.23866850343E+03  0.82782846004E+02 0.  0.
         24    2    4    4    0    0  0.23394658969E+03 -0.85490778777E+02  0.88119050399E+03  0.91920759449E+03  0.80038849056E+02 0.  0.
         11    1    3    3    0    0 -0.54427955150E+02  0.16284111661E+02 -0.32700905516E+03  0.33190736170E+03  0.00000000000E+00 0. -1.
        -11    1    3    3    0    0 -0.27818926677E+02  0.10006844308E+02  0.24564218841E+00  0.29565012338E+02  0.00000000000E+00 0.  1.
          2    1    6    6  502    0  0.70573599946E+02 -0.66514460608E+02  0.34310017080E+03  0.35654247107E+03  0.00000000000E+00 0. -1.
          3    1    5    5  503    0 -0.83569045869E+02  0.41962937442E+02 -0.33144739660E+02  0.99213140830E+02  0.00000000000E+00 0. -1.
         -4    1    5    5    0  503 -0.68130661996E+02  0.17236885366E+02 -0.12045289883E+03  0.13945536260E+03  0.00000000000E+00 0.  1.
         -1    1    6    6    0  502  0.16337298975E+03 -0.18976318169E+02  0.53809033319E+03  0.56266512341E+03  0.00000000000E+00 0.  1.
<mgrwt>
<rscale>  0 0.14655223E+04</rscale>
<asrwt>0</asrwt>
<pdfrwt beam="1">  1        2 0.86039924E-01 0.14655223E+04</pdfrwt>
<pdfrwt beam="2">  1       -2 0.14770599E+00 0.14655223E+04</pdfrwt>
<totfact> 0.16303473E+01</totfact>
</mgrwt>
</event>
<event>
12    1  0.1536832E-007  0.1637179E+04  0.7818608E-02  0.8798027E-01
         -1   -1    0    0    0  501 -0.00000000000E+00  0.00000000000E+00  0.42001530398E+03  0.42001530398E+03  0.00000000000E+00 0.  1.
          1   -1    0    0  501    0  0.00000000000E+00 -0.00000000000E+00 -0.15953921073E+04  0.15953921073E+04  0.00000000000E+00 0. -1.
         23    2    1    2    0    0 -0.45874049357E+02  0.20132580847E+03 -0.10660650026E+04  0.10896426061E+04  0.90498119779E+02 0.  0.
        254    2    1    2    0    0  0.45874049357E+02 -0.20132580847E+03 -0.10931180071E+03  0.92576480518E+03  0.89579846795E+03 0.  0.
        -24    2    4    4    0    0 -0.92856926128E+02  0.24483288903E+03 -0.30647119695E+03  0.41095609513E+03  0.79967276332E+02 0.  0.
         24    2    4    4    0    0  0.13873097549E+03 -0.44615869751E+03  0.19715939624E+03  0.51480871005E+03  0.88613280584E+02 0.  0.
         11    1    3    3    0    0 -0.33461414464E+02  0.86652692420E+02 -0.27622630049E+03  0.29142636196E+03  0.00000000000E+00 0.  1.
        -11    1    3    3    0    0 -0.12412634893E+02  0.11467311605E+03 -0.78983870214E+03  0.79821624416E+03  0.00000000000E+00 0. -1.
          2    1    6    6  502    0  0.36853367281E+02 -0.11570906529E+03  0.10605171419E+02  0.12189843367E+03  0.00000000000E+00 0. -1.
          3    1    5    5  503    0 -0.38126663595E+02  0.65580764836E+02 -0.41702039255E+02  0.86565231308E+02  0.00000000000E+00 0. -1.
         -4    1    5    5    0  503 -0.54730262533E+02  0.17925212420E+03 -0.26476915769E+03  0.32439086382E+03  0.00000000000E+00 0.  1.
         -1    1    6    6    0  502  0.10187760820E+03 -0.33044963222E+03  0.18655422482E+03  0.39291027638E+03  0.00000000000E+00 0.  1.
<mgrwt>
<rscale>  0 0.16371794E+04</rscale>
<asrwt>0</asrwt>
<pdfrwt beam="1">  1        1 0.24544494E+00 0.16371794E+04</pdfrwt>
<pdfrwt beam="2">  1       -1 0.64617740E-01 0.16371794E+04</pdfrwt>
<totfact> 0.13057183E+01</totfact>
</mgrwt>
</event>
<event>
12    1  0.1536832E-007  0.1431195E+04  0.7818608E-02  0.8931543E-01
         -2   -1    0    0    0  501 -0.00000000000E+00  0.00000000000E+00  0.21506126873E+03  0.21506126873E+03  0.00000000000E+00 0.  1.
          2   -1    0    0  501    0  0.00000000000E+00 -0.00000000000E+00 -0.23810870937E+04  0.23810870937E+04  0.00000000000E+00 0. -1.
         23    2    1    2    0    0  0.39947573130E+02 -0.39674941891E+03 -0.56694046534E+03  0.70230951420E+03  0.11318680355E+03 0.  0.
        254    2    1    2    0    0 -0.39947573130E+02  0.39674941891E+03 -0.15990853597E+04  0.18938388483E+04  0.93303037769E+03 0.  0.
        -24    2    4    4    0    0 -0.33210338212E+03 -0.13448053846E+03 -0.38017402442E+03  0.53006850733E+03  0.89792326938E+02 0.  0.
         24    2    4    4    0    0  0.29215580899E+03  0.53122995737E+03 -0.12189113352E+04  0.13637703409E+04  0.81021079320E+02 0.  0.
         11    1    3    3    0    0  0.58475754034E+01 -0.54420535286E+02 -0.24481439914E+02  0.59959400424E+02  0.00000000000E+00 0. -1.
        -11    1    3    3    0    0  0.34099997727E+02 -0.34232888363E+03 -0.54245902543E+03  0.64235011378E+03  0.00000000000E+00 0.  1.
          2    1    6    6  502    0  0.93051732249E+02  0.16287457330E+03 -0.29781408276E+03  0.35196587816E+03  0.00000000000E+00 0. -1.
          3    1    5    5  503    0  0.49826101810E+01 -0.34093197317E+01 -0.10987277930E+01  0.61365355056E+01  0.00000000000E+00 0. -1.
         -4    1    5    5    0  503 -0.33708599230E+03 -0.13107121873E+03 -0.37907529663E+03  0.52393197182E+03  0.00000000000E+00 0.  1.
         -1    1    6    6    0  502  0.19910407674E+03  0.36835538407E+03 -0.92109725249E+03  0.10118044628E+04  0.00000000000E+00 0.  1.
<mgrwt>
<rscale>  0 0.14311948E+04</rscale>
<asrwt>0</asrwt>
<pdfrwt beam="1">  1        2 0.36632110E+00 0.14311948E+04</pdfrwt>
<pdfrwt beam="2">  1       -2 0.33086348E-01 0.14311948E+04</pdfrwt>
<totfact> 0.33838770E+01</totfact>
</mgrwt>
</event>
<event>
12    1  0.1536832E-007  0.1432085E+04  0.7818608E-02  0.8930916E-01
         -2   -1    0    0    0  501 -0.00000000000E+00  0.00000000000E+00  0.16905204933E+03  0.16905204933E+03  0.00000000000E+00 0. -1.
          2   -1    0    0  501    0  0.00000000000E+00 -0.00000000000E+00 -0.30328933112E+04  0.30328933112E+04  0.00000000000E+00 0.  1.
         23    2    1    2    0    0  0.12862575792E+03  0.19470861148E+03 -0.16650894268E+04  0.16837982312E+04  0.90540902683E+02 0.  0.
        254    2    1    2    0    0 -0.12862575792E+03 -0.19470861148E+03 -0.11987518350E+04  0.15181471293E+04  0.90183630183E+03 0.  0.
        -24    2    4    4    0    0 -0.39005842632E+03  0.14347978731E+03 -0.89216127629E+03  0.98730792276E+03  0.78058735138E+02 0.  0.
         24    2    4    4    0    0  0.26143266841E+03 -0.33818839879E+03 -0.30659055872E+03  0.53083920654E+03  0.71232431651E+02 0.  0.
         11    1    3    3    0    0  0.98835390010E+02  0.89269789451E+02 -0.70430854853E+03  0.71679010956E+03  0.00000000000E+00 0. -1.
        -11    1    3    3    0    0  0.29790367906E+02  0.10543882203E+03 -0.96078087829E+03  0.96700812163E+03  0.00000000000E+00 0.  1.
          4    1    6    6  502    0  0.17409793060E+03 -0.17110768751E+03 -0.18803300783E+03  0.30813039804E+03  0.00000000000E+00 0. -1.
          3    1    5    5  503    0 -0.13751610734E+03  0.14828930575E+02 -0.25938526430E+03  0.29395797709E+03  0.00000000000E+00 0. -1.
         -2    1    5    5    0  503 -0.25254231899E+03  0.12865085674E+03 -0.63277601198E+03  0.69334994567E+03  0.00000000000E+00 0.  1.
         -3    1    6    6    0  502  0.87334737809E+02 -0.16708071129E+03 -0.11855755089E+03  0.22270880850E+03  0.00000000000E+00 0.  1.
<mgrwt>
<rscale>  0 0.14320850E+04</rscale>
<asrwt>0</asrwt>
<pdfrwt beam="1">  1        2 0.46659901E+00 0.14320850E+04</pdfrwt>
<pdfrwt beam="2">  1       -2 0.26008005E-01 0.14320850E+04</pdfrwt>
<totfact> 0.21713942E+01</totfact>
</mgrwt>
</event>
<event>
12    1  0.1536832E-007  0.1664920E+04  0.7818608E-02  0.8781628E-01
         -2   -1    0    0    0  501 -0.00000000000E+00  0.00000000000E+00  0.46181763773E+03  0.46181763773E+03  0.00000000000E+00 0.  1.
          2   -1    0    0  501    0  0.00000000000E+00 -0.00000000000E+00 -0.15005706642E+04  0.15005706642E+04  0.00000000000E+00 0. -1.
         23    2    1    2    0    0 -0.44322911227E+03 -0.18915087127E+03 -0.72766075398E+03  0.87751085135E+03  0.91131900482E+02 0.  0.
        254    2    1    2    0    0  0.44322911227E+03  0.18915087127E+03 -0.31109227247E+03  0.10848774506E+04  0.92084232239E+03 0.  0.
        -24    2    4    4    0    0 -0.20958267856E+03 -0.12579655608E+03 -0.23956905009E+03  0.35212593245E+03  0.82762732368E+02 0.  0.
         24    2    4    4    0    0  0.65281179082E+03  0.31494742735E+03 -0.71523222383E+02  0.73275151812E+03  0.80337411842E+02 0.  0.
         13    1    3    3    0    0 -0.15489181196E+03 -0.20065722198E+02 -0.23165794592E+03  0.27939132150E+03  0.00000000000E+00 0.  1.
        -13    1    3    3    0    0 -0.28833730030E+03 -0.16908514907E+03 -0.49600280806E+03  0.59811952985E+03  0.00000000000E+00 0. -1.
          2    1    6    6  502    0  0.36747410337E+03  0.21789821152E+03 -0.57069082889E+02  0.43101476477E+03  0.00000000000E+00 0. -1.
          3    1    5    5  503    0 -0.16945475274E+03 -0.73700319672E+02 -0.21086228301E+03  0.28037395161E+03  0.00000000000E+00 0. -1.
         -4    1    5    5    0  503 -0.40127925821E+02 -0.52096236407E+02 -0.28706767086E+02  0.71751980844E+02  0.00000000000E+00 0.  1.
         -1    1    6    6    0  502  0.28533768745E+03  0.97049215833E+02 -0.14454139494E+02  0.30173675335E+03  0.00000000000E+00 0.  1.
<mgrwt>
<rscale>  0 0.16649204E+04</rscale>
<asrwt>0</asrwt>
<pdfrwt beam="1">  1        2 0.23085703E+00 0.16649204E+04</pdfrwt>
<pdfrwt beam="2">  1       -2 0.71048867E-01 0.16649204E+04</pdfrwt>
<totfact> 0.21775885E+01</totfact>
</mgrwt>
</event>
<event>
12    1  0.1536832E-007  0.1533375E+04  0.7818608E-02  0.8862557E-01
         -2   -1    0    0    0  501 -0.00000000000E+00  0.00000000000E+00  0.68650644044E+03  0.68650644044E+03  0.00000000000E+00 0.  1.
          2   -1    0    0  501    0  0.00000000000E+00 -0.00000000000E+00 -0.85623336069E+03  0.85623336069E+03  0.00000000000E+00 0. -1.
         23    2    1    2    0    0 -0.44758336973E+03 -0.17798279292E+02 -0.27174417405E+03  0.53167059722E+03  0.90449301875E+02 0.  0.
        254    2    1    2    0    0  0.44758336973E+03  0.17798279292E+02  0.10201725380E+03  0.10110692039E+04  0.90066961947E+03 0.  0.
        -24    2    4    4    0    0  0.29681928936E+03 -0.34736673851E+03 -0.20275429772E+03  0.50603922949E+03  0.78746777547E+02 0.  0.
         24    2    4    4    0    0  0.15076408037E+03  0.36516501780E+03  0.30477155152E+03  0.50502997443E+03  0.78065858731E+02 0.  0.
         13    1    3    3    0    0 -0.35712481204E+02 -0.27357345205E+02 -0.27766638007E+02  0.52865790797E+02  0.00000000000E+00 0.  1.
        -13    1    3    3    0    0 -0.41187088852E+03  0.95590659128E+01 -0.24397753604E+03  0.47880480642E+03  0.00000000000E+00 0. -1.
          2    1    6    6  502    0  0.11587538696E+03  0.32047232385E+03  0.28723125869E+03  0.44568084055E+03  0.00000000000E+00 0. -1.
          3    1    5    5  503    0  0.30114994864E+03 -0.33734721122E+03 -0.19408953319E+03  0.49210281383E+03  0.00000000000E+00 0. -1.
         -4    1    5    5    0  503 -0.43306592815E+01 -0.10019527294E+02 -0.86647645346E+01  0.13936415660E+02  0.00000000000E+00 0.  1.
         -1    1    6    6    0  502  0.34888693414E+02  0.44692693951E+02  0.17540292831E+02  0.59349133888E+02  0.00000000000E+00 0.  1.
<mgrwt>
<rscale>  0 0.15333750E+04</rscale>
<asrwt>0</asrwt>
<pdfrwt beam="1">  1        2 0.13172821E+00 0.15333750E+04</pdfrwt>
<pdfrwt beam="2">  1       -2 0.10561637E+00 0.15333750E+04</pdfrwt>
<totfact> 0.21953931E+01</totfact>
</mgrwt>
</event>
<event>
12    1  0.1536832E-007  0.1683511E+04  0.7818608E-02  0.8770825E-01
          1   -1    0    0  501    0  0.00000000000E+00  0.00000000000E+00  0.54980226004E+03  0.54980226004E+03  0.00000000000E+00 0. -1.
         -1   -1    0    0    0  501 -0.00000000000E+00 -0.00000000000E+00 -0.12887409882E+04  0.12887409882E+04  0.00000000000E+00 0.  1.
         23    2    1    2    0    0  0.33190662677E+03 -0.14144025750E+03  0.26000505902E+03  0.45462203203E+03  0.94399184096E+02 0.  0.
        254    2    1    2    0    0 -0.33190662677E+03  0.14144025750E+03 -0.99894378718E+03  0.13839212162E+04  0.88723271320E+03 0.  0.
        -24    2    4    4    0    0 -0.59459110254E+03  0.84034779251E+02 -0.90196319764E+03  0.10866366134E+04  0.81492922556E+02 0.  0.
         24    2    4    4    0    0  0.26268447577E+03  0.57405478251E+02 -0.96980589539E+02  0.29728460276E+03  0.81696863728E+02 0.  0.
         11    1    3    3    0    0  0.32222724945E+01  0.38228756215E+01  0.24428330796E+02  0.24934730067E+02  0.00000000000E+00 0.  1.
        -11    1    3    3    0    0  0.32868435427E+03 -0.14526313312E+03  0.23557672823E+03  0.42968730197E+03  0.00000000000E+00 0. -1.
          4    1    6    6  502    0  0.51489946885E+02  0.28044587208E+02 -0.54124856462E+02  0.79794821818E+02  0.00000000000E+00 0. -1.
          1    1    5    5  503    0 -0.33205726326E+03  0.83386516177E+02 -0.47780872364E+03  0.58780652731E+03  0.00000000000E+00 0. -1.
         -2    1    5    5    0  503 -0.26253383929E+03  0.64826307379E+00 -0.42415447400E+03  0.49883008613E+03  0.00000000000E+00 0.  1.
         -3    1    6    6    0  502  0.21119452889E+03  0.29360891043E+02 -0.42855733078E+02  0.21748978094E+03  0.00000000000E+00 0.  1.
<mgrwt>
<rscale>  0 0.16835115E+04</rscale>
<asrwt>0</asrwt>
<pdfrwt beam="1">  1        1 0.84584964E-01 0.16835115E+04</pdfrwt>
<pdfrwt beam="2">  1       -1 0.19826784E+00 0.16835115E+04</pdfrwt>
<totfact> 0.57208054E+00</totfact>
</mgrwt>
</event>
<event>
12    1  0.1536832E-007  0.1843711E+04  0.7818608E-02  0.8683394E-01
          2   -1    0    0  501    0  0.00000000000E+00  0.00000000000E+00  0.22602014762E+04  0.22602014762E+04  0.00000000000E+00 0. -1.
         -2   -1    0    0    0  501 -0.00000000000E+00 -0.00000000000E+00 -0.37599191271E+03  0.37599191271E+03  0.00000000000E+00 0.  1.
         23    2    1    2    0    0  0.57142086849E+02 -0.48829875410E+02 -0.27326255700E+03  0.29905988907E+03  0.95471552690E+02 0.  0.
        254    2    1    2    0    0 -0.57142086849E+02  0.48829875410E+02  0.21574721205E+04  0.23371334998E+04  0.89546494660E+03 0.  0.
        -24    2    4    4    0    0  0.96411752001E+02 -0.33485250874E+02 -0.35408912474E+02  0.13592753558E+03  0.82498581175E+02 0.  0.
         24    2    4    4    0    0 -0.15355383885E+03  0.82315126284E+02  0.21928810329E+04  0.22012059642E+04  0.78904442043E+02 0.  0.
         13    1    3    3    0    0  0.46469336735E+02 -0.72164844329E+02 -0.14706472654E+03  0.17027976335E+03  0.00000000000E+00 0.  1.
        -13    1    3    3    0    0  0.10672750115E+02  0.23334968919E+02 -0.12619783046E+03  0.12878012572E+03  0.00000000000E+00 0. -1.
          4    1    6    6  502    0 -0.13345924378E+02  0.43892744089E+02  0.53357583460E+03  0.53554445002E+03  0.00000000000E+00 0. -1.
          3    1    5    5  503    0 -0.16395168433E+01 -0.12234301671E+02 -0.33369208331E+02  0.35579069935E+02  0.00000000000E+00 0. -1.
         -4    1    5    5    0  503  0.98051268844E+02 -0.21250949203E+02 -0.20397041436E+01  0.10034846564E+03  0.00000000000E+00 0.  1.
         -3    1    6    6    0  502 -0.14020791447E+03  0.38422382195E+02  0.16593051983E+04  0.16656615142E+04  0.00000000000E+00 0.  1.
<mgrwt>
<rscale>  0 0.18437109E+04</rscale>
<asrwt>0</asrwt>
<pdfrwt beam="1">  1        2 0.34772330E+00 0.18437109E+04</pdfrwt>
<pdfrwt beam="2">  1       -2 0.57844911E-01 0.18437109E+04</pdfrwt>
<totfact> 0.12572616E+01</totfact>
</mgrwt>
</event>
<event>
12    1  0.1536832E-007  0.2160118E+04  0.7818608E-02  0.8535214E-01
          2   -1    0    0  501    0  0.00000000000E+00  0.00000000000E+00  0.12897217226E+04  0.12897217226E+04  0.00000000000E+00 0. -1.
         -2   -1    0    0    0  501 -0.00000000000E+00 -0.00000000000E+00 -0.90447991797E+03  0.90447991797E+03  0.00000000000E+00 0.  1.
         23    2    1    2    0    0  0.18677785684E+03  0.84692780579E+03  0.30978648777E+03  0.92553305390E+03  0.92038523623E+02 0.  0.
        254    2    1    2    0    0 -0.18677785684E+03 -0.84692780579E+03  0.75455316820E+02  0.12686685866E+04  0.92285090986E+03 0.  0.
        -24    2    4    4    0    0 -0.30212208456E+03 -0.71661177917E+03 -0.30822472253E+03  0.84031165652E+03  0.79441830774E+02 0.  0.
         24    2    4    4    0    0  0.11534422772E+03 -0.13031602662E+03  0.38368003935E+03  0.42835693011E+03  0.77412720629E+02 0.  0.
         11    1    3    3    0    0  0.63901890252E+02  0.46120922373E+03  0.13672313180E+03  0.48527375202E+03  0.00000000000E+00 0. -1.
        -11    1    3    3    0    0  0.12287596659E+03  0.38571858206E+03  0.17306335597E+03  0.44025930188E+03  0.00000000000E+00 0.  1.
          4    1    6    6  502    0  0.40011574375E+01  0.70771062742E+00  0.74268191628E+02  0.74379260570E+02  0.00000000000E+00 0. -1.
          3    1    5    5  503    0 -0.91413801751E+02 -0.14413910671E+03 -0.85545728932E+02  0.19092049909E+03  0.00000000000E+00 0. -1.
         -4    1    5    5    0  503 -0.21070828281E+03 -0.57247267246E+03 -0.22267899359E+03  0.64939115743E+03  0.00000000000E+00 0.  1.
         -3    1    6    6    0  502  0.11134307029E+03 -0.13102373725E+03  0.30941184772E+03  0.35397766954E+03  0.00000000000E+00 0.  1.
<mgrwt>
<rscale>  0 0.21601180E+04</rscale>
<asrwt>0</asrwt>
<pdfrwt beam="1">  1        2 0.19841873E+00 0.21601180E+04</pdfrwt>
<pdfrwt beam="2">  1       -2 0.13915076E+00 0.21601180E+04</pdfrwt>
<totfact> 0.56095313E+00</totfact>
</mgrwt>
</event>
<event>
12    1  0.1536832E-007  0.1677389E+04  0.7818608E-02  0.8774367E-01
         -2   -1    0    0    0  501 -0.00000000000E+00  0.00000000000E+00  0.68910392473E+03  0.68910392473E+03  0.00000000000E+00 0.  1.
          2   -1    0    0  501    0  0.00000000000E+00 -0.00000000000E+00 -0.10207577689E+04  0.10207577689E+04  0.00000000000E+00 0. -1.
         23    2    1    2    0    0 -0.16818270927E+03 -0.21543241722E+02  0.46169847585E+03  0.50044940415E+03  0.92382836873E+02 0.  0.
        254    2    1    2    0    0  0.16818270927E+03  0.21543241722E+02 -0.79335231998E+03  0.12094122894E+04  0.89695074963E+03 0.  0.
        -24    2    4    4    0    0  0.30917262208E+03 -0.34073669999E+03 -0.22962562460E+03  0.52003713550E+03  0.77598233669E+02 0.  0.
         24    2    4    4    0    0 -0.14098991281E+03  0.36227994171E+03 -0.56372669538E+03  0.68937515393E+03  0.79532409079E+02 0.  0.
         13    1    3    3    0    0 -0.54162959904E+02  0.34378695268E+02  0.12298904986E+03  0.13871491376E+03  0.00000000000E+00 0. -1.
        -13    1    3    3    0    0 -0.11401974937E+03 -0.55921936991E+02  0.33870942599E+03  0.36173449039E+03  0.00000000000E+00 0.  1.
          2    1    6    6  502    0  0.79639445014E+01  0.44827413898E+01 -0.10826850841E+02  0.14168277296E+02  0.00000000000E+00 0. -1.
          3    1    5    5  503    0  0.95326108633E+02 -0.56952847485E+02 -0.48000830043E+02  0.12097426796E+03  0.00000000000E+00 0. -1.
         -4    1    5    5    0  503  0.21384651345E+03 -0.28378385250E+03 -0.18162479455E+03  0.39906286754E+03  0.00000000000E+00 0.  1.
         -1    1    6    6    0  502 -0.14895385731E+03  0.35779720032E+03 -0.55289984454E+03  0.67520687664E+03  0.00000000000E+00 0.  1.
<mgrwt>
<rscale>  0 0.16773887E+04</rscale>
<asrwt>0</asrwt>
<pdfrwt beam="1">  1        2 0.15703966E+00 0.16773887E+04</pdfrwt>
<pdfrwt beam="2">  1       -2 0.10601599E+00 0.16773887E+04</pdfrwt>
<totfact> 0.16728214E+01</totfact>
</mgrwt>
</event>
<event>
12    1  0.1536832E-007  0.2126561E+04  0.7818608E-02  0.8549633E-01
          3   -1    0    0  501    0  0.00000000000E+00  0.00000000000E+00  0.74452397945E+03  0.74452397945E+03  0.00000000000E+00 0. -1.
         -3   -1    0    0    0  501 -0.00000000000E+00 -0.00000000000E+00 -0.15185073135E+04  0.15185073135E+04  0.00000000000E+00 0.  1.
         23    2    1    2    0    0  0.63541873548E+01  0.80773054836E+03  0.36513640140E+02  0.81330776463E+03  0.87562889576E+02 0.  0.
        254    2    1    2    0    0 -0.63541873548E+01 -0.80773054836E+03 -0.81049697415E+03  0.14497235283E+04  0.89012580510E+03 0.  0.
        -24    2    4    4    0    0  0.22509788007E+03 -0.90517308139E+03 -0.66927443410E+03  0.11508488741E+04  0.80731034514E+02 0.  0.
         24    2    4    4    0    0 -0.23145206743E+03  0.97442533023E+02 -0.14122254005E+03  0.29887465421E+03  0.79480477811E+02 0.  0.
         11    1    3    3    0    0  0.38278784254E+02  0.31380639847E+03 -0.90353335421E+01  0.31626153465E+03  0.00000000000E+00 0.  1.
        -11    1    3    3    0    0 -0.31924596899E+02  0.49392414989E+03  0.45548973682E+02  0.49704622998E+03  0.00000000000E+00 0. -1.
          4    1    6    6  502    0 -0.11287573550E+03  0.82669386002E+02 -0.50133175516E+02  0.14862198470E+03  0.00000000000E+00 0. -1.
          1    1    5    5  503    0  0.18821191386E+03 -0.59981283412E+03 -0.44890409406E+03  0.77247268311E+03  0.00000000000E+00 0. -1.
         -2    1    5    5    0  503  0.36885966209E+02 -0.30536024727E+03 -0.22037034003E+03  0.37837619096E+03  0.00000000000E+00 0.  1.
         -3    1    6    6    0  502 -0.11857633192E+03  0.14773147021E+02 -0.91089364532E+02  0.15025266951E+03  0.00000000000E+00 0.  1.
<mgrwt>
<rscale>  0 0.21265607E+04</rscale>
<asrwt>0</asrwt>
<pdfrwt beam="1">  1        3 0.11454215E+00 0.21265607E+04</pdfrwt>
<pdfrwt beam="2">  1       -3 0.23361651E+00 0.21265607E+04</pdfrwt>
<totfact> 0.13884596E-01</totfact>
</mgrwt>
</event>
<event>
12    1  0.1536832E-007  0.2215111E+04  0.7818608E-02  0.8512165E-01
          1   -1    0    0  501    0  0.00000000000E+00  0.00000000000E+00  0.88607210607E+03  0.88607210607E+03  0.00000000000E+00 0. -1.
         -1   -1    0    0    0  501 -0.00000000000E+00 -0.00000000000E+00 -0.13844004840E+04  0.13844004840E+04  0.00000000000E+00 0.  1.
         23    2    1    2    0    0  0.98420157580E+02 -0.44497160907E+03 -0.10291854319E+04  0.11290526799E+04  0.88606097864E+02 0.  0.
        254    2    1    2    0    0 -0.98420157580E+02  0.44497160907E+03  0.53085705395E+03  0.11414199101E+04  0.90185583064E+03 0.  0.
        -24    2    4    4    0    0  0.37742559417E+03  0.30771315313E+03  0.16385664251E+03  0.51978687640E+03  0.78688841844E+02 0.  0.
         24    2    4    4    0    0 -0.47584575175E+03  0.13725845593E+03  0.36700041144E+03  0.62163303375E+03  0.80431731691E+02 0.  0.
         13    1    3    3    0    0  0.30639623112E+02 -0.92771172850E+02 -0.31600573904E+03  0.33076412158E+03  0.00000000000E+00 0. -1.
        -13    1    3    3    0    0  0.67780534467E+02 -0.35220043622E+03 -0.71317969283E+03  0.79828855835E+03  0.00000000000E+00 0.  1.
          2    1    6    6  502    0 -0.20761181085E+03  0.29927096585E+02  0.18861168880E+03  0.28208627096E+03  0.00000000000E+00 0. -1.
          1    1    5    5  503    0  0.32229337085E+03  0.26821646723E+03  0.11083905068E+03  0.43370310737E+03  0.00000000000E+00 0. -1.
         -2    1    5    5    0  503  0.55132223320E+02  0.39496685903E+02  0.53017591833E+02  0.86083769024E+02  0.00000000000E+00 0.  1.
         -1    1    6    6    0  502 -0.26823394091E+03  0.10733135935E+03  0.17838872264E+03  0.33954676279E+03  0.00000000000E+00 0.  1.
<mgrwt>
<rscale>  0 0.22151105E+04</rscale>
<asrwt>0</asrwt>
<pdfrwt beam="1">  1        1 0.13631878E+00 0.22151105E+04</pdfrwt>
<pdfrwt beam="2">  1       -1 0.21298469E+00 0.22151105E+04</pdfrwt>
<totfact> 0.20873155E+00</totfact>
</mgrwt>
</event>
<event>
12    1  0.1536832E-007  0.1186443E+04  0.7818608E-02  0.9124806E-01
         -2   -1    0    0    0  501 -0.00000000000E+00  0.00000000000E+00  0.27287119754E+03  0.27287119754E+03  0.00000000000E+00 0.  1.
          2   -1    0    0  501    0  0.00000000000E+00 -0.00000000000E+00 -0.12896626556E+04  0.12896626556E+04  0.00000000000E+00 0. -1.
         23    2    1    2    0    0 -0.38418081818E+02 -0.23715774180E+03 -0.19406583740E+03  0.31919143615E+03  0.80634236876E+02 0.  0.
        254    2    1    2    0    0  0.38418081818E+02  0.23715774180E+03 -0.82272562069E+03  0.12433424170E+04  0.90072369544E+03 0.  0.
        -24    2    4    4    0    0  0.97863032574E+02 -0.17829485034E+03  0.89821703368E+02  0.23568496917E+03  0.78187208009E+02 0.  0.
         24    2    4    4    0    0 -0.59444950756E+02  0.41545259214E+03 -0.91254732406E+03  0.10076574479E+04  0.80599969502E+02 0.  0.
         11    1    3    3    0    0 -0.55353677222E+02 -0.13396121876E+03 -0.13977363188E+03  0.20136113300E+03  0.00000000000E+00 0. -1.
        -11    1    3    3    0    0  0.16935595405E+02 -0.10319652304E+03 -0.54292205516E+02  0.11783030314E+03  0.00000000000E+00 0.  1.
          2    1    6    6  502    0 -0.27335251811E+02  0.41075074728E+02 -0.76201685262E+02  0.90780364574E+02  0.00000000000E+00 0. -1.
          3    1    5    5  503    0  0.24288381679E+02 -0.33416651828E+02  0.56205652568E+02  0.69754379680E+02  0.00000000000E+00 0. -1.
         -4    1    5    5    0  503  0.73574650894E+02 -0.14487819851E+03  0.33616050800E+02  0.16593058949E+03  0.00000000000E+00 0.  1.
         -1    1    6    6    0  502 -0.32109698945E+02  0.37437751741E+03 -0.83634563880E+03  0.91687708328E+03  0.00000000000E+00 0.  1.
<mgrwt>
<rscale>  0 0.11864431E+04</rscale>
<asrwt>0</asrwt>
<pdfrwt beam="1">  1        2 0.19840963E+00 0.11864431E+04</pdfrwt>
<pdfrwt beam="2">  1       -2 0.41980185E-01 0.11864431E+04</pdfrwt>
<totfact> 0.88973184E+01</totfact>
</mgrwt>
</event>
<event>
12    1  0.1536832E-007  0.2943290E+04  0.7818608E-02  0.8260113E-01
         -1   -1    0    0    0  501 -0.00000000000E+00  0.00000000000E+00  0.12775153076E+04  0.12775153076E+04  0.00000000000E+00 0.  1.
          1   -1    0    0  501    0  0.00000000000E+00 -0.00000000000E+00 -0.16952745542E+04  0.16952745542E+04  0.00000000000E+00 0. -1.
         23    2    1    2    0    0  0.91920435600E+03  0.39656019756E+03  0.69071810295E+03  0.12196466103E+04  0.90827957396E+02 0.  0.
        254    2    1    2    0    0 -0.91920435600E+03 -0.39656019756E+03 -0.11084773495E+04  0.17531432515E+04  0.91792842176E+03 0.  0.
        -24    2    4    4    0    0 -0.46451916552E+03  0.16935975739E+03 -0.83442969192E+03  0.97300862527E+03  0.77537678178E+02 0.  0.
         24    2    4    4    0    0 -0.45468519048E+03 -0.56591995495E+03 -0.27404765757E+03  0.78013462620E+03  0.80646751477E+02 0.  0.
         13    1    3    3    0    0  0.87730298910E+03  0.37610693471E+03  0.67952284711E+03  0.11716946107E+04  0.00000000000E+00 0.  1.
        -13    1    3    3    0    0  0.41901366907E+02  0.20453262851E+02  0.11195255839E+02  0.47951999575E+02  0.00000000000E+00 0. -1.
          2    1    6    6  502    0 -0.43808822628E+03 -0.51325890106E+03 -0.24634839266E+03  0.71836169447E+03  0.00000000000E+00 0. -1.
          1    1    5    5  503    0 -0.43913370890E+03  0.17054880150E+03 -0.81362553036E+03  0.94016584262E+03  0.00000000000E+00 0. -1.
         -2    1    5    5    0  503 -0.25385456623E+02 -0.11890441137E+01 -0.20804161563E+02  0.32842782650E+02  0.00000000000E+00 0.  1.
         -1    1    6    6    0  502 -0.16596964205E+02 -0.52661053897E+02 -0.27699264908E+02  0.61772931732E+02  0.00000000000E+00 0.  1.
<mgrwt>
<rscale>  0 0.29432901E+04</rscale>
<asrwt>0</asrwt>
<pdfrwt beam="1">  1        1 0.26081147E+00 0.29432901E+04</pdfrwt>
<pdfrwt beam="2">  1       -1 0.19654082E+00 0.29432901E+04</pdfrwt>
<totfact> 0.65309734E-01</totfact>
</mgrwt>
</event>
<event>
12    1  0.1536832E-007  0.2472910E+04  0.7818608E-02  0.8412701E-01
          2   -1    0    0  501    0  0.00000000000E+00  0.00000000000E+00  0.11134654130E+04  0.11134654130E+04  0.00000000000E+00 0. -1.
         -2   -1    0    0    0  501 -0.00000000000E+00 -0.00000000000E+00 -0.13730294927E+04  0.13730294927E+04  0.00000000000E+00 0.  1.
         23    2    1    2    0    0  0.77671160901E+03 -0.15502311216E+03 -0.82453100552E+03  0.11470182256E+04  0.92121342998E+02 0.  0.
        254    2    1    2    0    0 -0.77671160901E+03  0.15502311216E+03  0.56496692585E+03  0.13394766801E+04  0.92070465426E+03 0.  0.
        -24    2    4    4    0    0 -0.90946376475E+03 -0.63462580600E+02  0.55735098594E+03  0.10714436132E+04  0.78736625261E+02 0.  0.
         24    2    4    4    0    0  0.13275215574E+03  0.21848569276E+03  0.76159399149E+01  0.26803306693E+03  0.80153537862E+02 0.  0.
         11    1    3    3    0    0  0.27470761490E+02 -0.24148442503E+02 -0.43531820072E+02  0.56857799561E+02  0.00000000000E+00 0. -1.
        -11    1    3    3    0    0  0.74924084752E+03 -0.13087466966E+03 -0.78099918545E+03  0.10901604260E+04  0.00000000000E+00 0.  1.
          4    1    6    6  502    0  0.24458506974E+02  0.69299464747E+01 -0.14632385192E+02  0.29331713519E+02  0.00000000000E+00 0. -1.
          3    1    5    5  503    0 -0.23585158029E+03 -0.47645077110E+02  0.12899404375E+03  0.27301187634E+03  0.00000000000E+00 0. -1.
         -4    1    5    5    0  503 -0.67361218447E+03 -0.15817503490E+02  0.42835694218E+03  0.79843173684E+03  0.00000000000E+00 0.  1.
         -3    1    6    6    0  502  0.10829364877E+03  0.21155574629E+03  0.22248325107E+02  0.23870135341E+03  0.00000000000E+00 0.  1.
<mgrwt>
<rscale>  0 0.24729099E+04</rscale>
<asrwt>0</asrwt>
<pdfrwt beam="1">  1        2 0.17130237E+00 0.24729099E+04</pdfrwt>
<pdfrwt beam="2">  1       -2 0.21123531E+00 0.24729099E+04</pdfrwt>
<totfact> 0.21477958E+00</totfact>
</mgrwt>
</event>
<event>
12    1  0.1536832E-007  0.1654280E+04  0.7818608E-02  0.8787879E-01
          2   -1    0    0  501    0  0.00000000000E+00  0.00000000000E+00  0.51709879660E+03  0.51709879660E+03  0.00000000000E+00 0. -1.
         -2   -1    0    0    0  501 -0.00000000000E+00 -0.00000000000E+00 -0.13230750370E+04  0.13230750370E+04  0.00000000000E+00 0.  1.
         23    2    1    2    0    0 -0.11854972343E+03  0.19600088064E+02  0.33807289475E+03  0.36951854734E+03  0.88388202205E+02 0.  0.
        254    2    1    2    0    0  0.11854972343E+03 -0.19600088064E+02 -0.11440491352E+04  0.14706552863E+04  0.91626434341E+03 0.  0.
        -24    2    4    4    0    0 -0.20173163977E+03 -0.33993125589E+03 -0.80055640640E+03  0.89645395903E+03  0.80561948901E+02 0.  0.
         24    2    4    4    0    0  0.32028136321E+03  0.32033116783E+03 -0.34349272876E+03  0.57420132725E+03  0.80794187899E+02 0.  0.
         13    1    3    3    0    0 -0.90116811299E+01 -0.21340567810E+02  0.19908663885E+02  0.30544805269E+02  0.00000000000E+00 0.  1.
        -13    1    3    3    0    0 -0.10953804230E+03  0.40940655874E+02  0.31816423086E+03  0.33897374207E+03  0.00000000000E+00 0. -1.
          4    1    6    6  502    0  0.74985945229E+02  0.11004850596E+03 -0.67604920467E+02  0.14934520721E+03  0.00000000000E+00 0. -1.
          1    1    5    5  503    0 -0.17182250874E+03 -0.31798085680E+03 -0.75951995801E+03  0.84113338206E+03  0.00000000000E+00 0. -1.
         -2    1    5    5    0  503 -0.29909131036E+02 -0.21950399097E+02 -0.41036448390E+02  0.55320576970E+02  0.00000000000E+00 0.  1.
         -3    1    6    6    0  502  0.24529541798E+03  0.21028266187E+03 -0.27588780830E+03  0.42485612003E+03  0.00000000000E+00 0.  1.
<mgrwt>
<rscale>  0 0.16542799E+04</rscale>
<asrwt>0</asrwt>
<pdfrwt beam="1">  1        2 0.79553663E-01 0.16542799E+04</pdfrwt>
<pdfrwt beam="2">  1       -2 0.20355000E+00 0.16542799E+04</pdfrwt>
<totfact> 0.71212948E+00</totfact>
</mgrwt>
</event>
<event>
12    1  0.1536832E-007  0.1185450E+04  0.7818608E-02  0.9125688E-01
         -1   -1    0    0    0  501 -0.00000000000E+00  0.00000000000E+00  0.66681446277E+03  0.66681446277E+03  0.00000000000E+00 0.  1.
          1   -1    0    0  501    0  0.00000000000E+00 -0.00000000000E+00 -0.52686749258E+03  0.52686749258E+03  0.00000000000E+00 0. -1.
         23    2    1    2    0    0  0.12974668723E+03 -0.15611574177E+03 -0.76475693396E+02  0.23643433596E+03  0.94054961941E+02 0.  0.
        254    2    1    2    0    0 -0.12974668723E+03  0.15611574177E+03  0.21642266359E+03  0.95724761938E+03  0.91009774630E+03 0.  0.
        -24    2    4    4    0    0  0.42964750421E+02 -0.35168898308E+03  0.19878531503E+03  0.41463082588E+03  0.82897585638E+02 0.  0.
         24    2    4    4    0    0 -0.17271143765E+03  0.50780472485E+03  0.17637348563E+02  0.54261679350E+03  0.80168754816E+02 0.  0.
         13    1    3    3    0    0  0.84855103301E+02 -0.48153948332E+02 -0.68554864625E+02  0.11924328392E+03  0.00000000000E+00 0. -1.
        -13    1    3    3    0    0  0.44891583927E+02 -0.10796179344E+03 -0.79208287711E+01  0.11719105204E+03  0.00000000000E+00 0.  1.
          2    1    6    6  502    0 -0.70107754438E+01  0.67386433195E+01  0.11188510402E+02  0.14823732699E+02  0.00000000000E+00 0. -1.
          1    1    5    5  503    0  0.76684704292E+01 -0.12669111251E+03  0.11705736938E+03  0.17266114547E+03  0.00000000000E+00 0. -1.
         -2    1    5    5    0  503  0.35296279992E+02 -0.22499787056E+03  0.81727945647E+02  0.24196968041E+03  0.00000000000E+00 0.  1.
         -1    1    6    6    0  502 -0.16570066220E+03  0.50106608153E+03  0.64488381605E+01  0.52779306080E+03  0.00000000000E+00 0.  1.
<mgrwt>
<rscale>  0 0.11854499E+04</rscale>
<asrwt>0</asrwt>
<pdfrwt beam="1">  1        1 0.81056537E-01 0.11854499E+04</pdfrwt>
<pdfrwt beam="2">  1       -1 0.10258684E+00 0.11854499E+04</pdfrwt>
<totfact> 0.36708673E+01</totfact>
</mgrwt>
</event>
<event>
12    1  0.1536832E-007  0.1724934E+04  0.7818608E-02  0.8747270E-01
         -1   -1    0    0    0  501 -0.00000000000E+00  0.00000000000E+00  0.28174522746E+03  0.28174522746E+03  0.00000000000E+00 0.  1.
          1   -1    0    0  501    0  0.00000000000E+00 -0.00000000000E+00 -0.26401497476E+04  0.26401497476E+04  0.00000000000E+00 0. -1.
         23    2    1    2    0    0 -0.29224303210E+03 -0.24316582364E+02  0.49889400933E+02  0.30949440523E+03  0.85443247539E+02 0.  0.
        254    2    1    2    0    0  0.29224303210E+03  0.24316582364E+02 -0.24082939210E+04  0.26124005698E+04  0.96889619722E+03 0.  0.
        -24    2    4    4    0    0 -0.28516677370E+03 -0.23131766758E+03 -0.85907025398E+03  0.93765969672E+03  0.79850193578E+02 0.  0.
         24    2    4    4    0    0  0.57740980580E+03  0.25563424994E+03 -0.15492236670E+04  0.16747408731E+04  0.76889972225E+02 0.  0.
         11    1    3    3    0    0 -0.42274485925E+02 -0.10966254831E+02 -0.22205356863E+02  0.48994579074E+02  0.00000000000E+00 0. -1.
        -11    1    3    3    0    0 -0.24996854618E+03 -0.13350327533E+02  0.72094757795E+02  0.26049982615E+03  0.00000000000E+00 0.  1.
          2    1    6    6  502    0  0.46126011242E+03  0.21902902309E+03 -0.13169692424E+04  0.14124951645E+04  0.00000000000E+00 0. -1.
          1    1    5    5  503    0 -0.23153948839E+03 -0.21732947525E+03 -0.68607495125E+03  0.75600362051E+03  0.00000000000E+00 0. -1.
         -2    1    5    5    0  503 -0.53627285308E+02 -0.13988192328E+02 -0.17299530274E+03  0.18165607621E+03  0.00000000000E+00 0.  1.
         -1    1    6    6    0  502  0.11614969338E+03  0.36605226859E+02 -0.23225442463E+03  0.26224570857E+03  0.00000000000E+00 0.  1.
<mgrwt>
<rscale>  0 0.17249343E+04</rscale>
<asrwt>0</asrwt>
<pdfrwt beam="1">  1        1 0.40617690E+00 0.17249343E+04</pdfrwt>
<pdfrwt beam="2">  1       -1 0.43345418E-01 0.17249343E+04</pdfrwt>
<totfact> 0.54037189E+00</totfact>
</mgrwt>
</event>
<event>
12    1  0.1536832E-007  0.1659936E+04  0.7818608E-02  0.8784550E-01
          2   -1    0    0  501    0  0.00000000000E+00  0.00000000000E+00  0.41107553938E+04  0.41107553938E+04  0.00000000000E+00 0. -1.
         -2   -1    0    0    0  501 -0.00000000000E+00 -0.00000000000E+00 -0.16757191033E+03  0.16757191033E+03  0.00000000000E+00 0.  1.
         23    2    1    2    0    0  0.18658262299E+03 -0.54557112944E+03  0.12382764181E+04  0.13690699329E+04  0.92536809853E+02 0.  0.
        254    2    1    2    0    0 -0.18658262299E+03  0.54557112944E+03  0.27049070654E+04  0.29092573712E+04  0.90266011710E+03 0.  0.
        -24    2    4    4    0    0 -0.28964558303E+03  0.57440564251E+03  0.95513704640E+03  0.11543751060E+04  0.80366050716E+02 0.  0.
         24    2    4    4    0    0  0.10306296003E+03 -0.28834513073E+02  0.17497700190E+04  0.17548822651E+04  0.80394293113E+02 0.  0.
         13    1    3    3    0    0  0.15715296016E+03 -0.48929523489E+03  0.11563969766E+04  0.12654488718E+04  0.00000000000E+00 0.  1.
        -13    1    3    3    0    0  0.29429662831E+02 -0.56275894546E+02  0.81879441508E+02  0.10362106110E+03  0.00000000000E+00 0. -1.
          4    1    6    6  502    0  0.88638019821E+02 -0.86650238975E+01  0.82747529733E+03  0.83225425735E+03  0.00000000000E+00 0. -1.
          1    1    5    5  503    0 -0.27141886135E+02  0.11673697118E+03  0.15469465195E+03  0.19569015755E+03  0.00000000000E+00 0. -1.
         -2    1    5    5    0  503 -0.26250369689E+03  0.45766867134E+03  0.80044239445E+03  0.95868494848E+03  0.00000000000E+00 0.  1.
         -3    1    6    6    0  502  0.14424940214E+02 -0.20169489176E+02  0.92229472163E+03  0.92262800778E+03  0.00000000000E+00 0.  1.
<mgrwt>
<rscale>  0 0.16599363E+04</rscale>
<asrwt>0</asrwt>
<pdfrwt beam="1">  1        2 0.63242383E+00 0.16599363E+04</pdfrwt>
<pdfrwt beam="2">  1       -2 0.25780297E-01 0.16599363E+04</pdfrwt>
<totfact> 0.36629554E+00</totfact>
</mgrwt>
</event>
<event>
12    1  0.1536832E-007  0.1520237E+04  0.7818608E-02  0.8871106E-01
          1   -1    0    0  501    0  0.00000000000E+00  0.00000000000E+00  0.96347926731E+03  0.96347926731E+03  0.00000000000E+00 0. -1.
         -1   -1    0    0    0  501 -0.00000000000E+00 -0.00000000000E+00 -0.59968082898E+03  0.59968082898E+03  0.00000000000E+00 0.  1.
         23    2    1    2    0    0 -0.62195177142E+02  0.42771040836E+03  0.32252349745E+03  0.54701447539E+03  0.91646038641E+02 0.  0.
        254    2    1    2    0    0  0.62195177142E+02 -0.42771040836E+03  0.41274940872E+02  0.10161456209E+04  0.91871860146E+03 0.  0.
        -24    2    4    4    0    0  0.33592126205E+03 -0.46249391810E+03  0.28149889971E+03  0.64207923284E+03  0.79248925150E+02 0.  0.
         24    2    4    4    0    0 -0.27372608491E+03  0.34783509743E+02 -0.24022395884E+03  0.37406638806E+03  0.77988782335E+02 0.  0.
         13    1    3    3    0    0 -0.12249194174E+02  0.81839907999E+02  0.20803779690E+02  0.85326493826E+02  0.00000000000E+00 0.  1.
        -13    1    3    3    0    0 -0.49945982968E+02  0.34587050036E+03  0.30171971776E+03  0.46168798156E+03  0.00000000000E+00 0. -1.
          2    1    6    6  502    0 -0.21017048614E+03  0.56864903019E+01 -0.14278553954E+03  0.25414893216E+03  0.00000000000E+00 0. -1.
          1    1    5    5  503    0  0.12702637771E+03 -0.23943015374E+03  0.11984798850E+03  0.29635458408E+03  0.00000000000E+00 0. -1.
         -2    1    5    5    0  503  0.20889488434E+03 -0.22306376436E+03  0.16165091120E+03  0.34572464877E+03  0.00000000000E+00 0.  1.
         -1    1    6    6    0  502 -0.63555598763E+02  0.29097019441E+02 -0.97438419293E+02  0.11991745590E+03  0.00000000000E+00 0.  1.
<mgrwt>
<rscale>  0 0.15202369E+04</rscale>
<asrwt>0</asrwt>
<pdfrwt beam="1">  1        1 0.14822758E+00 0.15202369E+04</pdfrwt>
<pdfrwt beam="2">  1       -1 0.92258589E-01 0.15202369E+04</pdfrwt>
<totfact> 0.17858246E+01</totfact>
</mgrwt>
</event>
<event>
12    1  0.1536832E-007  0.1534321E+04  0.7818608E-02  0.8861945E-01
         -2   -1    0    0    0  501 -0.00000000000E+00  0.00000000000E+00  0.26624733761E+03  0.26624733761E+03  0.00000000000E+00 0.  1.
          2   -1    0    0  501    0  0.00000000000E+00 -0.00000000000E+00 -0.22104836347E+04  0.22104836347E+04  0.00000000000E+00 0. -1.
         23    2    1    2    0    0  0.18553643622E+03 -0.22654285009E+03  0.11821745282E+01  0.30679444308E+03  0.91520493217E+02 0.  0.
        254    2    1    2    0    0 -0.18553643622E+03  0.22654285009E+03 -0.19454184716E+04  0.21699365292E+04  0.91554687433E+03 0.  0.
        -24    2    4    4    0    0 -0.60734856805E+02 -0.29687789993E+03 -0.28744532397E+03  0.42494808438E+03  0.78299743625E+02 0.  0.
         24    2    4    4    0    0 -0.12480157941E+03  0.52342075001E+03 -0.16579731476E+04  0.17449884448E+04  0.81024678772E+02 0.  0.
         13    1    3    3    0    0  0.13003681598E+03 -0.14618117262E+03  0.43386301020E+02  0.20040179604E+03  0.00000000000E+00 0.  1.
        -13    1    3    3    0    0  0.55499620233E+02 -0.80361677466E+02 -0.42204126492E+02  0.10639264704E+03  0.00000000000E+00 0. -1.
          2    1    6    6  502    0 -0.62843557426E+02  0.39051752876E+03 -0.11406330913E+04  0.12072684465E+04  0.00000000000E+00 0. -1.
          3    1    5    5  503    0 -0.27491751302E+02 -0.17903911599E+03 -0.11909297649E+03  0.21678085361E+03  0.00000000000E+00 0. -1.
         -4    1    5    5    0  503 -0.33243105503E+02 -0.11783878393E+03 -0.16835234748E+03  0.20816723077E+03  0.00000000000E+00 0.  1.
         -1    1    6    6    0  502 -0.61958021985E+02  0.13290322125E+03 -0.51734005638E+03  0.53771999836E+03  0.00000000000E+00 0.  1.
<mgrwt>
<rscale>  0 0.15343212E+04</rscale>
<asrwt>0</asrwt>
<pdfrwt beam="1">  1        2 0.34007441E+00 0.15343212E+04</pdfrwt>
<pdfrwt beam="2">  1       -2 0.40961128E-01 0.15343212E+04</pdfrwt>
<totfact> 0.27738749E+01</totfact>
</mgrwt>
</event>
<event>
12    1  0.2384401E-007  0.1764573E+04  0.7818608E-02  0.8725369E-01
          1   -1    0    0  501    0  0.00000000000E+00  0.00000000000E+00  0.15213876744E+04  0.15213876744E+04  0.00000000000E+00 0. -1.
         -1   -1    0    0    0  501 -0.00000000000E+00 -0.00000000000E+00 -0.51165769048E+03  0.51165769048E+03  0.00000000000E+00 0.  1.
         23    2    1    2    0    0  0.56000843309E+03  0.19242399029E+03  0.64980970645E+03  0.88368232818E+03  0.89472707345E+02 0.  0.
        254    2    1    2    0    0 -0.56000843309E+03 -0.19242399029E+03  0.35992027745E+03  0.11493630367E+04  0.91698219548E+03 0.  0.
        -24    2    4    4    0    0 -0.38037477268E+03 -0.41312188124E+03 -0.12615949704E+03  0.58090605085E+03  0.78619111955E+02 0.  0.
         24    2    4    4    0    0 -0.17963366040E+03  0.22069789095E+03  0.48607977450E+03  0.56845698585E+03  0.76772303382E+02 0.  0.
         11    1    3    3    0    0  0.50339798515E+03  0.19884283649E+03  0.57527388033E+03  0.78986583827E+03  0.00000000000E+00 0. -1.
        -11    1    3    3    0    0  0.56610447934E+02 -0.64188461986E+01  0.74535826124E+02  0.93816489904E+02  0.00000000000E+00 0.  1.
          2    1    6    6  502    0 -0.77687737767E+02  0.40496860419E+02  0.13823733865E+03  0.16366105859E+03  0.00000000000E+00 0. -1.
          1    1    5    5  503    0 -0.12926812780E+02 -0.13929860377E+02 -0.20865415001E+02  0.28222491774E+02  0.00000000000E+00 0. -1.
         -4    1    5    5    0  503 -0.36744795990E+03 -0.39919202086E+03 -0.10529408204E+03  0.55268355907E+03  0.00000000000E+00 0.  1.
         -1    1    6    6    0  502 -0.10194592264E+03  0.18020103053E+03  0.34784243585E+03  0.40479592726E+03  0.00000000000E+00 0.  1.
<mgrwt>
<rscale>  0 0.17645733E+04</rscale>
<asrwt>0</asrwt>
<pdfrwt beam="1">  1        1 0.23405964E+00 0.17645733E+04</pdfrwt>
<pdfrwt beam="2">  1       -1 0.78716568E-01 0.17645733E+04</pdfrwt>
<totfact> 0.96601774E+00</totfact>
</mgrwt>
</event>
<event>
12    1  0.1536832E-007  0.2890542E+04  0.7818608E-02  0.8275697E-01
         -2   -1    0    0    0  501 -0.00000000000E+00  0.00000000000E+00  0.14680820661E+04  0.14680820661E+04  0.00000000000E+00 0.  1.
          2   -1    0    0  501    0  0.00000000000E+00 -0.00000000000E+00 -0.14228144341E+04  0.14228144341E+04  0.00000000000E+00 0. -1.
         23    2    1    2    0    0 -0.98131252962E+03 -0.34969933544E+03  0.80678492277E+03  0.13207527502E+04  0.90675297517E+02 0.  0.
        254    2    1    2    0    0  0.98131252962E+03  0.34969933544E+03 -0.76151729076E+03  0.15701437501E+04  0.89452719678E+03 0.  0.
        -24    2    4    4    0    0  0.51293765871E+03  0.23514337707E+03  0.10176224283E+03  0.57871978478E+03  0.78508507333E+02 0.  0.
         24    2    4    4    0    0  0.46837487091E+03  0.11455595836E+03 -0.86327953358E+03  0.99142396530E+03  0.71915496015E+02 0.  0.
         13    1    3    3    0    0 -0.88703219541E+03 -0.31143232274E+03  0.69185201846E+03  0.11672512252E+04  0.00000000000E+00 0.  1.
        -13    1    3    3    0    0 -0.94280334213E+02 -0.38267012697E+02  0.11493290431E+03  0.15350152498E+03  0.00000000000E+00 0. -1.
          2    1    6    6  502    0  0.12435115862E+02 -0.86900300906E+01 -0.29134182099E+02  0.32847363609E+02  0.00000000000E+00 0. -1.
          1    1    5    5  503    0  0.13107183061E+03  0.79739415132E+02  0.58433545769E+02  0.16417270898E+03  0.00000000000E+00 0. -1.
         -2    1    5    5    0  503  0.38186582810E+03  0.15540396194E+03  0.43328697058E+02  0.41454707579E+03  0.00000000000E+00 0.  1.
         -1    1    6    6    0  502  0.45593975505E+03  0.12324598845E+03 -0.83414535148E+03  0.95857660169E+03  0.00000000000E+00 0.  1.
<mgrwt>
<rscale>  0 0.28905421E+04</rscale>
<asrwt>0</asrwt>
<pdfrwt beam="1">  1        2 0.21889453E+00 0.28905421E+04</pdfrwt>
<pdfrwt beam="2">  1       -2 0.22585878E+00 0.28905421E+04</pdfrwt>
<totfact> 0.11009589E+00</totfact>
</mgrwt>
</event>
<event>
12    1  0.1536832E-007  0.1780302E+04  0.7818608E-02  0.8716845E-01
         -2   -1    0    0    0  501 -0.00000000000E+00  0.00000000000E+00  0.58287524785E+03  0.58287524785E+03  0.00000000000E+00 0.  1.
          2   -1    0    0  501    0  0.00000000000E+00 -0.00000000000E+00 -0.13594143109E+04  0.13594143109E+04  0.00000000000E+00 0. -1.
         23    2    1    2    0    0 -0.20652465170E+02  0.49625433673E+03  0.17577576227E+03  0.53479466084E+03  0.91724149620E+02 0.  0.
        254    2    1    2    0    0  0.20652465170E+02 -0.49625433673E+03 -0.95231482537E+03  0.14074948979E+04  0.90963919775E+03 0.  0.
        -24    2    4    4    0    0 -0.24494276509E+03 -0.20540774244E+03  0.45630576314E+02  0.33167653177E+03  0.75748751825E+02 0.  0.
         24    2    4    4    0    0  0.26559523026E+03 -0.29084659429E+03 -0.99794540168E+03  0.10758183662E+04  0.79734337159E+02 0.  0.
         13    1    3    3    0    0 -0.56997299250E+02  0.31685807415E+03  0.11711266563E+03  0.34258299392E+03  0.00000000000E+00 0.  1.
        -13    1    3    3    0    0  0.36344834080E+02  0.17939626258E+03  0.58663096648E+02  0.19221166692E+03  0.00000000000E+00 0. -1.
          2    1    6    6  502    0  0.19426092020E+03 -0.24656764162E+03 -0.71955647464E+03  0.78504421990E+03  0.00000000000E+00 0. -1.
          1    1    5    5  503    0 -0.11263589083E+03 -0.66332812126E+02  0.49249635789E+02  0.13968683722E+03  0.00000000000E+00 0. -1.
         -2    1    5    5    0  503 -0.13230687426E+03 -0.13907493032E+03 -0.36190594755E+01  0.19198969455E+03  0.00000000000E+00 0.  1.
         -3    1    6    6    0  502  0.71334310062E+02 -0.44278952670E+02 -0.27838892704E+03  0.29077414627E+03  0.00000000000E+00 0.  1.
<mgrwt>
<rscale>  0 0.17803022E+04</rscale>
<asrwt>0</asrwt>
<pdfrwt beam="1">  1        2 0.20914066E+00 0.17803022E+04</pdfrwt>
<pdfrwt beam="2">  1       -2 0.89673116E-01 0.17803022E+04</pdfrwt>
<totfact> 0.15388543E+01</totfact>
</mgrwt>
</event>
<event>
12    1  0.1536832E-007  0.1658280E+04  0.7818608E-02  0.8785523E-01
          2   -1    0    0  501    0  0.00000000000E+00  0.00000000000E+00  0.27635245404E+04  0.27635245404E+04  0.00000000000E+00 0. -1.
         -2   -1    0    0    0  501 -0.00000000000E+00 -0.00000000000E+00 -0.24876666551E+03  0.24876666551E+03  0.00000000000E+00 0.  1.
         23    2    1    2    0    0 -0.22654053417E+03 -0.54108381164E+03  0.80719520090E+03  0.10019752172E+04  0.91093022664E+02 0.  0.
        254    2    1    2    0    0  0.22654053417E+03  0.54108381164E+03  0.17075626740E+04  0.20103159887E+04  0.88402928900E+03 0.  0.
        -24    2    4    4    0    0  0.38417920969E+03  0.13289591182E+03  0.24444171926E+03  0.48112286761E+03  0.80451669244E+02 0.  0.
         24    2    4    4    0    0 -0.15763867552E+03  0.40818789982E+03  0.14631209547E+04  0.15291931211E+04  0.79002276705E+02 0.  0.
         13    1    3    3    0    0 -0.16016248883E+03 -0.42359072172E+03  0.55852897879E+03  0.71905197483E+03  0.00000000000E+00 0.  1.
        -13    1    3    3    0    0 -0.66378045343E+02 -0.11749308992E+03  0.24866622211E+03  0.28292324242E+03  0.00000000000E+00 0. -1.
          2    1    6    6  502    0 -0.88560125485E+02  0.20585833847E+03  0.61558680944E+03  0.65510890034E+03  0.00000000000E+00 0. -1.
          1    1    5    5  503    0  0.19071906874E+03  0.26747481828E+02  0.13180378396E+03  0.23336972475E+03  0.00000000000E+00 0. -1.
         -2    1    5    5    0  503  0.19346014095E+03  0.10614842999E+03  0.11263793531E+03  0.24775314286E+03  0.00000000000E+00 0.  1.
         -1    1    6    6    0  502 -0.69078550034E+02  0.20232956134E+03  0.84753414530E+03  0.87408422072E+03  0.00000000000E+00 0.  1.
<mgrwt>
<rscale>  0 0.16582796E+04</rscale>
<asrwt>0</asrwt>
<pdfrwt beam="1">  1        2 0.42515760E+00 0.16582796E+04</pdfrwt>
<pdfrwt beam="2">  1       -2 0.38271797E-01 0.16582796E+04</pdfrwt>
<totfact> 0.15023854E+01</totfact>
</mgrwt>
</event>
<event>
12    1  0.1536832E-007  0.1653609E+04  0.7818608E-02  0.8788274E-01
         -2   -1    0    0    0  501 -0.00000000000E+00  0.00000000000E+00  0.36568261847E+03  0.36568261847E+03  0.00000000000E+00 0.  1.
          2   -1    0    0  501    0  0.00000000000E+00 -0.00000000000E+00 -0.18693954718E+04  0.18693954718E+04  0.00000000000E+00 0. -1.
         23    2    1    2    0    0  0.23534152333E+03 -0.21791234357E+03  0.10965687925E+03  0.35060441731E+03  0.89595782183E+02 0.  0.
        254    2    1    2    0    0 -0.23534152333E+03  0.21791234357E+03 -0.16133697325E+04  0.18844736729E+04  0.91946055268E+03 0.  0.
        -24    2    4    4    0    0 -0.18800531208E+03 -0.10190371860E+03  0.84739956481E+01  0.22861668148E+03  0.80395355683E+02 0.  0.
         24    2    4    4    0    0 -0.47336211248E+02  0.31981606218E+03 -0.16218437282E+04  0.16558569914E+04  0.83440199366E+02 0.  0.
         11    1    3    3    0    0  0.37314255354E+02 -0.41215406791E+01  0.31203615743E+02  0.48816046395E+02  0.00000000000E+00 0. -1.
        -11    1    3    3    0    0  0.19802726797E+03 -0.21379080289E+03  0.78453263511E+02  0.30178837091E+03  0.00000000000E+00 0.  1.
          4    1    6    6  502    0 -0.68350718042E+02  0.18510269077E+03 -0.98928003793E+03  0.10087664845E+04  0.00000000000E+00 0. -1.
          3    1    5    5  503    0 -0.11487270053E+03 -0.98598864209E+02  0.25340941632E+02  0.15349148729E+03  0.00000000000E+00 0. -1.
         -4    1    5    5    0  503 -0.73132611553E+02 -0.33048543958E+01 -0.16866945983E+02  0.75125194189E+02  0.00000000000E+00 0.  1.
         -3    1    6    6    0  502  0.21014506795E+02  0.13471337141E+03 -0.63256369026E+03  0.64709050694E+03  0.00000000000E+00 0.  1.
<mgrwt>
<rscale>  0 0.16536087E+04</rscale>
<asrwt>0</asrwt>
<pdfrwt beam="1">  1        2 0.28759930E+00 0.16536087E+04</pdfrwt>
<pdfrwt beam="2">  1       -2 0.56258864E-01 0.16536087E+04</pdfrwt>
<totfact> 0.22363099E+01</totfact>
</mgrwt>
</event>
<event>
12    1  0.1536832E-007  0.1552143E+04  0.7818608E-02  0.8850500E-01
          1   -1    0    0  501    0  0.00000000000E+00  0.00000000000E+00  0.16608362893E+04  0.16608362893E+04  0.00000000000E+00 0. -1.
         -1   -1    0    0    0  501 -0.00000000000E+00 -0.00000000000E+00 -0.36264079352E+03  0.36264079352E+03  0.00000000000E+00 0.  1.
         23    2    1    2    0    0  0.25836150206E+02  0.36088338421E+03  0.82185918249E+03  0.90251665754E+03  0.90440464573E+02 0.  0.
        254    2    1    2    0    0 -0.25836150206E+02 -0.36088338421E+03  0.47633631325E+03  0.11209604252E+04  0.94802514101E+03 0.  0.
        -24    2    4    4    0    0 -0.45127353756E+03 -0.34279058391E+03  0.19496971575E+03  0.60410802951E+03  0.76027173699E+02 0.  0.
         24    2    4    4    0    0  0.42543738735E+03 -0.18092800295E+02  0.28136659750E+03  0.51685239574E+03  0.81516359136E+02 0.  0.
         11    1    3    3    0    0  0.47253527077E+02  0.12262429636E+03  0.34083917270E+03  0.36529570970E+03  0.00000000000E+00 0.  1.
        -11    1    3    3    0    0 -0.21417376871E+02  0.23825908785E+03  0.48102000979E+03  0.53722094783E+03  0.00000000000E+00 0. -1.
          4    1    6    6  502    0  0.30536530210E+03 -0.44033223783E+02  0.22406366978E+03  0.38130226938E+03  0.00000000000E+00 0. -1.
          3    1    5    5  503    0 -0.45127989772E+03 -0.34566307014E+03  0.19206081022E+03  0.60001988214E+03  0.00000000000E+00 0. -1.
         -4    1    5    5    0  503  0.63601583165E-02  0.28724862260E+01  0.29089055228E+01  0.40881473690E+01  0.00000000000E+00 0.  1.
         -3    1    6    6    0  502  0.12007208526E+03  0.25940423488E+02  0.57302927722E+02  0.13555012635E+03  0.00000000000E+00 0.  1.
<mgrwt>
<rscale>  0 0.15521430E+04</rscale>
<asrwt>0</asrwt>
<pdfrwt beam="1">  1        1 0.25551327E+00 0.15521430E+04</pdfrwt>
<pdfrwt beam="2">  1       -1 0.55790892E-01 0.15521430E+04</pdfrwt>
<totfact> 0.15867069E+01</totfact>
</mgrwt>
</event>
<event>
12    1  0.1536832E-007  0.2108468E+04  0.7818608E-02  0.8557522E-01
          1   -1    0    0  501    0  0.00000000000E+00  0.00000000000E+00  0.13954654856E+04  0.13954654856E+04  0.00000000000E+00 0. -1.
         -1   -1    0    0    0  501 -0.00000000000E+00 -0.00000000000E+00 -0.79644328268E+03  0.79644328268E+03  0.00000000000E+00 0.  1.
         23    2    1    2    0    0  0.55500000596E+02  0.48384397883E+03 -0.51754343084E+03  0.71506621594E+03  0.79266919088E+02 0.  0.
        254    2    1    2    0    0 -0.55500000596E+02 -0.48384397883E+03  0.11165656338E+04  0.14768425524E+04  0.83496099551E+03 0.  0.
        -24    2    4    4    0    0  0.30674130775E+03 -0.30066749276E+02  0.16028076632E+03  0.35514039029E+03  0.73759972052E+02 0.  0.
         24    2    4    4    0    0 -0.36224130834E+03 -0.45377722956E+03  0.95628486745E+03  0.11217021621E+04  0.81255480545E+02 0.  0.
         11    1    3    3    0    0 -0.20109650990E+02  0.87036710512E+02 -0.10059316852E+03  0.13453167877E+03  0.00000000000E+00 0. -1.
        -11    1    3    3    0    0  0.75609651585E+02  0.39680726832E+03 -0.41695026232E+03  0.58053453718E+03  0.00000000000E+00 0.  1.
          4    1    6    6  502    0 -0.18582619363E+03 -0.20639042827E+03  0.52798230917E+03  0.59656827095E+03  0.00000000000E+00 0. -1.
          1    1    5    5  503    0  0.14901209041E+03 -0.12977844669E+02  0.36636625307E+02  0.15399762938E+03  0.00000000000E+00 0. -1.
         -2    1    5    5    0  503  0.15772921733E+03 -0.17088904607E+02  0.12364414101E+03  0.20114276091E+03  0.00000000000E+00 0.  1.
         -3    1    6    6    0  502 -0.17641511472E+03 -0.24738680129E+03  0.42830255829E+03  0.52513389111E+03  0.00000000000E+00 0.  1.
<mgrwt>
<rscale>  0 0.21084678E+04</rscale>
<asrwt>0</asrwt>
<pdfrwt beam="1">  1        1 0.21468700E+00 0.21084678E+04</pdfrwt>
<pdfrwt beam="2">  1       -1 0.12252974E+00 0.21084678E+04</pdfrwt>
<totfact> 0.41828162E+00</totfact>
</mgrwt>
</event>
<event>
12    1  0.1536832E-007  0.1526305E+04  0.7818608E-02  0.8867146E-01
         -1   -1    0    0    0  501 -0.00000000000E+00  0.00000000000E+00  0.45071161794E+03  0.45071161794E+03  0.00000000000E+00 0.  1.
          1   -1    0    0  501    0  0.00000000000E+00 -0.00000000000E+00 -0.12921829221E+04  0.12921829221E+04  0.00000000000E+00 0. -1.
         23    2    1    2    0    0  0.15192587678E+03 -0.27226267653E+03 -0.70407270129E+03  0.77642358364E+03  0.99532785926E+02 0.  0.
        254    2    1    2    0    0 -0.15192587678E+03  0.27226267653E+03 -0.13739860286E+03  0.96647095638E+03  0.90442207867E+03 0.  0.
        -24    2    4    4    0    0 -0.44689199693E+03 -0.68015723934E+00 -0.27868436372E+03  0.53295717647E+03  0.81642255178E+02 0.  0.
         24    2    4    4    0    0  0.29496612015E+03  0.27294283377E+03  0.14128576086E+03  0.43351377991E+03  0.80434623167E+02 0.  0.
         11    1    3    3    0    0  0.16465151319E+03 -0.22949152560E+03 -0.59805465447E+03  0.66139689359E+03  0.00000000000E+00 0.  1.
        -11    1    3    3    0    0 -0.12725636407E+02 -0.42771150932E+02 -0.10601804681E+03  0.11502669005E+03  0.00000000000E+00 0. -1.
          2    1    6    6  502    0  0.71591519469E+02  0.36747129183E+02  0.53990822628E+02  0.96905655620E+02  0.00000000000E+00 0. -1.
          3    1    5    5  503    0 -0.35510652531E+02 -0.11106619876E+01  0.93798259903E+00  0.35540397080E+02  0.00000000000E+00 0. -1.
         -4    1    5    5    0  503 -0.41138134440E+03  0.43050474829E+00 -0.27962234632E+03  0.49741677939E+03  0.00000000000E+00 0.  1.
         -1    1    6    6    0  502  0.22337460068E+03  0.23619570458E+03  0.87294938235E+02  0.33660812429E+03  0.00000000000E+00 0.  1.
<mgrwt>
<rscale>  0 0.15263052E+04</rscale>
<asrwt>0</asrwt>
<pdfrwt beam="1">  1        1 0.19879737E+00 0.15263052E+04</pdfrwt>
<pdfrwt beam="2">  1       -1 0.69340249E-01 0.15263052E+04</pdfrwt>
<totfact> 0.18607869E+01</totfact>
</mgrwt>
</event>
<event>
12    1  0.1536832E-007  0.1306747E+04  0.7818608E-02  0.9024232E-01
          2   -1    0    0  501    0  0.00000000000E+00  0.00000000000E+00  0.20299962848E+04  0.20299962848E+04  0.00000000000E+00 0. -1.
         -2   -1    0    0    0  501 -0.00000000000E+00 -0.00000000000E+00 -0.21029445449E+03  0.21029445449E+03  0.00000000000E+00 0.  1.
         23    2    1    2    0    0  0.26209098148E+03 -0.17148120491E+03  0.28758026520E+03  0.43521867892E+03  0.92819197012E+02 0.  0.
        254    2    1    2    0    0 -0.26209098148E+03  0.17148120491E+03  0.15321215651E+04  0.18050720604E+04  0.90154931459E+03 0.  0.
        -24    2    4    4    0    0 -0.21322873033E+03 -0.21599300148E+03  0.11739557906E+03  0.33523242815E+03  0.80495905342E+02 0.  0.
         24    2    4    4    0    0 -0.48862251150E+02  0.38747420639E+03  0.14147259861E+04  0.14698396322E+04  0.80343939513E+02 0.  0.
         11    1    3    3    0    0  0.25246562664E+03 -0.17824057825E+03  0.28930978344E+03  0.42333054126E+03  0.00000000000E+00 0. -1.
        -11    1    3    3    0    0  0.96253548452E+01  0.67593733321E+01 -0.17295182389E+01  0.11888137662E+02  0.00000000000E+00 0.  1.
          2    1    6    6  502    0 -0.43128223272E+02  0.27969019719E+03  0.88198582221E+03  0.92627514305E+03  0.00000000000E+00 0. -1.
          3    1    5    5  503    0  0.47754105816E+01 -0.10823131722E+02  0.14416430389E+02  0.18648812071E+02  0.00000000000E+00 0. -1.
         -4    1    5    5    0  503 -0.21800414092E+03 -0.20516986975E+03  0.10297914867E+03  0.31658361608E+03  0.00000000000E+00 0.  1.
         -1    1    6    6    0  502 -0.57340278779E+01  0.10778400920E+03  0.53274016385E+03  0.54356448917E+03  0.00000000000E+00 0.  1.
<mgrwt>
<rscale>  0 0.13067470E+04</rscale>
<asrwt>0</asrwt>
<pdfrwt beam="1">  1        2 0.31230711E+00 0.13067470E+04</pdfrwt>
<pdfrwt beam="2">  1       -2 0.32352994E-01 0.13067470E+04</pdfrwt>
<totfact> 0.56101416E+01</totfact>
</mgrwt>
</event>
<event>
12    1  0.1536832E-007  0.1718232E+04  0.7818608E-02  0.8751034E-01
          1   -1    0    0  501    0  0.00000000000E+00  0.00000000000E+00  0.35053662779E+04  0.35053662779E+04  0.00000000000E+00 0. -1.
         -1   -1    0    0    0  501 -0.00000000000E+00 -0.00000000000E+00 -0.21055723130E+03  0.21055723130E+03  0.00000000000E+00 0.  1.
         23    2    1    2    0    0  0.52717376613E+03  0.14886674946E+03  0.56919966760E+03  0.79554215497E+03  0.93944504643E+02 0.  0.
        254    2    1    2    0    0 -0.52717376613E+03 -0.14886674946E+03  0.27256093790E+04  0.29203813543E+04  0.89420762602E+03 0.  0.
        -24    2    4    4    0    0 -0.50504707979E+03 -0.36850186277E+03  0.10220809077E+04  0.12007641001E+04  0.79491298677E+02 0.  0.
         24    2    4    4    0    0 -0.22126686341E+02  0.21963511331E+03  0.17035284713E+04  0.17196172541E+04  0.79655978238E+02 0.  0.
         11    1    3    3    0    0  0.62544824702E+01  0.66313530855E+01 -0.21800151126E+01  0.93726122616E+01  0.00000000000E+00 0. -1.
        -11    1    3    3    0    0  0.52091928366E+03  0.14223539638E+03  0.57137968271E+03  0.78616954271E+03  0.00000000000E+00 0.  1.
          4    1    6    6  502    0 -0.28423535677E+02  0.24752232342E+02  0.36895347969E+03  0.37087361805E+03  0.00000000000E+00 0. -1.
          1    1    5    5  503    0 -0.64949083527E+02 -0.22286734441E+02  0.86867937698E+02  0.11072994438E+03  0.00000000000E+00 0. -1.
         -2    1    5    5    0  503 -0.44009799626E+03 -0.34621512833E+03  0.93521297001E+03  0.10900341557E+04  0.00000000000E+00 0.  1.
         -3    1    6    6    0  502  0.62968493362E+01  0.19488288096E+03  0.13345749916E+04  0.13487436361E+04  0.00000000000E+00 0.  1.
<mgrwt>
<rscale>  0 0.17182319E+04</rscale>
<asrwt>0</asrwt>
<pdfrwt beam="1">  1        1 0.53928707E+00 0.17182319E+04</pdfrwt>
<pdfrwt beam="2">  1       -1 0.32393423E-01 0.17182319E+04</pdfrwt>
<totfact> 0.21113718E+00</totfact>
</mgrwt>
</event>
<event>
12    1  0.1536832E-007  0.1900685E+04  0.7818608E-02  0.8654515E-01
         -2   -1    0    0    0  501 -0.00000000000E+00  0.00000000000E+00  0.26943411536E+03  0.26943411536E+03  0.00000000000E+00 0. -1.
          2   -1    0    0  501    0  0.00000000000E+00 -0.00000000000E+00 -0.33520295341E+04  0.33520295341E+04  0.00000000000E+00 0.  1.
         23    2    1    2    0    0  0.41240614168E+03 -0.95599784913E+02 -0.23177317059E+04  0.23583099638E+04  0.10260351121E+03 0.  0.
        254    2    1    2    0    0 -0.41240614168E+03  0.95599784913E+02 -0.76486371288E+03  0.12631536857E+04  0.91176893439E+03 0.  0.
        -24    2    4    4    0    0 -0.10639380877E+03  0.13486981723E+03  0.18283164586E+03  0.26334898781E+03  0.80098492557E+02 0.  0.
         24    2    4    4    0    0 -0.30601233291E+03 -0.39270032316E+02 -0.94769535874E+03  0.99980469784E+03  0.79355261447E+02 0.  0.
         13    1    3    3    0    0  0.11191799934E+03 -0.98258138002E+01 -0.40822488350E+03  0.42340257522E+03  0.00000000000E+00 0. -1.
        -13    1    3    3    0    0  0.30048814234E+03 -0.85773971113E+02 -0.19095068224E+04  0.19349073886E+04  0.00000000000E+00 0.  1.
          4    1    6    6  502    0 -0.84961236998E+02  0.19808381878E+02 -0.20877680284E+03  0.22627093757E+03  0.00000000000E+00 0. -1.
          1    1    5    5  503    0 -0.88818638357E+02  0.61543674584E+02  0.74073064277E+02  0.13100837092E+03  0.00000000000E+00 0. -1.
         -2    1    5    5    0  503 -0.17575170411E+02  0.73326142645E+02  0.10875858158E+03  0.13234061688E+03  0.00000000000E+00 0.  1.
         -3    1    6    6    0  502 -0.22105109592E+03 -0.59078414194E+02 -0.73891855590E+03  0.77353376027E+03  0.00000000000E+00 0.  1.
<mgrwt>
<rscale>  0 0.19006853E+04</rscale>
<asrwt>0</asrwt>
<pdfrwt beam="1">  1        2 0.51569685E+00 0.19006853E+04</pdfrwt>
<pdfrwt beam="2">  1       -2 0.41451402E-01 0.19006853E+04</pdfrwt>
<totfact> 0.53364776E+00</totfact>
</mgrwt>
</event>
<event>
12    1  0.1536832E-007  0.1581077E+04  0.7818608E-02  0.8832258E-01
         -2   -1    0    0    0  501 -0.00000000000E+00  0.00000000000E+00  0.24707191615E+04  0.24707191615E+04  0.00000000000E+00 0.  1.
          2   -1    0    0  501    0  0.00000000000E+00 -0.00000000000E+00 -0.25294300444E+03  0.25294300444E+03  0.00000000000E+00 0. -1.
         23    2    1    2    0    0  0.11227074451E+03  0.29446464998E+03  0.15130867621E+04  0.15481519312E+04  0.89603025620E+02 0.  0.
        254    2    1    2    0    0 -0.11227074451E+03 -0.29446464998E+03  0.70468939500E+03  0.11755102348E+04  0.88652299381E+03 0.  0.
        -24    2    4    4    0    0 -0.34153427227E+03 -0.31433693478E+02  0.73655444454E+03  0.81648677493E+03  0.80650279912E+02 0.  0.
         24    2    4    4    0    0  0.22926352777E+03 -0.26303095650E+03 -0.31865049542E+02  0.35902345987E+03  0.78328884289E+02 0.  0.
         13    1    3    3    0    0  0.61245685842E+02  0.25383481867E+03  0.11521477218E+04  0.11813668025E+04  0.00000000000E+00 0.  1.
        -13    1    3    3    0    0  0.51025058665E+02  0.40629831308E+02  0.36093904025E+03  0.36678512862E+03  0.00000000000E+00 0. -1.
          4    1    6    6  502    0  0.56984198903E+02 -0.22684664995E+02  0.20751491714E+01  0.61368552163E+02  0.00000000000E+00 0. -1.
          3    1    5    5  503    0 -0.19798197204E+03 -0.49983359056E+02  0.37411042943E+03  0.42620864708E+03  0.00000000000E+00 0. -1.
         -2    1    5    5    0  503 -0.14355230023E+03  0.18549665578E+02  0.36244401511E+03  0.39027812786E+03  0.00000000000E+00 0.  1.
         -3    1    6    6    0  502  0.17227932886E+03 -0.24034629150E+03 -0.33940198713E+02  0.29765490771E+03  0.00000000000E+00 0.  1.
<mgrwt>
<rscale>  0 0.15810770E+04</rscale>
<asrwt>0</asrwt>
<pdfrwt beam="1">  1        2 0.38914310E-01 0.15810770E+04</pdfrwt>
<pdfrwt beam="2">  1       -2 0.38011062E+00 0.15810770E+04</pdfrwt>
<totfact> 0.12845554E+00</totfact>
</mgrwt>
</event>
<event>
12    1  0.1536832E-007  0.2088968E+04  0.7818608E-02  0.8566119E-01
         -2   -1    0    0    0  501 -0.00000000000E+00  0.00000000000E+00  0.70653278406E+03  0.70653278406E+03  0.00000000000E+00 0.  1.
          2   -1    0    0  501    0  0.00000000000E+00 -0.00000000000E+00 -0.15440855892E+04  0.15440855892E+04  0.00000000000E+00 0. -1.
         23    2    1    2    0    0 -0.29944837987E+03  0.55117886215E+03 -0.93021406773E+03  0.11256943535E+04  0.91771975139E+02 0.  0.
        254    2    1    2    0    0  0.29944837987E+03 -0.55117886215E+03  0.92661262563E+02  0.11249240198E+04  0.92919345157E+03 0.  0.
        -24    2    4    4    0    0  0.25659566525E+03 -0.12451419037E+03  0.46489761627E+03  0.55140949670E+03  0.81101913671E+02 0.  0.
         24    2    4    4    0    0  0.42852714618E+02 -0.42666467178E+03 -0.37223635371E+03  0.57351452310E+03  0.80497875062E+02 0.  0.
         11    1    3    3    0    0 -0.22078255874E+03  0.44602214228E+03 -0.78906438755E+03  0.93290047559E+03  0.00000000000E+00 0. -1.
        -11    1    3    3    0    0 -0.78665821132E+02  0.10515671987E+03 -0.14114968018E+03  0.19279387792E+03  0.00000000000E+00 0.  1.
          4    1    6    6  502    0  0.40668033629E+02 -0.14269124811E+03 -0.16536814680E+03  0.22217404264E+03  0.00000000000E+00 0. -1.
          3    1    5    5  503    0  0.15335270992E+03 -0.37998324009E+02  0.20645359820E+03  0.25996925679E+03  0.00000000000E+00 0. -1.
         -4    1    5    5    0  503  0.10324295533E+03 -0.86515866365E+02  0.25844401807E+03  0.29144023990E+03  0.00000000000E+00 0.  1.
         -3    1    6    6    0  502  0.21846809887E+01 -0.28397342366E+03 -0.20686820691E+03  0.35134048046E+03  0.00000000000E+00 0.  1.
<mgrwt>
<rscale>  0 0.20889683E+04</rscale>
<asrwt>0</asrwt>
<pdfrwt beam="1">  1        2 0.23755163E+00 0.20889683E+04</pdfrwt>
<pdfrwt beam="2">  1       -2 0.10869735E+00 0.20889683E+04</pdfrwt>
<totfact> 0.74782531E+00</totfact>
</mgrwt>
</event>
<event>
12    1  0.1536832E-007  0.1396323E+04  0.7818608E-02  0.8956485E-01
          2   -1    0    0  501    0  0.00000000000E+00  0.00000000000E+00  0.13283025378E+04  0.13283025378E+04  0.00000000000E+00 0. -1.
         -2   -1    0    0    0  501 -0.00000000000E+00 -0.00000000000E+00 -0.36695660658E+03  0.36695660658E+03  0.00000000000E+00 0.  1.
         23    2    1    2    0    0 -0.12886232845E+03 -0.30793546476E+03  0.33717672612E+01  0.34593940776E+03  0.90735631799E+02 0.  0.
        254    2    1    2    0    0  0.12886232845E+03  0.30793546476E+03  0.95797416399E+03  0.13493197366E+04  0.88967381813E+03 0.  0.
        -24    2    4    4    0    0 -0.19796811741E+03 -0.18907325452E+03  0.10066700794E+03  0.30277426828E+03  0.81230166569E+02 0.  0.
         24    2    4    4    0    0  0.32683044587E+03  0.49700871928E+03  0.85730715605E+03  0.10465454684E+04  0.80287297474E+02 0.  0.
         13    1    3    3    0    0 -0.10036839927E+03 -0.28872858420E+03 -0.16720954160E+02  0.30613330629E+03  0.00000000000E+00 0.  1.
        -13    1    3    3    0    0 -0.28493929179E+02 -0.19206880555E+02  0.20092721421E+02  0.39806101477E+02  0.00000000000E+00 0. -1.
          2    1    6    6  502    0  0.12917184198E+02  0.32286832143E+02  0.87207640833E+02  0.93885386493E+02  0.00000000000E+00 0. -1.
          1    1    5    5  503    0 -0.16889901654E+02 -0.21851649681E+02 -0.13957804979E+02  0.30944849192E+02  0.00000000000E+00 0. -1.
         -2    1    5    5    0  503 -0.18107821576E+03 -0.16722160484E+03  0.11462481292E+03  0.27182941909E+03  0.00000000000E+00 0.  1.
         -1    1    6    6    0  502  0.31391326167E+03  0.46472188714E+03  0.77009951521E+03  0.95266008186E+03  0.00000000000E+00 0.  1.
<mgrwt>
<rscale>  0 0.13963229E+04</rscale>
<asrwt>0</asrwt>
<pdfrwt beam="1">  1        2 0.20435423E+00 0.13963229E+04</pdfrwt>
<pdfrwt beam="2">  1       -2 0.56454863E-01 0.13963229E+04</pdfrwt>
<totfact> 0.45613661E+01</totfact>
</mgrwt>
</event>
<event>
12    1  0.1536832E-007  0.2822551E+04  0.7818608E-02  0.8296301E-01
         -2   -1    0    0    0  501 -0.00000000000E+00  0.00000000000E+00  0.16823783806E+04  0.16823783806E+04  0.00000000000E+00 0.  1.
          2   -1    0    0  501    0  0.00000000000E+00 -0.00000000000E+00 -0.11838592626E+04  0.11838592626E+04  0.00000000000E+00 0. -1.
         23    2    1    2    0    0 -0.81481314065E+03  0.66950785772E+03 -0.48488226965E+03  0.11645920888E+04  0.94882517292E+02 0.  0.
        254    2    1    2    0    0  0.81481314065E+03 -0.66950785772E+03  0.98340138770E+03  0.17016455544E+04  0.90352536097E+03 0.  0.
        -24    2    4    4    0    0 -0.91355009430E+02 -0.14415143711E+03  0.52113336502E+03  0.55418713026E+03  0.80112524868E+02 0.  0.
         24    2    4    4    0    0  0.90616815008E+03 -0.52535642061E+03  0.46226802268E+03  0.11474584242E+04  0.76348055326E+02 0.  0.
         13    1    3    3    0    0 -0.46378283322E+03  0.40400191776E+03 -0.32998924816E+03  0.69800069473E+03  0.00000000000E+00 0.  1.
        -13    1    3    3    0    0 -0.35103030742E+03  0.26550593996E+03 -0.15489302149E+03  0.46659139404E+03  0.00000000000E+00 0. -1.
          2    1    6    6  502    0  0.44373382427E+03 -0.25753608150E+03  0.26814963705E+03  0.57890307300E+03  0.00000000000E+00 0. -1.
          1    1    5    5  503    0  0.11034241065E+02 -0.21074144127E+02  0.34591127918E+02  0.41981188135E+02  0.00000000000E+00 0. -1.
         -2    1    5    5    0  503 -0.10238925049E+03 -0.12307729299E+03  0.48654223711E+03  0.51220594213E+03  0.00000000000E+00 0.  1.
         -1    1    6    6    0  502  0.46243432580E+03 -0.26782033911E+03  0.19411838563E+03  0.56855535119E+03  0.00000000000E+00 0.  1.
<mgrwt>
<rscale>  0 0.28225515E+04</rscale>
<asrwt>0</asrwt>
<pdfrwt beam="1">  1        2 0.18213219E+00 0.28225515E+04</pdfrwt>
<pdfrwt beam="2">  1       -2 0.25882744E+00 0.28225515E+04</pdfrwt>
<totfact> 0.95417231E-01</totfact>
</mgrwt>
</event>
<event>
12    1  0.1536832E-007  0.1391299E+04  0.7818608E-02  0.8960141E-01
          4   -1    0    0  501    0  0.00000000000E+00  0.00000000000E+00  0.19877763420E+04  0.19877763420E+04  0.00000000000E+00 0. -1.
         -4   -1    0    0    0  501 -0.00000000000E+00 -0.00000000000E+00 -0.24345196334E+03  0.24345196334E+03  0.00000000000E+00 0.  1.
         23    2    1    2    0    0 -0.13451456087E+03 -0.25044886663E+03  0.60985179600E+02  0.30454160183E+03  0.90595768301E+02 0.  0.
        254    2    1    2    0    0  0.13451456087E+03  0.25044886663E+03  0.16833391990E+04  0.19266867035E+04  0.89312484711E+03 0.  0.
        -24    2    4    4    0    0  0.10806754358E+03 -0.32711334292E+03  0.64931483564E+03  0.73925498979E+03  0.78781032344E+02 0.  0.
         24    2    4    4    0    0  0.26447017286E+02  0.57756220954E+03  0.10340243634E+04  0.11874317137E+04  0.80685438583E+02 0.  0.
         11    1    3    3    0    0 -0.11623983502E+03 -0.25405945281E+03  0.60726103148E+02  0.28591181230E+03  0.00000000000E+00 0.  1.
        -11    1    3    3    0    0 -0.18274725846E+02  0.36105861846E+01  0.25907645146E+00  0.18629789530E+02  0.00000000000E+00 0. -1.
          2    1    6    6  502    0  0.13625923550E+02  0.52604155283E+03  0.88992138994E+03  0.10338594979E+04  0.00000000000E+00 0. -1.
          1    1    5    5  503    0  0.55198664444E+02 -0.12129568482E+03  0.32789020766E+03  0.35393717520E+03  0.00000000000E+00 0. -1.
         -2    1    5    5    0  503  0.52868879140E+02 -0.20581765809E+03  0.32142462798E+03  0.38531781459E+03  0.00000000000E+00 0.  1.
         -1    1    6    6    0  502  0.12821093736E+02  0.51520656714E+02  0.14410297345E+03  0.15357221581E+03  0.00000000000E+00 0.  1.
<mgrwt>
<rscale>  0 0.13912988E+04</rscale>
<asrwt>0</asrwt>
<pdfrwt beam="1">  1        4 0.30581173E+00 0.13912988E+04</pdfrwt>
<pdfrwt beam="2">  1       -4 0.37454149E-01 0.13912988E+04</pdfrwt>
<totfact> 0.38828538E-01</totfact>
</mgrwt>
</event>
<event>
12    1  0.1536832E-007  0.1638219E+04  0.7818608E-02  0.8797406E-01
         -1   -1    0    0    0  501 -0.00000000000E+00  0.00000000000E+00  0.64374033176E+03  0.64374033176E+03  0.00000000000E+00 0.  1.
          1   -1    0    0  501    0  0.00000000000E+00 -0.00000000000E+00 -0.10422535514E+04  0.10422535514E+04  0.00000000000E+00 0. -1.
         23    2    1    2    0    0  0.40841326635E+03 -0.29049261585E+03  0.13539309065E+03  0.52714861812E+03  0.91471419540E+02 0.  0.
        254    2    1    2    0    0 -0.40841326635E+03  0.29049261585E+03 -0.53390631025E+03  0.11588452650E+04  0.89815312953E+03 0.  0.
        -24    2    4    4    0    0 -0.25958589587E+01  0.53678053131E+03 -0.33745152889E+03  0.63902513875E+03  0.79621079714E+02 0.  0.
         24    2    4    4    0    0 -0.40581740739E+03 -0.24628791545E+03 -0.19645478137E+03  0.51982012625E+03  0.79202128079E+02 0.  0.
         13    1    3    3    0    0  0.14238619987E+02 -0.24462019690E+02 -0.97621927546E+01  0.29940426080E+02  0.00000000000E+00 0. -1.
        -13    1    3    3    0    0  0.39417464636E+03 -0.26603059616E+03  0.14515528341E+03  0.49720819204E+03  0.00000000000E+00 0.  1.
          4    1    6    6  502    0 -0.31951818380E+03 -0.17269959061E+03 -0.17952354838E+03  0.40514901308E+03  0.00000000000E+00 0. -1.
          1    1    5    5  503    0  0.52616709759E+01  0.52744942969E+03 -0.31755894318E+03  0.61569007500E+03  0.00000000000E+00 0. -1.
         -2    1    5    5    0  503 -0.78575299346E+01  0.93311016135E+01 -0.19892585707E+02  0.23335063747E+02  0.00000000000E+00 0.  1.
         -3    1    6    6    0  502 -0.86299223592E+02 -0.73588324838E+02 -0.16931232987E+02  0.11467111317E+03  0.00000000000E+00 0.  1.
<mgrwt>
<rscale>  0 0.16382193E+04</rscale>
<asrwt>0</asrwt>
<pdfrwt beam="1">  1        1 0.16034670E+00 0.16382193E+04</pdfrwt>
<pdfrwt beam="2">  1       -1 0.99036976E-01 0.16382193E+04</pdfrwt>
<totfact> 0.13079850E+01</totfact>
</mgrwt>
</event>
<event>
12    1  0.1536832E-007  0.2429759E+04  0.7818608E-02  0.8428445E-01
          2   -1    0    0  501    0  0.00000000000E+00  0.00000000000E+00  0.66513463487E+03  0.66513463487E+03  0.00000000000E+00 0. -1.
         -2   -1    0    0    0  501 -0.00000000000E+00 -0.00000000000E+00 -0.22189981921E+04  0.22189981921E+04  0.00000000000E+00 0.  1.
         23    2    1    2    0    0  0.79865801330E+03  0.15350119836E+03  0.12294367770E+03  0.82752146488E+03  0.90881168805E+02 0.  0.
        254    2    1    2    0    0 -0.79865801330E+03 -0.15350119836E+03 -0.16768072349E+04  0.20566113621E+04  0.86979914433E+03 0.  0.
        -24    2    4    4    0    0 -0.51134993016E+03 -0.47190369711E+03 -0.13152011465E+04  0.14900840561E+04  0.80153528814E+02 0.  0.
         24    2    4    4    0    0 -0.28730808314E+03  0.31840249875E+03 -0.36160608841E+03  0.56652730593E+03  0.79171581698E+02 0.  0.
         11    1    3    3    0    0  0.67129529972E+03  0.11303109114E+03  0.13258582498E+03  0.69353616198E+03  0.00000000000E+00 0. -1.
        -11    1    3    3    0    0  0.12736271357E+03  0.40470107220E+02 -0.96421472725E+01  0.13398530289E+03  0.00000000000E+00 0.  1.
          4    1    6    6  502    0 -0.73913316361E+02  0.12870534067E+03 -0.97440731853E+02  0.17754700582E+03  0.00000000000E+00 0. -1.
          3    1    5    5  503    0 -0.24096993413E+03 -0.27538252857E+03 -0.66762753834E+03  0.76133341983E+03  0.00000000000E+00 0. -1.
         -4    1    5    5    0  503 -0.27037999603E+03 -0.19652116854E+03 -0.64757360815E+03  0.72875063630E+03  0.00000000000E+00 0.  1.
         -3    1    6    6    0  502 -0.21339476677E+03  0.18969715808E+03 -0.26416535655E+03  0.38898030011E+03  0.00000000000E+00 0.  1.
<mgrwt>
<rscale>  0 0.24297593E+04</rscale>
<asrwt>0</asrwt>
<pdfrwt beam="1">  1        2 0.10232840E+00 0.24297593E+04</pdfrwt>
<pdfrwt beam="2">  1       -2 0.34138435E+00 0.24297593E+04</pdfrwt>
<totfact> 0.69125007E-01</totfact>
</mgrwt>
</event>
<event>
12    1  0.1536832E-007  0.1948313E+04  0.7818608E-02  0.8631175E-01
         -1   -1    0    0    0  501 -0.00000000000E+00  0.00000000000E+00  0.66630385127E+03  0.66630385127E+03  0.00000000000E+00 0.  1.
          1   -1    0    0  501    0  0.00000000000E+00 -0.00000000000E+00 -0.14242458368E+04  0.14242458368E+04  0.00000000000E+00 0. -1.
         23    2    1    2    0    0 -0.38981526821E+03  0.31572193995E+03 -0.91556174185E+03  0.10479793246E+04  0.91493578906E+02 0.  0.
        254    2    1    2    0    0  0.38981526821E+03 -0.31572193995E+03  0.15761975627E+03  0.10425703635E+04  0.90026256646E+03 0.  0.
        -24    2    4    4    0    0  0.27103684353E+03  0.25344776010E+03  0.24120635208E+03  0.44969496350E+03  0.79676334395E+02 0.  0.
         24    2    4    4    0    0  0.11877842468E+03 -0.56916970005E+03 -0.83586595805E+02  0.59287539999E+03  0.80324711549E+02 0.  0.
         13    1    3    3    0    0 -0.23588418247E+03  0.13288099714E+03 -0.49944704360E+03  0.56810743377E+03  0.00000000000E+00 0.  1.
        -13    1    3    3    0    0 -0.15393108574E+03  0.18284094281E+03 -0.41611469825E+03  0.47987189085E+03  0.00000000000E+00 0. -1.
          2    1    6    6  502    0  0.23398620383E+02 -0.15274632616E+03 -0.57477311765E+02  0.16487139521E+03  0.00000000000E+00 0. -1.
          3    1    5    5  503    0  0.55291283593E+02  0.10170713425E+03  0.72608094584E+02  0.13665065897E+03  0.00000000000E+00 0. -1.
         -4    1    5    5    0  503  0.21574555994E+03  0.15174062585E+03  0.16859825749E+03  0.31304430453E+03  0.00000000000E+00 0.  1.
         -1    1    6    6    0  502  0.95379804298E+02 -0.41642337389E+03 -0.26109284040E+02  0.42800400478E+03  0.00000000000E+00 0.  1.
<mgrwt>
<rscale>  0 0.19483126E+04</rscale>
<asrwt>0</asrwt>
<pdfrwt beam="1">  1        1 0.21911474E+00 0.19483126E+04</pdfrwt>
<pdfrwt beam="2">  1       -1 0.10250828E+00 0.19483126E+04</pdfrwt>
<totfact> 0.61967171E+00</totfact>
</mgrwt>
</event>
<event>
12    1  0.1536832E-007  0.2434908E+04  0.7818608E-02  0.8426549E-01
          2   -1    0    0  501    0  0.00000000000E+00  0.00000000000E+00  0.15145505549E+04  0.15145505549E+04  0.00000000000E+00 0.  1.
         -2   -1    0    0    0  501 -0.00000000000E+00 -0.00000000000E+00 -0.97863643457E+03  0.97863643457E+03  0.00000000000E+00 0. -1.
         23    2    1    2    0    0  0.71880897511E+03  0.52204690577E+02  0.10149678421E+04  0.12477339460E+04  0.85256126515E+02 0.  0.
        254    2    1    2    0    0 -0.71880897511E+03 -0.52204690577E+02 -0.47905372177E+03  0.12454530435E+04  0.89568361753E+03 0.  0.
        -24    2    4    4    0    0 -0.18115357655E+03 -0.20119368801E+03 -0.60547914534E+03  0.66801966377E+03  0.79685364662E+02 0.  0.
         24    2    4    4    0    0 -0.53765539856E+03  0.14898899744E+03  0.12642542358E+03  0.57743337970E+03  0.78580349314E+02 0.  0.
         13    1    3    3    0    0  0.58982739577E+03  0.67749225971E+02  0.79432247733E+03  0.99168266719E+03  0.00000000000E+00 0.  1.
        -13    1    3    3    0    0  0.12898157934E+03 -0.15544535393E+02  0.22064536473E+03  0.25605127878E+03  0.00000000000E+00 0. -1.
          4    1    6    6  502    0 -0.29944081616E+01 -0.54198411911E+01  0.46787411870E+01  0.77609134688E+01  0.00000000000E+00 0. -1.
          1    1    5    5  503    0 -0.99582416291E+02 -0.16388171261E+03 -0.38924811279E+03  0.43392161352E+03  0.00000000000E+00 0. -1.
         -2    1    5    5    0  503 -0.81571160255E+02 -0.37311975403E+02 -0.21623103255E+03  0.23409805025E+03  0.00000000000E+00 0.  1.
         -3    1    6    6    0  502 -0.53466099040E+03  0.15440883863E+03  0.12174668239E+03  0.56967246623E+03  0.00000000000E+00 0.  1.
<mgrwt>
<rscale>  0 0.24349081E+04</rscale>
<asrwt>0</asrwt>
<pdfrwt beam="1">  1        2 0.23300778E+00 0.24349081E+04</pdfrwt>
<pdfrwt beam="2">  1       -2 0.15055945E+00 0.24349081E+04</pdfrwt>
<totfact> 0.33139867E+00</totfact>
</mgrwt>
</event>
<event>
12    1  0.1536832E-007  0.1344794E+04  0.7818608E-02  0.8994778E-01
         -2   -1    0    0    0  501 -0.00000000000E+00  0.00000000000E+00  0.21714844575E+03  0.21714844575E+03  0.00000000000E+00 0.  1.
          2   -1    0    0  501    0  0.00000000000E+00 -0.00000000000E+00 -0.20820688978E+04  0.20820688978E+04  0.00000000000E+00 0. -1.
         23    2    1    2    0    0  0.16203760142E+03  0.21677963902E+02  0.45018666397E+02  0.19254363281E+03  0.91215414376E+02 0.  0.
        254    2    1    2    0    0 -0.16203760142E+03 -0.21677963902E+02 -0.19099391185E+04  0.21066737108E+04  0.87377375159E+03 0.  0.
        -24    2    4    4    0    0 -0.11758508640E+03 -0.33607783598E+02  0.40752975607E+02  0.15378852730E+03  0.83871153844E+02 0.  0.
         24    2    4    4    0    0 -0.44452515023E+02  0.11929819696E+02 -0.19506920941E+04  0.19528851835E+04  0.80265479588E+02 0.  0.
         13    1    3    3    0    0 -0.14144621985E+01  0.12249939108E+02 -0.13862833985E+02  0.18553702530E+02  0.00000000000E+00 0. -1.
        -13    1    3    3    0    0  0.16345206362E+03  0.94280247938E+01  0.58881500383E+02  0.17398993028E+03  0.00000000000E+00 0.  1.
          4    1    6    6  502    0 -0.50236773336E+02  0.14937217797E+02 -0.19371161464E+04  0.19378250227E+04  0.00000000000E+00 0. -1.
          1    1    5    5  503    0 -0.21919485895E+02 -0.45526314844E+02  0.42601848328E+01  0.50707577145E+02  0.00000000000E+00 0. -1.
         -2    1    5    5    0  503 -0.95665600502E+02  0.11918531245E+02  0.36492790774E+02  0.10308095016E+03  0.00000000000E+00 0.  1.
         -3    1    6    6    0  502  0.57842583127E+01 -0.30073981008E+01 -0.13575947656E+02  0.15060160766E+02  0.00000000000E+00 0.  1.
<mgrwt>
<rscale>  0 0.13447944E+04</rscale>
<asrwt>0</asrwt>
<pdfrwt beam="1">  1        2 0.32031830E+00 0.13447944E+04</pdfrwt>
<pdfrwt beam="2">  1       -2 0.33407452E-01 0.13447944E+04</pdfrwt>
<totfact> 0.49251273E+01</totfact>
</mgrwt>
</event>
<event>
12    1  0.1536832E-007  0.2732378E+04  0.7818608E-02  0.8324575E-01
          1   -1    0    0  501    0  0.00000000000E+00  0.00000000000E+00  0.64232577993E+03  0.64232577993E+03  0.00000000000E+00 0. -1.
         -1   -1    0    0    0  501 -0.00000000000E+00 -0.00000000000E+00 -0.29058030109E+04  0.29058030109E+04  0.00000000000E+00 0.  1.
         23    2    1    2    0    0 -0.83891975128E+03  0.72000103746E+03 -0.34663959535E+03  0.11618711251E+04  0.87164552778E+02 0.  0.
        254    2    1    2    0    0  0.83891975128E+03 -0.72000103746E+03 -0.19168376356E+04  0.23862576657E+04  0.89318043132E+03 0.  0.
        -24    2    4    4    0    0 -0.16591372023E+03 -0.15783988271E+03 -0.52495175389E+03  0.57810997747E+03  0.78714744562E+02 0.  0.
         24    2    4    4    0    0  0.10048334715E+04 -0.56216115475E+03 -0.13918858817E+04  0.18081476882E+04  0.79600787616E+02 0.  0.
         11    1    3    3    0    0 -0.15323603967E+03  0.13958719869E+03 -0.30507165309E+02  0.20951505203E+03  0.00000000000E+00 0.  1.
        -11    1    3    3    0    0 -0.68568371161E+03  0.58041383877E+03 -0.31613243004E+03  0.95235607308E+03  0.00000000000E+00 0. -1.
          4    1    6    6  502    0  0.60933250438E+03 -0.29741997396E+03 -0.83312770131E+03  0.10741724761E+04  0.00000000000E+00 0. -1.
          1    1    5    5  503    0 -0.55115743263E+02 -0.71520536889E+02 -0.12490919359E+03  0.15412734668E+03  0.00000000000E+00 0. -1.
         -2    1    5    5    0  503 -0.11079797697E+03 -0.86319345818E+02 -0.40004256030E+03  0.42398263079E+03  0.00000000000E+00 0.  1.
         -3    1    6    6    0  502  0.39550096713E+03 -0.26474118080E+03 -0.55875818040E+03  0.73397521210E+03  0.00000000000E+00 0.  1.
<mgrwt>
<rscale>  0 0.27323779E+04</rscale>
<asrwt>0</asrwt>
<pdfrwt beam="1">  1        1 0.98819351E-01 0.27323779E+04</pdfrwt>
<pdfrwt beam="2">  1       -1 0.44704662E+00 0.27323779E+04</pdfrwt>
<totfact> 0.91434482E-02</totfact>
</mgrwt>
</event>
<event>
12    1  0.1536832E-007  0.2190907E+04  0.7818608E-02  0.8522223E-01
         -2   -1    0    0    0  501 -0.00000000000E+00  0.00000000000E+00  0.39733281654E+03  0.39733281654E+03  0.00000000000E+00 0.  1.
          2   -1    0    0  501    0  0.00000000000E+00 -0.00000000000E+00 -0.30201833582E+04  0.30201833582E+04  0.00000000000E+00 0. -1.
         23    2    1    2    0    0 -0.54356907290E+03 -0.52268541250E+03 -0.29240109080E+03  0.81372248529E+03  0.89322492740E+02 0.  0.
        254    2    1    2    0    0  0.54356907290E+03  0.52268541250E+03 -0.23304494508E+04  0.26037936894E+04  0.88322112564E+03 0.  0.
        -24    2    4    4    0    0  0.30950248159E+03  0.49769205229E+03 -0.22741320748E+04  0.23497808311E+04  0.79398336380E+02 0.  0.
         24    2    4    4    0    0  0.23406659132E+03  0.24993360212E+02 -0.56317376034E+02  0.25401285828E+03  0.77065219794E+02 0.  0.
         13    1    3    3    0    0 -0.87187403726E+01 -0.18308306497E+02 -0.23225979869E+02  0.30832720629E+02  0.00000000000E+00 0. -1.
        -13    1    3    3    0    0 -0.53485033253E+03 -0.50437710600E+03 -0.26917511093E+03  0.78288976466E+03  0.00000000000E+00 0.  1.
          2    1    6    6  502    0  0.14066445094E+03  0.46632786641E+01  0.43291528556E+01  0.14080829340E+03  0.00000000000E+00 0. -1.
          3    1    5    5  503    0  0.23498480419E+03  0.31896697948E+03 -0.16069592507E+04  0.16550757764E+04  0.00000000000E+00 0. -1.
         -4    1    5    5    0  503  0.74517677398E+02  0.17872507281E+03 -0.66717282411E+03  0.69470505477E+03  0.00000000000E+00 0.  1.
         -1    1    6    6    0  502  0.93402140380E+02  0.20330081548E+02 -0.60646528890E+02  0.11320456488E+03  0.00000000000E+00 0.  1.
<mgrwt>
<rscale>  0 0.21909066E+04</rscale>
<asrwt>0</asrwt>
<pdfrwt beam="1">  1        2 0.46464359E+00 0.21909066E+04</pdfrwt>
<pdfrwt beam="2">  1       -2 0.61128127E-01 0.21909066E+04</pdfrwt>
<totfact> 0.38561799E+00</totfact>
</mgrwt>
</event>
<event>
12    1  0.1536832E-007  0.1398592E+04  0.7818608E-02  0.8954839E-01
         -2   -1    0    0    0  501 -0.00000000000E+00  0.00000000000E+00  0.57449235384E+03  0.57449235384E+03  0.00000000000E+00 0. -1.
          2   -1    0    0  501    0  0.00000000000E+00 -0.00000000000E+00 -0.85121193648E+03  0.85121193648E+03  0.00000000000E+00 0.  1.
         23    2    1    2    0    0 -0.25345132190E+03  0.22677184662E+03  0.13973724305E+03  0.37892749941E+03  0.91632470862E+02 0.  0.
        254    2    1    2    0    0  0.25345132190E+03 -0.22677184662E+03 -0.41645682569E+03  0.10467767909E+04  0.89813268470E+03 0.  0.
        -24    2    4    4    0    0 -0.68420900611E+02 -0.13142840969E+03 -0.62270176127E+03  0.64493474283E+03  0.78920798941E+02 0.  0.
         24    2    4    4    0    0  0.32187222251E+03 -0.95343436934E+02  0.20624493558E+03  0.40184204807E+03  0.79044035551E+02 0.  0.
         11    1    3    3    0    0 -0.16342393506E+03  0.11953976463E+03  0.38392185922E+02  0.20608517128E+03  0.00000000000E+00 0. -1.
        -11    1    3    3    0    0 -0.90027386836E+02  0.10723208199E+03  0.10134505713E+03  0.17284232813E+03  0.00000000000E+00 0.  1.
          2    1    6    6  502    0  0.14798129072E+03 -0.47516654138E+01  0.75720555665E+02  0.16629685288E+03  0.00000000000E+00 0. -1.
          1    1    5    5  503    0 -0.57441121001E+02 -0.53889757629E+02 -0.19832064325E+03  0.21338853272E+03  0.00000000000E+00 0. -1.
         -2    1    5    5    0  503 -0.10979779609E+02 -0.77538652058E+02 -0.42438111802E+03  0.43154621011E+03  0.00000000000E+00 0.  1.
         -1    1    6    6    0  502  0.17389093179E+03 -0.90591771521E+02  0.13052437992E+03  0.23554519520E+03  0.00000000000E+00 0.  1.
<mgrwt>
<rscale>  0 0.13985918E+04</rscale>
<asrwt>0</asrwt>
<pdfrwt beam="1">  1        2 0.13095568E+00 0.13985918E+04</pdfrwt>
<pdfrwt beam="2">  1       -2 0.88383439E-01 0.13985918E+04</pdfrwt>
<totfact> 0.33987269E+01</totfact>
</mgrwt>
</event>
<event>
12    1  0.1536832E-007  0.1787927E+04  0.7818608E-02  0.8712746E-01
         -1   -1    0    0    0  501 -0.00000000000E+00  0.00000000000E+00  0.24767316293E+03  0.24767316293E+03  0.00000000000E+00 0.  1.
          1   -1    0    0  501    0  0.00000000000E+00 -0.00000000000E+00 -0.32267141376E+04  0.32267141376E+04  0.00000000000E+00 0. -1.
         23    2    1    2    0    0 -0.45181095824E+03 -0.26007101063E+03 -0.19013718278E+04  0.19736224455E+04  0.90557479858E+02 0.  0.
        254    2    1    2    0    0  0.45181095824E+03  0.26007101063E+03 -0.10776691468E+04  0.15007648550E+04  0.90507142671E+03 0.  0.
        -24    2    4    4    0    0  0.61006979763E+03  0.45470319488E+03 -0.67898258482E+03  0.10228873178E+04  0.79630151759E+02 0.  0.
         24    2    4    4    0    0 -0.15825883939E+03 -0.19463218426E+03 -0.39868656197E+03  0.47787753715E+03  0.80550719599E+02 0.  0.
         13    1    3    3    0    0 -0.31716111087E+03 -0.14196981071E+03 -0.13431808736E+04  0.13874009718E+04  0.00000000000E+00 0. -1.
        -13    1    3    3    0    0 -0.13464984737E+03 -0.11810119992E+03 -0.55819095421E+03  0.58622147366E+03  0.00000000000E+00 0.  1.
          4    1    6    6  502    0 -0.16704537887E+03 -0.17483967004E+03 -0.36542119781E+03  0.43818457370E+03  0.00000000000E+00 0. -1.
          1    1    5    5  503    0  0.40401198635E+03  0.28952927804E+03 -0.49149809345E+03  0.69901592530E+03  0.00000000000E+00 0. -1.
         -2    1    5    5    0  503  0.20605781128E+03  0.16517391684E+03 -0.18748449136E+03  0.32387139252E+03  0.00000000000E+00 0.  1.
         -3    1    6    6    0  502  0.87865394786E+01 -0.19792514213E+02 -0.33265364157E+02  0.39692963449E+02  0.00000000000E+00 0.  1.
<mgrwt>
<rscale>  0 0.17879267E+04</rscale>
<asrwt>0</asrwt>
<pdfrwt beam="1">  1        1 0.49641751E+00 0.17879267E+04</pdfrwt>
<pdfrwt beam="2">  1       -1 0.38103567E-01 0.17879267E+04</pdfrwt>
<totfact> 0.25634067E+00</totfact>
</mgrwt>
</event>
<event>
12    1  0.1536832E-007  0.1781047E+04  0.7818608E-02  0.8716444E-01
         -2   -1    0    0    0  501 -0.00000000000E+00  0.00000000000E+00  0.56176122826E+03  0.56176122826E+03  0.00000000000E+00 0.  1.
          2   -1    0    0  501    0  0.00000000000E+00 -0.00000000000E+00 -0.14116885803E+04  0.14116885803E+04  0.00000000000E+00 0. -1.
         23    2    1    2    0    0  0.14183790386E+03 -0.52372629980E+03  0.10006945556E+03  0.55898668340E+03  0.89693858239E+02 0.  0.
        254    2    1    2    0    0 -0.14183790386E+03  0.52372629980E+03 -0.94999680766E+03  0.14144631252E+04  0.89655159915E+03 0.  0.
        -24    2    4    4    0    0 -0.32899097533E+02  0.56432788484E+01  0.16069082169E+03  0.18144627400E+03  0.77375790519E+02 0.  0.
         24    2    4    4    0    0 -0.10893880633E+03  0.51808302095E+03 -0.11106876293E+04  0.12330168512E+04  0.80161494887E+02 0.  0.
         13    1    3    3    0    0  0.80057023817E+02 -0.43099325294E+03  0.85235663827E+02  0.44657522270E+03  0.00000000000E+00 0.  1.
        -13    1    3    3    0    0  0.61780880043E+02 -0.92733046861E+02  0.14833791736E+02  0.11241146070E+03  0.00000000000E+00 0. -1.
          4    1    6    6  502    0 -0.27685094714E+02  0.15378393106E+03 -0.24906117659E+03  0.29401944087E+03  0.00000000000E+00 0. -1.
          1    1    5    5  503    0 -0.17493690458E+02 -0.32339950819E+02  0.11155918047E+03  0.11746213165E+03  0.00000000000E+00 0. -1.
         -2    1    5    5    0  503 -0.15405407076E+02  0.37983229668E+02  0.49131641218E+02  0.63984142348E+02  0.00000000000E+00 0.  1.
         -3    1    6    6    0  502 -0.81253711613E+02  0.36429908989E+03 -0.86162645275E+03  0.93899741034E+03  0.00000000000E+00 0.  1.
<mgrwt>
<rscale>  0 0.17810468E+04</rscale>
<asrwt>0</asrwt>
<pdfrwt beam="1">  1        2 0.21718286E+00 0.17810468E+04</pdfrwt>
<pdfrwt beam="2">  1       -2 0.86424804E-01 0.17810468E+04</pdfrwt>
<totfact> 0.15629549E+01</totfact>
</mgrwt>
</event>
<event>
12    1  0.1536832E-007  0.1803311E+04  0.7818608E-02  0.8704541E-01
          1   -1    0    0  501    0  0.00000000000E+00  0.00000000000E+00  0.24542557145E+04  0.24542557145E+04  0.00000000000E+00 0. -1.
         -1   -1    0    0    0  501 -0.00000000000E+00 -0.00000000000E+00 -0.33125420515E+03  0.33125420515E+03  0.00000000000E+00 0.  1.
         23    2    1    2    0    0 -0.24909300957E+03 -0.39250369611E+03  0.15675986769E+04  0.16374950920E+04  0.88983625757E+02 0.  0.
        254    2    1    2    0    0  0.24909300957E+03  0.39250369611E+03  0.55540283250E+03  0.11480148277E+04  0.89070716814E+03 0.  0.
        -24    2    4    4    0    0  0.45319564399E+03 -0.79890399143E+02  0.15624084506E+03  0.49245397654E+03  0.79567265511E+02 0.  0.
         24    2    4    4    0    0 -0.20410263442E+03  0.47239409525E+03  0.39916198744E+03  0.65556085115E+03  0.74937779101E+02 0.  0.
         11    1    3    3    0    0 -0.22705461371E+03 -0.28976208241E+03  0.12047028621E+04  0.12596923624E+04  0.00000000000E+00 0. -1.
        -11    1    3    3    0    0 -0.22038395863E+02 -0.10274161370E+03  0.36289581483E+03  0.37780272961E+03  0.00000000000E+00 0.  1.
          4    1    6    6  502    0 -0.16058406283E+03  0.37008480725E+03  0.27150830214E+03  0.48627848392E+03  0.00000000000E+00 0. -1.
          1    1    5    5  503    0  0.19189012505E+03 -0.14252812397E+02  0.29347086093E+02  0.19464381371E+03  0.00000000000E+00 0. -1.
         -2    1    5    5    0  503  0.26130551894E+03 -0.65637586746E+02  0.12689375897E+03  0.29781016283E+03  0.00000000000E+00 0.  1.
         -3    1    6    6    0  502 -0.43518571593E+02  0.10230928801E+03  0.12765368530E+03  0.16928236723E+03  0.00000000000E+00 0.  1.
<mgrwt>
<rscale>  0 0.18033109E+04</rscale>
<asrwt>0</asrwt>
<pdfrwt beam="1">  1        1 0.37757779E+00 0.18033109E+04</pdfrwt>
<pdfrwt beam="2">  1       -1 0.50962187E-01 0.18033109E+04</pdfrwt>
<totfact> 0.53259686E+00</totfact>
</mgrwt>
</event>
<event>
12    1  0.1536832E-007  0.1548543E+04  0.7818608E-02  0.8852799E-01
         -1   -1    0    0    0  501 -0.00000000000E+00  0.00000000000E+00  0.73792505224E+03  0.73792505224E+03  0.00000000000E+00 0.  1.
          1   -1    0    0  501    0  0.00000000000E+00 -0.00000000000E+00 -0.81240825770E+03  0.81240825770E+03  0.00000000000E+00 0. -1.
         23    2    1    2    0    0  0.15890605165E+02  0.39632915967E+03  0.23814442127E+03  0.47162680835E+03  0.91595670394E+02 0.  0.
        254    2    1    2    0    0 -0.15890605165E+02 -0.39632915967E+03 -0.31262762673E+03  0.10787065016E+04  0.95317488923E+03 0.  0.
        -24    2    4    4    0    0 -0.18021514657E+03 -0.41111794281E+03 -0.59031632875E+03  0.74592159286E+03  0.80188482728E+02 0.  0.
         24    2    4    4    0    0  0.16432454140E+03  0.14788783140E+02  0.27768870202E+03  0.33278490873E+03  0.80084438175E+02 0.  0.
         13    1    3    3    0    0  0.15324870502E+02  0.32919580615E+03  0.23435403926E+03  0.40438415666E+03  0.00000000000E+00 0.  1.
        -13    1    3    3    0    0  0.56573466257E+00  0.67133353515E+02  0.37903820160E+01  0.67242651686E+02  0.00000000000E+00 0. -1.
          2    1    6    6  502    0  0.74901745638E+01 -0.19774253104E+02  0.48707154559E+02  0.53099065021E+02  0.00000000000E+00 0. -1.
          1    1    5    5  503    0 -0.23232070734E+01 -0.49801161216E+02 -0.39659155136E+02  0.63705584808E+02  0.00000000000E+00 0. -1.
         -2    1    5    5    0  503 -0.17789193949E+03 -0.36131678159E+03 -0.55065717361E+03  0.68221600805E+03  0.00000000000E+00 0.  1.
         -1    1    6    6    0  502  0.15683436684E+03  0.34563036245E+02  0.22898154746E+03  0.27968584371E+03  0.00000000000E+00 0.  1.
<mgrwt>
<rscale>  0 0.15485431E+04</rscale>
<asrwt>0</asrwt>
<pdfrwt beam="1">  1        1 0.12498589E+00 0.15485431E+04</pdfrwt>
<pdfrwt beam="2">  1       -1 0.11352693E+00 0.15485431E+04</pdfrwt>
<totfact> 0.14716519E+01</totfact>
</mgrwt>
</event>
<event>
12    1  0.1536832E-007  0.1217071E+04  0.7818608E-02  0.9098044E-01
         -1   -1    0    0    0  501 -0.00000000000E+00  0.00000000000E+00  0.29080568556E+03  0.29080568556E+03  0.00000000000E+00 0.  1.
          1   -1    0    0  501    0  0.00000000000E+00 -0.00000000000E+00 -0.12734125085E+04  0.12734125085E+04  0.00000000000E+00 0. -1.
         23    2    1    2    0    0  0.22919996819E+03 -0.90270306860E+02 -0.10927204828E+03  0.28364904497E+03  0.88515797793E+02 0.  0.
        254    2    1    2    0    0 -0.22919996819E+03  0.90270306860E+02 -0.87333477465E+03  0.12805691491E+04  0.90358306938E+03 0.  0.
        -24    2    4    4    0    0 -0.18404500133E+03  0.48691642543E+03 -0.54055361985E+03  0.75463639303E+03  0.79483972467E+02 0.  0.
         24    2    4    4    0    0 -0.45154966855E+02 -0.39664611857E+03 -0.33278115480E+03  0.52593275606E+03  0.80590647676E+02 0.  0.
         11    1    3    3    0    0  0.23179932543E+03 -0.99414509972E+02 -0.10611341186E+03  0.27363155563E+03  0.00000000000E+00 0.  1.
        -11    1    3    3    0    0 -0.25993572374E+01  0.91442031127E+01 -0.31586364262E+01  0.10017489340E+02  0.00000000000E+00 0. -1.
          4    1    6    6  502    0  0.24163989546E+01 -0.26406467703E+01 -0.20839706314E+02  0.21144866009E+02  0.00000000000E+00 0. -1.
          1    1    5    5  503    0 -0.50975440788E+02  0.24595483012E+03 -0.24965617404E+03  0.35414753883E+03  0.00000000000E+00 0. -1.
         -2    1    5    5    0  503 -0.13306956055E+03  0.24096159532E+03 -0.29089744581E+03  0.40048885420E+03  0.00000000000E+00 0.  1.
         -3    1    6    6    0  502 -0.47571365810E+02 -0.39400547180E+03 -0.31194144848E+03  0.50478789005E+03  0.00000000000E+00 0.  1.
<mgrwt>
<rscale>  0 0.12170712E+04</rscale>
<asrwt>0</asrwt>
<pdfrwt beam="1">  1        1 0.19590962E+00 0.12170712E+04</pdfrwt>
<pdfrwt beam="2">  1       -1 0.44739335E-01 0.12170712E+04</pdfrwt>
<totfact> 0.46240920E+01</totfact>
</mgrwt>
</event>
<event>
12    1  0.1536832E-007  0.1100139E+04  0.7818608E-02  0.9205057E-01
         -1   -1    0    0    0  501 -0.00000000000E+00  0.00000000000E+00  0.10133614955E+04  0.10133614955E+04  0.00000000000E+00 0.  1.
          1   -1    0    0  501    0  0.00000000000E+00 -0.00000000000E+00 -0.29858663903E+03  0.29858663903E+03  0.00000000000E+00 0. -1.
         23    2    1    2    0    0  0.12218910001E+03 -0.46101843854E+02  0.69686548946E+01  0.15919941170E+03  0.90776287476E+02 0.  0.
        254    2    1    2    0    0 -0.12218910001E+03  0.46101843854E+02  0.70780620152E+03  0.11527487228E+04  0.90043569609E+03 0.  0.
        -24    2    4    4    0    0 -0.43469774994E+03  0.26717543349E+03  0.44439749733E+03  0.68134361132E+03  0.79969587883E+02 0.  0.
         24    2    4    4    0    0  0.31250864993E+03 -0.22107358964E+03  0.26340870419E+03  0.47140511146E+03  0.79394240048E+02 0.  0.
         13    1    3    3    0    0  0.73136387732E+01  0.52261910506E+01 -0.27343942945E+02  0.28783564768E+02  0.00000000000E+00 0. -1.
        -13    1    3    3    0    0  0.11487546124E+03 -0.51328034905E+02  0.34312597839E+02  0.13041584694E+03  0.00000000000E+00 0.  1.
          2    1    6    6  502    0  0.20405423565E+03 -0.15364114689E+03  0.21817383248E+03  0.33592194671E+03  0.00000000000E+00 0. -1.
          1    1    5    5  503    0 -0.33171308381E+03  0.18040277700E+03  0.28757600007E+03  0.47463532078E+03  0.00000000000E+00 0. -1.
         -2    1    5    5    0  503 -0.10298466613E+03  0.86772656489E+02  0.15682149726E+03  0.20670829053E+03  0.00000000000E+00 0.  1.
         -1    1    6    6    0  502  0.10845441428E+03 -0.67432442748E+02  0.45234871712E+02  0.13548316475E+03  0.00000000000E+00 0.  1.
<mgrwt>
<rscale>  0 0.11001385E+04</rscale>
<asrwt>0</asrwt>
<pdfrwt beam="1">  1        1 0.45936406E-01 0.11001385E+04</pdfrwt>
<pdfrwt beam="2">  1       -1 0.15590177E+00 0.11001385E+04</pdfrwt>
<totfact> 0.27611508E+01</totfact>
</mgrwt>
</event>
<event>
12    1  0.1536832E-007  0.1199418E+04  0.7818608E-02  0.9113366E-01
         -1   -1    0    0    0  501 -0.00000000000E+00  0.00000000000E+00  0.68056354138E+03  0.68056354138E+03  0.00000000000E+00 0.  1.
          1   -1    0    0  501    0  0.00000000000E+00 -0.00000000000E+00 -0.52846037170E+03  0.52846037170E+03  0.00000000000E+00 0. -1.
         23    2    1    2    0    0 -0.14240637584E+03 -0.86012888096E+02  0.22486738327E+03  0.29401125058E+03  0.90550994530E+02 0.  0.
        254    2    1    2    0    0  0.14240637584E+03  0.86012888096E+02 -0.72764213589E+02  0.91501266250E+03  0.89681422210E+03 0.  0.
        -24    2    4    4    0    0  0.27671313305E+03 -0.19392647026E+03 -0.34870791487E+03  0.49248367158E+03  0.82251583630E+02 0.  0.
         24    2    4    4    0    0 -0.13430675721E+03  0.27993935836E+03  0.27594370128E+03  0.42252899092E+03  0.77339979996E+02 0.  0.
         11    1    3    3    0    0 -0.13484113856E+01 -0.34845897677E+00 -0.82629522155E+01  0.83794997606E+01  0.00000000000E+00 0. -1.
        -11    1    3    3    0    0 -0.14105796446E+03 -0.85664429119E+02  0.23313033549E+03  0.28563175082E+03  0.00000000000E+00 0.  1.
          4    1    6    6  502    0 -0.30937616724E+02  0.14684197698E+02  0.40968661942E+02  0.53396564046E+02  0.00000000000E+00 0. -1.
          1    1    5    5  503    0  0.65288201102E+02 -0.77331678619E+01 -0.58152653779E+02  0.87772901455E+02  0.00000000000E+00 0. -1.
         -2    1    5    5    0  503  0.21142493195E+03 -0.18619330240E+03 -0.29055526109E+03  0.40471077012E+03  0.00000000000E+00 0.  1.
         -3    1    6    6    0  502 -0.10336914048E+03  0.26525516066E+03  0.23497503933E+03  0.36913242688E+03  0.00000000000E+00 0.  1.
<mgrwt>
<rscale>  0 0.11994180E+04</rscale>
<asrwt>0</asrwt>
<pdfrwt beam="1">  1        1 0.81301596E-01 0.11994180E+04</pdfrwt>
<pdfrwt beam="2">  1       -1 0.10470208E+00 0.11994180E+04</pdfrwt>
<totfact> 0.34826522E+01</totfact>
</mgrwt>
</event>
<event>
12    1  0.1536832E-007  0.1148110E+04  0.7818608E-02  0.9159529E-01
          2   -1    0    0  501    0  0.00000000000E+00  0.00000000000E+00  0.96059322109E+03  0.96059322109E+03  0.00000000000E+00 0. -1.
         -2   -1    0    0    0  501 -0.00000000000E+00 -0.00000000000E+00 -0.34305765608E+03  0.34305765608E+03  0.00000000000E+00 0.  1.
         23    2    1    2    0    0  0.15440435463E+03  0.12516339961E+03  0.87640353376E+02  0.23567477386E+03  0.91406707436E+02 0.  0.
        254    2    1    2    0    0 -0.15440435463E+03 -0.12516339961E+03  0.52989521163E+03  0.10679761033E+04  0.90569169180E+03 0.  0.
        -24    2    4    4    0    0 -0.96699332364E+01  0.37926187636E+03  0.15150228872E+03  0.41653917761E+03  0.81356404320E+02 0.  0.
         24    2    4    4    0    0 -0.14473442140E+03 -0.50442527597E+03  0.37839292290E+03  0.65143692570E+03  0.76131151844E+02 0.  0.
         13    1    3    3    0    0  0.13033971208E+03  0.13106071101E+03  0.51540061412E+02  0.19188988625E+03  0.00000000000E+00 0.  1.
        -13    1    3    3    0    0  0.24064642553E+02 -0.58973114052E+01  0.36100291963E+02  0.43784887608E+02  0.00000000000E+00 0. -1.
          4    1    6    6  502    0 -0.58003709428E+02 -0.33290750134E+03  0.24863153681E+03  0.41953483270E+03  0.00000000000E+00 0. -1.
          3    1    5    5  503    0  0.35094635865E+02  0.18191944490E+03  0.63204396921E+02  0.19575779343E+03  0.00000000000E+00 0. -1.
         -4    1    5    5    0  503 -0.44764569101E+02  0.19734243146E+03  0.88297891801E+02  0.22078138418E+03  0.00000000000E+00 0.  1.
         -3    1    6    6    0  502 -0.86730711970E+02 -0.17151777464E+03  0.12976138610E+03  0.23190209300E+03  0.00000000000E+00 0.  1.
<mgrwt>
<rscale>  0 0.11481095E+04</rscale>
<asrwt>0</asrwt>
<pdfrwt beam="1">  1        2 0.14778357E+00 0.11481095E+04</pdfrwt>
<pdfrwt beam="2">  1       -2 0.52778101E-01 0.11481095E+04</pdfrwt>
<totfact> 0.89568499E+01</totfact>
</mgrwt>
</event>
<event>
12    1  0.1536832E-007  0.1589150E+04  0.7818608E-02  0.8827242E-01
         -1   -1    0    0    0  501 -0.00000000000E+00  0.00000000000E+00  0.59440344206E+03  0.59440344206E+03  0.00000000000E+00 0.  1.
          1   -1    0    0  501    0  0.00000000000E+00 -0.00000000000E+00 -0.10621562211E+04  0.10621562211E+04  0.00000000000E+00 0. -1.
         23    2    1    2    0    0 -0.50574508951E+03  0.16086327789E+03 -0.22605451135E+03  0.58463899249E+03  0.95115822510E+02 0.  0.
        254    2    1    2    0    0  0.50574508951E+03 -0.16086327789E+03 -0.24169826765E+03  0.10719206706E+04  0.89941135294E+03 0.  0.
        -24    2    4    4    0    0  0.56930514926E+03  0.92628390562E+02 -0.44326600459E+03  0.73225582685E+03  0.83818097184E+02 0.  0.
         24    2    4    4    0    0 -0.63560059749E+02 -0.25349166845E+03  0.20156773693E+03  0.33966484378E+03  0.80279177626E+02 0.  0.
         11    1    3    3    0    0 -0.48180621756E+03  0.15663585670E+03 -0.18985217233E+03  0.54103222660E+03  0.00000000000E+00 0. -1.
        -11    1    3    3    0    0 -0.23938871957E+02  0.42274211871E+01 -0.36202339020E+02  0.43606765885E+02  0.00000000000E+00 0.  1.
          4    1    6    6  502    0  0.11598254762E+02 -0.11923659390E+02  0.73308530923E+00  0.16650242666E+02  0.00000000000E+00 0. -1.
          1    1    5    5  503    0  0.16926732311E+03  0.38944836440E+02 -0.88769074179E+02  0.19505915895E+03  0.00000000000E+00 0. -1.
         -2    1    5    5    0  503  0.40003782615E+03  0.53683554122E+02 -0.35449693041E+03  0.53719666790E+03  0.00000000000E+00 0.  1.
         -3    1    6    6    0  502 -0.75158314511E+02 -0.24156800906E+03  0.20083465163E+03  0.32301460112E+03  0.00000000000E+00 0.  1.
<mgrwt>
<rscale>  0 0.15891499E+04</rscale>
<asrwt>0</asrwt>
<pdfrwt beam="1">  1        1 0.16340865E+00 0.15891499E+04</pdfrwt>
<pdfrwt beam="2">  1       -1 0.91446684E-01 0.15891499E+04</pdfrwt>
<totfact> 0.15171620E+01</totfact>
</mgrwt>
</event>
<event>
12    1  0.1536832E-007  0.1117650E+04  0.7818608E-02  0.9188157E-01
         -2   -1    0    0    0  501 -0.00000000000E+00  0.00000000000E+00  0.29237902210E+03  0.29237902210E+03  0.00000000000E+00 0. -1.
          2   -1    0    0  501    0  0.00000000000E+00 -0.00000000000E+00 -0.10680846659E+04  0.10680846659E+04  0.00000000000E+00 0.  1.
         23    2    1    2    0    0 -0.15929296088E+03 -0.51028280705E+02 -0.12011664169E+03  0.23740496535E+03  0.11813118617E+03 0.  0.
        254    2    1    2    0    0  0.15929296088E+03  0.51028280705E+02 -0.65558900211E+03  0.11230587227E+04  0.89637370668E+03 0.  0.
        -24    2    4    4    0    0 -0.27270211579E+03  0.12217576658E+03 -0.59898646204E+03  0.67361094907E+03  0.75323084805E+02 0.  0.
         24    2    4    4    0    0  0.43199507666E+03 -0.71147485876E+02 -0.56602540076E+02  0.44944777359E+03  0.84366715208E+02 0.  0.
         13    1    3    3    0    0 -0.10350978599E+03  0.11085909002E+01 -0.10820716692E+02  0.10407974192E+03  0.00000000000E+00 0. -1.
        -13    1    3    3    0    0 -0.55783174891E+02 -0.52136871606E+02 -0.10929592500E+03  0.13332522343E+03  0.00000000000E+00 0.  1.
          4    1    6    6  502    0  0.78441006112E+01  0.90970813395E+01  0.57075094435E+01  0.13298964897E+02  0.00000000000E+00 0. -1.
          1    1    5    5  503    0 -0.13497787626E+03  0.93866772544E+02 -0.37032189468E+03  0.40517687958E+03  0.00000000000E+00 0. -1.
         -2    1    5    5    0  503 -0.13772423952E+03  0.28308994037E+02 -0.22866456736E+03  0.26843406949E+03  0.00000000000E+00 0.  1.
         -3    1    6    6    0  502  0.42415097605E+03 -0.80244567215E+02 -0.62310049520E+02  0.43614880869E+03  0.00000000000E+00 0.  1.
<mgrwt>
<rscale>  0 0.11176503E+04</rscale>
<asrwt>0</asrwt>
<pdfrwt beam="1">  1        2 0.16432072E+00 0.11176503E+04</pdfrwt>
<pdfrwt beam="2">  1       -2 0.44981387E-01 0.11176503E+04</pdfrwt>
<totfact> 0.10596100E+02</totfact>
</mgrwt>
</event>
<event>
12    1  0.1536832E-007  0.1025984E+04  0.7818608E-02  0.9280496E-01
         -1   -1    0    0    0  501 -0.00000000000E+00  0.00000000000E+00  0.25883248373E+03  0.25883248373E+03  0.00000000000E+00 0.  1.
          1   -1    0    0  501    0  0.00000000000E+00 -0.00000000000E+00 -0.10167229130E+04  0.10167229130E+04  0.00000000000E+00 0. -1.
         23    2    1    2    0    0 -0.67290145683E+02  0.75332665425E+02 -0.12003747521E+03  0.18246841216E+03  0.93181284571E+02 0.  0.
        254    2    1    2    0    0  0.67290145683E+02 -0.75332665425E+02 -0.63785295408E+03  0.10930869846E+04  0.88191824489E+03 0.  0.
        -24    2    4    4    0    0  0.54202333324E+02 -0.10562179834E+03  0.20252083530E+03  0.24821877143E+03  0.80647458353E+02 0.  0.
         24    2    4    4    0    0  0.13087812359E+02  0.30289132913E+02 -0.84037378938E+03  0.84486821316E+03  0.80532411615E+02 0.  0.
         11    1    3    3    0    0 -0.67712646781E+02  0.39304953295E+02 -0.12354880775E+03  0.14626752813E+03  0.00000000000E+00 0. -1.
        -11    1    3    3    0    0  0.42250109883E+00  0.36027712130E+02  0.35113325387E+01  0.36200884032E+02  0.00000000000E+00 0.  1.
          2    1    6    6  502    0  0.25250870585E+02  0.21393890513E+02 -0.12413774420E+03  0.12847367260E+03  0.00000000000E+00 0. -1.
          1    1    5    5  503    0  0.32165243501E+02 -0.56921018185E+02  0.38877692233E+02  0.76066287894E+02  0.00000000000E+00 0. -1.
         -2    1    5    5    0  503  0.22037089823E+02 -0.48700780154E+02  0.16364314307E+03  0.17215248354E+03  0.00000000000E+00 0.  1.
         -1    1    6    6    0  502 -0.12163058226E+02  0.88952424004E+01 -0.71623604518E+03  0.71639454055E+03  0.00000000000E+00 0.  1.
<mgrwt>
<rscale>  0 0.10259842E+04</rscale>
<asrwt>0</asrwt>
<pdfrwt beam="1">  1        1 0.15641891E+00 0.10259842E+04</pdfrwt>
<pdfrwt beam="2">  1       -1 0.39820382E-01 0.10259842E+04</pdfrwt>
<totfact> 0.90191493E+01</totfact>
</mgrwt>
</event>
<event>
12    1  0.1536832E-007  0.1472613E+04  0.7818608E-02  0.8902872E-01
         -2   -1    0    0    0  501 -0.00000000000E+00  0.00000000000E+00  0.98926267787E+02  0.98926267787E+02  0.00000000000E+00 0.  1.
          2   -1    0    0  501    0  0.00000000000E+00 -0.00000000000E+00 -0.54803145951E+04  0.54803145951E+04  0.00000000000E+00 0. -1.
         23    2    1    2    0    0 -0.40198640069E+03 -0.21930859190E+03 -0.21065099449E+04  0.21585882187E+04  0.11148822861E+03 0.  0.
        254    2    1    2    0    0  0.40198640069E+03  0.21930859190E+03 -0.32748783824E+04  0.34206526442E+04  0.87541234158E+03 0.  0.
        -24    2    4    4    0    0  0.34154887495E+03 -0.18398577779E+03 -0.25877204796E+04  0.26178519654E+04  0.79656961655E+02 0.  0.
         24    2    4    4    0    0  0.60437525743E+02  0.40329436969E+03 -0.68715790282E+03  0.80280067884E+03  0.77484859194E+02 0.  0.
         11    1    3    3    0    0 -0.11303331168E+03 -0.10117292857E+03 -0.87972731620E+03  0.89271083891E+03  0.00000000000E+00 0. -1.
        -11    1    3    3    0    0 -0.28895308901E+03 -0.11813566333E+03 -0.12267826287E+04  0.12658773798E+04  0.00000000000E+00 0.  1.
          4    1    6    6  502    0  0.17435011335E+02  0.16907397291E+03 -0.21575989940E+03  0.27466765759E+03  0.00000000000E+00 0. -1.
          1    1    5    5  503    0  0.33525172716E+03 -0.19034643230E+03 -0.25553193362E+04  0.25842372946E+04  0.00000000000E+00 0. -1.
         -2    1    5    5    0  503  0.62971477901E+01  0.63606545047E+01 -0.32401143441E+02  0.33614670790E+02  0.00000000000E+00 0.  1.
         -3    1    6    6    0  502  0.43002514408E+02  0.23422039678E+03 -0.47139800342E+03  0.52813302125E+03  0.00000000000E+00 0.  1.
<mgrwt>
<rscale>  0 0.14726127E+04</rscale>
<asrwt>0</asrwt>
<pdfrwt beam="1">  1        2 0.84312558E+00 0.14726127E+04</pdfrwt>
<pdfrwt beam="2">  1       -2 0.15219421E-01 0.14726127E+04</pdfrwt>
<totfact> 0.23297518E-01</totfact>
</mgrwt>
</event>
<event>
12    1  0.1536832E-007  0.1205396E+04  0.7818608E-02  0.9108146E-01
         -1   -1    0    0    0  501 -0.00000000000E+00  0.00000000000E+00  0.60350950635E+03  0.60350950635E+03  0.00000000000E+00 0.  1.
          1   -1    0    0  501    0  0.00000000000E+00 -0.00000000000E+00 -0.60188769677E+03  0.60188769677E+03  0.00000000000E+00 0. -1.
         23    2    1    2    0    0 -0.50720790909E+02  0.12355208862E+03  0.21172849829E+03  0.26689383355E+03  0.92550765347E+02 0.  0.
        254    2    1    2    0    0  0.50720790909E+02 -0.12355208862E+03 -0.21010668871E+03  0.93850336957E+03  0.90487901778E+03 0.  0.
        -24    2    4    4    0    0 -0.76704569477E+02 -0.49234559588E+03 -0.43522046633E+02  0.50677345549E+03  0.81470177897E+02 0.  0.
         24    2    4    4    0    0  0.12742536039E+03  0.36879350726E+03 -0.16658464208E+03  0.43172991408E+03  0.79965006500E+02 0.  0.
         11    1    3    3    0    0 -0.36376061651E+01  0.23345427223E+02 -0.44220420052E+01  0.24037379356E+02  0.00000000000E+00 0. -1.
        -11    1    3    3    0    0 -0.47083184744E+02  0.10020666140E+03  0.21615054029E+03  0.24285645419E+03  0.00000000000E+00 0.  1.
          4    1    6    6  502    0  0.22296772709E+02  0.13257832594E+03 -0.91044995326E+02  0.16236794559E+03  0.00000000000E+00 0. -1.
          1    1    5    5  503    0 -0.58050983035E+01 -0.29737361637E+03 -0.24227383359E+02  0.29841536988E+03  0.00000000000E+00 0. -1.
         -2    1    5    5    0  503 -0.70899471174E+02 -0.19497197951E+03 -0.19294663274E+02  0.20835808561E+03  0.00000000000E+00 0.  1.
         -3    1    6    6    0  502  0.10512858768E+03  0.23621518132E+03 -0.75539646752E+02  0.26936196848E+03  0.00000000000E+00 0.  1.
<mgrwt>
<rscale>  0 0.12053961E+04</rscale>
<asrwt>0</asrwt>
<pdfrwt beam="1">  1        1 0.92598106E-01 0.12053961E+04</pdfrwt>
<pdfrwt beam="2">  1       -1 0.92847617E-01 0.12053961E+04</pdfrwt>
<totfact> 0.38040854E+01</totfact>
</mgrwt>
</event>
<event>
12    1  0.1536832E-007  0.1715513E+04  0.7818608E-02  0.8752566E-01
         -4   -1    0    0    0  501 -0.00000000000E+00  0.00000000000E+00  0.19015800446E+04  0.19015800446E+04  0.00000000000E+00 0. -1.
          4   -1    0    0  501    0  0.00000000000E+00 -0.00000000000E+00 -0.38691310514E+03  0.38691310514E+03  0.00000000000E+00 0.  1.
         23    2    1    2    0    0 -0.24338753734E+03 -0.42426098487E+03  0.10674209052E+04  0.11776634029E+04  0.90933080474E+02 0.  0.
        254    2    1    2    0    0  0.24338753734E+03  0.42426098487E+03  0.44724603427E+03  0.11108297468E+04  0.89144760622E+03 0.  0.
        -24    2    4    4    0    0  0.12248867229E+03  0.68634915164E+03  0.39918160962E+03  0.80725194386E+03  0.78937384127E+02 0.  0.
         24    2    4    4    0    0  0.12089886504E+03 -0.26208816677E+03  0.48064424649E+02  0.30357780296E+03  0.80886035895E+02 0.  0.
         13    1    3    3    0    0 -0.46799013831E+01 -0.12621859730E+02  0.85106797490E+02  0.86164840852E+02  0.00000000000E+00 0.  1.
        -13    1    3    3    0    0 -0.23870763595E+03 -0.41163912514E+03  0.98231410772E+03  0.10914985621E+04  0.00000000000E+00 0. -1.
          2    1    6    6  502    0  0.10282250154E+02 -0.89541531449E+02  0.39594096334E+02  0.98443399915E+02  0.00000000000E+00 0. -1.
          3    1    5    5  503    0  0.49338512116E+02  0.32138618810E+03  0.14189536059E+03  0.35476423726E+03  0.00000000000E+00 0. -1.
         -4    1    5    5    0  503  0.73150160179E+02  0.36496296354E+03  0.25728624902E+03  0.45248770660E+03  0.00000000000E+00 0.  1.
         -1    1    6    6    0  502  0.11061661489E+03 -0.17254663532E+03  0.84703283152E+01  0.20513440304E+03  0.00000000000E+00 0.  1.
<mgrwt>
<rscale>  0 0.17155130E+04</rscale>
<asrwt>0</asrwt>
<pdfrwt beam="1">  1        4 0.59525094E-01 0.17155130E+04</pdfrwt>
<pdfrwt beam="2">  1       -4 0.29255077E+00 0.17155130E+04</pdfrwt>
<totfact> 0.17492800E-01</totfact>
</mgrwt>
</event>
<event>
12    1  0.1536832E-007  0.1171196E+04  0.7818608E-02  0.9138449E-01
         -2   -1    0    0    0  501 -0.00000000000E+00  0.00000000000E+00  0.30689609728E+03  0.30689609728E+03  0.00000000000E+00 0.  1.
          2   -1    0    0  501    0  0.00000000000E+00 -0.00000000000E+00 -0.11173971642E+04  0.11173971642E+04  0.00000000000E+00 0. -1.
         23    2    1    2    0    0 -0.77172473276E+02 -0.70108944939E+02  0.81731367170E+02  0.16015436112E+03  0.89991934169E+02 0.  0.
        254    2    1    2    0    0  0.77172473276E+02  0.70108944939E+02 -0.89223243413E+03  0.12641389004E+04  0.88943666901E+03 0.  0.
        -24    2    4    4    0    0 -0.12294056742E+03 -0.34572278933E+03 -0.60855552732E+03  0.71595922506E+03  0.87287753694E+02 0.  0.
         24    2    4    4    0    0  0.20011304070E+03  0.41583173427E+03 -0.28367690681E+03  0.54817967533E+03  0.84066097214E+02 0.  0.
         13    1    3    3    0    0  0.14559232927E+02  0.12185567503E+01 -0.46859372937E+01  0.15343211929E+02  0.00000000000E+00 0. -1.
        -13    1    3    3    0    0 -0.91731706204E+02 -0.71327501690E+02  0.86417304464E+02  0.14481114919E+03  0.00000000000E+00 0.  1.
          4    1    6    6  502    0  0.11527935630E+03  0.19716360023E+03 -0.95829366894E+02  0.24768141392E+03  0.00000000000E+00 0. -1.
          1    1    5    5  503    0 -0.13140249119E+03 -0.29208809145E+03 -0.54706924486E+03  0.63392967002E+03  0.00000000000E+00 0. -1.
         -2    1    5    5    0  503  0.84619237661E+01 -0.53634697883E+02 -0.61486282458E+02  0.82029555048E+02  0.00000000000E+00 0.  1.
         -3    1    6    6    0  502  0.84833684399E+02  0.21866813404E+03 -0.18784753992E+03  0.30049826140E+03  0.00000000000E+00 0.  1.
<mgrwt>
<rscale>  0 0.11711957E+04</rscale>
<asrwt>0</asrwt>
<pdfrwt beam="1">  1        2 0.17190725E+00 0.11711957E+04</pdfrwt>
<pdfrwt beam="2">  1       -2 0.47214785E-01 0.11711957E+04</pdfrwt>
<totfact> 0.89303199E+01</totfact>
</mgrwt>
</event>
<event>
12    1  0.1536832E-007  0.1799918E+04  0.7818608E-02  0.8706343E-01
         -1   -1    0    0    0  501 -0.00000000000E+00  0.00000000000E+00  0.15850180805E+04  0.15850180805E+04  0.00000000000E+00 0.  1.
          1   -1    0    0  501    0  0.00000000000E+00 -0.00000000000E+00 -0.51098838317E+03  0.51098838317E+03  0.00000000000E+00 0. -1.
         23    2    1    2    0    0  0.28508727293E+03 -0.28211805399E+02 -0.30037707687E+03  0.42508473119E+03  0.91651411510E+02 0.  0.
        254    2    1    2    0    0 -0.28508727293E+03  0.28211805399E+02  0.13744067742E+04  0.16709217325E+04  0.90604348460E+03 0.  0.
        -24    2    4    4    0    0 -0.28052134629E+03  0.43337428494E+03  0.62145660879E+03  0.81204857741E+03  0.81908967167E+02 0.  0.
         24    2    4    4    0    0 -0.45659266397E+01 -0.40516247954E+03  0.75295016546E+03  0.85887315511E+03  0.80942339920E+02 0.  0.
         13    1    3    3    0    0  0.93459003888E+02 -0.50690580352E+02 -0.86716169222E+02  0.13719990652E+03  0.00000000000E+00 0.  1.
        -13    1    3    3    0    0  0.19162826904E+03  0.22478774953E+02 -0.21366090765E+03  0.28788482467E+03  0.00000000000E+00 0. -1.
          2    1    6    6  502    0 -0.37866472173E+01 -0.82245712883E+02  0.93354784948E+02  0.12447414132E+03  0.00000000000E+00 0. -1.
          3    1    5    5  503    0 -0.53284157021E+02  0.14015599028E+03  0.21024006008E+03  0.25823203880E+03  0.00000000000E+00 0. -1.
         -4    1    5    5    0  503 -0.22723718927E+03  0.29321829466E+03  0.41121654870E+03  0.55381653861E+03  0.00000000000E+00 0.  1.
         -1    1    6    6    0  502 -0.77927942243E+00 -0.32291676666E+03  0.65959538051E+03  0.73439901379E+03  0.00000000000E+00 0.  1.
<mgrwt>
<rscale>  0 0.17999176E+04</rscale>
<asrwt>0</asrwt>
<pdfrwt beam="1">  1        1 0.78613598E-01 0.17999176E+04</pdfrwt>
<pdfrwt beam="2">  1       -1 0.24384893E+00 0.17999176E+04</pdfrwt>
<totfact> 0.31042248E+00</totfact>
</mgrwt>
</event>
<event>
12    1  0.1536832E-007  0.1694779E+04  0.7818608E-02  0.8764348E-01
          1   -1    0    0  501    0  0.00000000000E+00  0.00000000000E+00  0.30339491689E+04  0.30339491689E+04  0.00000000000E+00 0. -1.
         -1   -1    0    0    0  501 -0.00000000000E+00 -0.00000000000E+00 -0.23667789699E+03  0.23667789699E+03  0.00000000000E+00 0.  1.
         23    2    1    2    0    0  0.18174028632E+03  0.15258187582E+03 -0.66103628780E+02  0.26214499536E+03  0.89663528544E+02 0.  0.
        254    2    1    2    0    0 -0.18174028632E+03 -0.15258187582E+03  0.28633749007E+04  0.30084820706E+04  0.89204135909E+03 0.  0.
        -24    2    4    4    0    0  0.32634995710E+03 -0.22293169664E+03  0.11894058438E+04  0.12558467850E+04  0.79133117504E+02 0.  0.
         24    2    4    4    0    0 -0.50809024342E+03  0.70349820822E+02  0.16739690569E+04  0.17526352856E+04  0.80332110002E+02 0.  0.
         13    1    3    3    0    0  0.16334262069E+03  0.14333594146E+03 -0.28370470853E+02  0.21915950234E+03  0.00000000000E+00 0.  1.
        -13    1    3    3    0    0  0.18397665626E+02  0.92459343630E+01 -0.37733157927E+02  0.42985493017E+02  0.00000000000E+00 0. -1.
          2    1    6    6  502    0 -0.20594193351E+03  0.68287016291E+02  0.68586305729E+03  0.71936314190E+03  0.00000000000E+00 0. -1.
          1    1    5    5  503    0  0.12151417479E+03 -0.12887340831E+03  0.49122229293E+03  0.52218137761E+03  0.00000000000E+00 0. -1.
         -2    1    5    5    0  503  0.20483578231E+03 -0.94058288330E+02  0.69818355086E+03  0.73366540739E+03  0.00000000000E+00 0.  1.
         -1    1    6    6    0  502 -0.30214830991E+03  0.20628045305E+01  0.98810599963E+03  0.10332721437E+04  0.00000000000E+00 0.  1.
<mgrwt>
<rscale>  0 0.16947787E+04</rscale>
<asrwt>0</asrwt>
<pdfrwt beam="1">  1        1 0.46676138E+00 0.16947787E+04</pdfrwt>
<pdfrwt beam="2">  1       -1 0.36411986E-01 0.16947787E+04</pdfrwt>
<totfact> 0.39003074E+00</totfact>
</mgrwt>
</event>
<event>
12    1  0.1536832E-007  0.1135218E+04  0.7818608E-02  0.9171530E-01
          2   -1    0    0  501    0  0.00000000000E+00  0.00000000000E+00  0.19216909423E+04  0.19216909423E+04  0.00000000000E+00 0. -1.
         -2   -1    0    0    0  501 -0.00000000000E+00 -0.00000000000E+00 -0.16765434123E+03  0.16765434123E+03  0.00000000000E+00 0.  1.
         23    2    1    2    0    0  0.18062675028E+03  0.27605471627E+02  0.14970400212E+03  0.24856789454E+03  0.77373283281E+02 0.  0.
        254    2    1    2    0    0 -0.18062675028E+03 -0.27605471627E+02  0.16043325989E+04  0.18407773890E+04  0.88384966071E+03 0.  0.
        -24    2    4    4    0    0 -0.72327431308E+00 -0.18871250219E+03  0.15705628950E+04  0.15837619547E+04  0.77596329690E+02 0.  0.
         24    2    4    4    0    0 -0.17990347597E+03  0.16110703056E+03  0.33769703905E+02  0.25701543424E+03  0.81214558857E+02 0.  0.
         11    1    3    3    0    0  0.31205037341E+02  0.36611902123E+02  0.28141078168E+02  0.55732450269E+02  0.00000000000E+00 0. -1.
        -11    1    3    3    0    0  0.14942171294E+03 -0.90064304965E+01  0.12156292395E+03  0.19283544428E+03  0.00000000000E+00 0.  1.
          4    1    6    6  502    0 -0.12487821236E+03  0.61893486975E+02  0.27573702570E+01  0.13940220494E+03  0.00000000000E+00 0. -1.
          1    1    5    5  503    0  0.28464945194E+02 -0.12450941216E+03  0.11790389301E+04  0.11859366111E+04  0.00000000000E+00 0. -1.
         -2    1    5    5    0  503 -0.29188219507E+02 -0.64203090031E+02  0.39152396491E+03  0.39782534362E+03  0.00000000000E+00 0.  1.
         -3    1    6    6    0  502 -0.55025263614E+02  0.99213543589E+02  0.31012333648E+02  0.11761322930E+03  0.00000000000E+00 0.  1.
<mgrwt>
<rscale>  0 0.11352177E+04</rscale>
<asrwt>0</asrwt>
<pdfrwt beam="1">  1        2 0.29564475E+00 0.11352177E+04</pdfrwt>
<pdfrwt beam="2">  1       -2 0.25792977E-01 0.11352177E+04</pdfrwt>
<totfact> 0.99299341E+01</totfact>
</mgrwt>
</event>
<event>
12    1  0.1536832E-007  0.1481098E+04  0.7818608E-02  0.8897121E-01
         -1   -1    0    0    0  501 -0.00000000000E+00  0.00000000000E+00  0.75719645172E+03  0.75719645172E+03  0.00000000000E+00 0.  1.
          1   -1    0    0  501    0  0.00000000000E+00 -0.00000000000E+00 -0.72426759657E+03  0.72426759657E+03  0.00000000000E+00 0. -1.
         23    2    1    2    0    0  0.36799155286E+02  0.29860729695E+03 -0.33319478342E+03  0.45801906345E+03  0.90786580339E+02 0.  0.
        254    2    1    2    0    0 -0.36799155286E+02 -0.29860729695E+03  0.36612363857E+03  0.10234449848E+04  0.90712326762E+03 0.  0.
        -24    2    4    4    0    0  0.23360750114E+03  0.10835166689E+03  0.44627743636E+03  0.52139807725E+03  0.79874003622E+02 0.  0.
         24    2    4    4    0    0 -0.27040665643E+03 -0.40695896383E+03 -0.80153797794E+02  0.50204690759E+03  0.83012698036E+02 0.  0.
         11    1    3    3    0    0  0.67272241218E+02  0.19626316975E+03 -0.21838074670E+03  0.30122240416E+03  0.00000000000E+00 0. -1.
        -11    1    3    3    0    0 -0.30473085932E+02  0.10234412719E+03 -0.11481403671E+03  0.15679665929E+03  0.00000000000E+00 0.  1.
          2    1    6    6  502    0 -0.87347468585E+02 -0.17365440561E+03 -0.65543922392E+02  0.20513760898E+03  0.00000000000E+00 0. -1.
          1    1    5    5  503    0  0.12350376021E+03  0.75362107597E+02  0.17694677055E+03  0.22856680786E+03  0.00000000000E+00 0. -1.
         -2    1    5    5    0  503  0.11010374093E+03  0.32989559288E+02  0.26933066581E+03  0.29283126939E+03  0.00000000000E+00 0.  1.
         -1    1    6    6    0  502 -0.18305918784E+03 -0.23330455823E+03 -0.14609875402E+02  0.29690929861E+03  0.00000000000E+00 0.  1.
<mgrwt>
<rscale>  0 0.14810980E+04</rscale>
<asrwt>0</asrwt>
<pdfrwt beam="1">  1        1 0.11142578E+00 0.14810980E+04</pdfrwt>
<pdfrwt beam="2">  1       -1 0.11649176E+00 0.14810980E+04</pdfrwt>
<totfact> 0.16675384E+01</totfact>
</mgrwt>
</event>
<event>
12    1  0.1536832E-007  0.2319410E+04  0.7818608E-02  0.8470307E-01
         -2   -1    0    0    0  501 -0.00000000000E+00  0.00000000000E+00  0.23093088512E+04  0.23093088512E+04  0.00000000000E+00 0.  1.
          2   -1    0    0  501    0  0.00000000000E+00 -0.00000000000E+00 -0.58238888470E+03  0.58238888470E+03  0.00000000000E+00 0. -1.
         23    2    1    2    0    0  0.27572074665E+03 -0.39488184745E+02  0.19122509812E+04  0.19345916228E+04  0.91431313277E+02 0.  0.
        254    2    1    2    0    0 -0.27572074665E+03  0.39488184745E+02 -0.18533101466E+03  0.95710611314E+03  0.89672921216E+03 0.  0.
        -24    2    4    4    0    0 -0.40678532126E+03  0.23946756485E+02 -0.47414746579E+03  0.62990916621E+03  0.76954490562E+02 0.  0.
         24    2    4    4    0    0  0.13106457461E+03  0.15541428261E+02  0.28881645113E+03  0.32719694693E+03  0.78888788339E+02 0.  0.
         11    1    3    3    0    0  0.12463542183E+03  0.20503262285E+02  0.10031671497E+04  0.10110878806E+04  0.00000000000E+00 0. -1.
        -11    1    3    3    0    0  0.15108532482E+03 -0.59991447030E+02  0.90908383146E+03  0.92350374212E+03  0.00000000000E+00 0.  1.
          2    1    6    6  502    0  0.87964813297E+02  0.20209964400E+02  0.10557354327E+03  0.13889573096E+03  0.00000000000E+00 0. -1.
          1    1    5    5  503    0 -0.27017051618E+03 -0.10859793628E+02 -0.27264870204E+03  0.38398874678E+03  0.00000000000E+00 0. -1.
         -2    1    5    5    0  503 -0.13661480509E+03  0.34806550113E+02 -0.20149876375E+03  0.24592041943E+03  0.00000000000E+00 0.  1.
         -1    1    6    6    0  502  0.43099761312E+02 -0.46685361397E+01  0.18324290786E+03  0.18830121597E+03  0.00000000000E+00 0.  1.
<mgrwt>
<rscale>  0 0.23194101E+04</rscale>
<asrwt>0</asrwt>
<pdfrwt beam="1">  1        2 0.89598291E-01 0.23194101E+04</pdfrwt>
<pdfrwt beam="2">  1       -2 0.35527828E+00 0.23194101E+04</pdfrwt>
<totfact> 0.67121400E-01</totfact>
</mgrwt>
</event>
<event>
12    1  0.1536832E-007  0.1216263E+04  0.7818608E-02  0.9098740E-01
         -2   -1    0    0    0  501 -0.00000000000E+00  0.00000000000E+00  0.36273057183E+03  0.36273057183E+03  0.00000000000E+00 0.  1.
          2   -1    0    0  501    0  0.00000000000E+00 -0.00000000000E+00 -0.10195550220E+04  0.10195550220E+04  0.00000000000E+00 0. -1.
         23    2    1    2    0    0  0.19967980117E+03  0.12552206570E+03 -0.27940351328E+03  0.37696929651E+03  0.91715403821E+02 0.  0.
        254    2    1    2    0    0 -0.19967980117E+03 -0.12552206570E+03 -0.37742093687E+03  0.10053162973E+04  0.90143578921E+03 0.  0.
        -24    2    4    4    0    0 -0.52392811261E+03 -0.23521031554E+03 -0.25053104555E+03  0.63183357729E+03  0.81383689271E+02 0.  0.
         24    2    4    4    0    0  0.32424831144E+03  0.10968824984E+03 -0.12688989132E+03  0.37348272002E+03  0.78865822822E+02 0.  0.
         11    1    3    3    0    0  0.19558415260E+03  0.11088539240E+03 -0.21602582731E+03  0.31179462641E+03  0.00000000000E+00 0.  1.
        -11    1    3    3    0    0  0.40956485791E+01  0.14636673300E+02 -0.63377685972E+02  0.65174670093E+02  0.00000000000E+00 0. -1.
          2    1    6    6  502    0  0.22008777729E+03  0.10996447145E+03 -0.10234976359E+03  0.26647005236E+03  0.00000000000E+00 0. -1.
          3    1    5    5  503    0 -0.47245469529E+03 -0.20307061033E+03 -0.19627333556E+03  0.55043104394E+03  0.00000000000E+00 0. -1.
         -4    1    5    5    0  503 -0.51473417322E+02 -0.32139705213E+02 -0.54257709986E+02  0.81402533345E+02  0.00000000000E+00 0.  1.
         -1    1    6    6    0  502  0.10416053415E+03 -0.27622160349E+00 -0.24540127730E+02  0.10701266767E+03  0.00000000000E+00 0.  1.
<mgrwt>
<rscale>  0 0.12162628E+04</rscale>
<asrwt>0</asrwt>
<pdfrwt beam="1">  1        2 0.15685462E+00 0.12162628E+04</pdfrwt>
<pdfrwt beam="2">  1       -2 0.55804704E-01 0.12162628E+04</pdfrwt>
<totfact> 0.72758632E+01</totfact>
</mgrwt>
</event>
<event>
12    1  0.1536832E-007  0.1740039E+04  0.7818608E-02  0.8738852E-01
          2   -1    0    0  501    0  0.00000000000E+00  0.00000000000E+00  0.31231653857E+04  0.31231653857E+04  0.00000000000E+00 0.  1.
         -2   -1    0    0    0  501 -0.00000000000E+00 -0.00000000000E+00 -0.24236116197E+03  0.24236116197E+03  0.00000000000E+00 0. -1.
         23    2    1    2    0    0  0.29119205021E+03  0.43857326121E+03  0.37754168206E+03  0.65426328445E+03  0.91560953036E+02 0.  0.
        254    2    1    2    0    0 -0.29119205021E+03 -0.43857326121E+03  0.25032625417E+04  0.27112632632E+04  0.89860214469E+03 0.  0.
        -24    2    4    4    0    0 -0.71865931683E+02 -0.52223288514E+03  0.23715836717E+04  0.24307255232E+04  0.78265946542E+02 0.  0.
         24    2    4    4    0    0 -0.21932611853E+03  0.83659623927E+02  0.13167886994E+03  0.28053774009E+03  0.79115231656E+02 0.  0.
         11    1    3    3    0    0  0.21067231575E+03  0.30111495350E+03  0.31172282572E+03  0.48189642032E+03  0.00000000000E+00 0. -1.
        -11    1    3    3    0    0  0.80519734464E+02  0.13745830772E+03  0.65818856345E+02  0.17236686413E+03  0.00000000000E+00 0.  1.
          2    1    6    6  502    0 -0.93329570848E+02  0.17750885123E+02  0.93526800197E+02  0.13331453436E+03  0.00000000000E+00 0. -1.
          1    1    5    5  503    0 -0.43071222405E+02 -0.19575438743E+03  0.10622719955E+04  0.10810165137E+04  0.00000000000E+00 0. -1.
         -2    1    5    5    0  503 -0.28794709278E+02 -0.32647849771E+03  0.13093116762E+04  0.13497090095E+04  0.00000000000E+00 0.  1.
         -1    1    6    6    0  502 -0.12599654768E+03  0.65908738804E+02  0.38152069745E+02  0.14722320572E+03  0.00000000000E+00 0.  1.
<mgrwt>
<rscale>  0 0.17400391E+04</rscale>
<asrwt>0</asrwt>
<pdfrwt beam="1">  1        2 0.48048695E+00 0.17400391E+04</pdfrwt>
<pdfrwt beam="2">  1       -2 0.37286335E-01 0.17400391E+04</pdfrwt>
<totfact> 0.94062544E+00</totfact>
</mgrwt>
</event>
<event>
12    1  0.1536832E-007  0.2575154E+04  0.7818608E-02  0.8376690E-01
         -1   -1    0    0    0  501 -0.00000000000E+00  0.00000000000E+00  0.97734727808E+03  0.97734727808E+03  0.00000000000E+00 0. -1.
          1   -1    0    0  501    0  0.00000000000E+00 -0.00000000000E+00 -0.16962798284E+04  0.16962798284E+04  0.00000000000E+00 0.  1.
         23    2    1    2    0    0 -0.89618294065E+02 -0.72368521495E+03 -0.12118921908E+04  0.14175588066E+04  0.95071337122E+02 0.  0.
        254    2    1    2    0    0  0.89618294065E+02  0.72368521495E+03  0.49295964043E+03  0.12560682999E+04  0.89607289769E+03 0.  0.
        -24    2    4    4    0    0  0.39671913927E+03  0.26977994470E+03  0.50612040936E+03  0.70200676374E+03  0.80550192674E+02 0.  0.
         24    2    4    4    0    0 -0.30710084520E+03  0.45390527025E+03 -0.13160768928E+02  0.55406153617E+03  0.80436661676E+02 0.  0.
         13    1    3    3    0    0 -0.62686004927E+02 -0.66374711109E+03 -0.11358419054E+04  0.13170522377E+04  0.00000000000E+00 0.  1.
        -13    1    3    3    0    0 -0.26932289138E+02 -0.59938103854E+02 -0.76050285383E+02  0.10050656893E+03  0.00000000000E+00 0. -1.
          2    1    6    6  502    0 -0.68566331015E+02  0.50448129899E+02 -0.54884283742E+01  0.85302276671E+02  0.00000000000E+00 0. -1.
          3    1    5    5  503    0  0.64053787595E+02  0.36783293534E+02  0.40854030649E+02  0.84409420142E+02  0.00000000000E+00 0. -1.
         -4    1    5    5    0  503  0.33266535167E+03  0.23299665116E+03  0.46526637871E+03  0.61759734359E+03  0.00000000000E+00 0.  1.
         -1    1    6    6    0  502 -0.23853451419E+03  0.40345714035E+03 -0.76723405539E+01  0.46875925950E+03  0.00000000000E+00 0.  1.
<mgrwt>
<rscale>  0 0.25751540E+04</rscale>
<asrwt>0</asrwt>
<pdfrwt beam="1">  1        1 0.26096613E+00 0.25751540E+04</pdfrwt>
<pdfrwt beam="2">  1       -1 0.15036112E+00 0.25751540E+04</pdfrwt>
<totfact> 0.14667494E+00</totfact>
</mgrwt>
</event>
<event>
12    1  0.1536832E-007  0.1226392E+04  0.7818608E-02  0.9090064E-01
          2   -1    0    0  501    0  0.00000000000E+00  0.00000000000E+00  0.24064851051E+03  0.24064851051E+03  0.00000000000E+00 0.  1.
         -2   -1    0    0    0  501 -0.00000000000E+00 -0.00000000000E+00 -0.15624834869E+04  0.15624834869E+04  0.00000000000E+00 0. -1.
         23    2    1    2    0    0  0.18681707299E+02  0.83844738503E+02 -0.68779316871E+03  0.69895368927E+03  0.89988168467E+02 0.  0.
        254    2    1    2    0    0 -0.18681707299E+02 -0.83844738503E+02 -0.63404180766E+03  0.11041783081E+04  0.89990098117E+03 0.  0.
        -24    2    4    4    0    0 -0.26847887011E+03  0.13157094457E+03  0.74198401139E+02  0.31884374255E+03  0.82244223388E+02 0.  0.
         24    2    4    4    0    0  0.24979716281E+03 -0.21541568307E+03 -0.70824020880E+03  0.78533456557E+03  0.79647017897E+02 0.  0.
         11    1    3    3    0    0 -0.38812249519E+01 -0.18506239430E+02 -0.81197300097E+02  0.83369936716E+02  0.00000000000E+00 0.  1.
        -11    1    3    3    0    0  0.22562932251E+02  0.10235097793E+03 -0.60659586861E+03  0.61558375256E+03  0.00000000000E+00 0. -1.
          2    1    6    6  502    0  0.24610152235E+03 -0.22009851609E+03 -0.67336868171E+03  0.74995646380E+03  0.00000000000E+00 0. -1.
          3    1    5    5  503    0 -0.17711768557E+03  0.77794120171E+02  0.86901987327E+02  0.21207205161E+03  0.00000000000E+00 0. -1.
         -4    1    5    5    0  503 -0.91361184543E+02  0.53776824397E+02 -0.12703586188E+02  0.10677169094E+03  0.00000000000E+00 0.  1.
         -1    1    6    6    0  502  0.36956404613E+01  0.46828330140E+01 -0.34871527096E+02  0.35378101779E+02  0.00000000000E+00 0.  1.
<mgrwt>
<rscale>  0 0.12263920E+04</rscale>
<asrwt>0</asrwt>
<pdfrwt beam="1">  1        2 0.37022847E-01 0.12263920E+04</pdfrwt>
<pdfrwt beam="2">  1       -2 0.24038208E+00 0.12263920E+04</pdfrwt>
<totfact> 0.10211515E+01</totfact>
</mgrwt>
</event>
<event>
12    1  0.1536832E-007  0.1615033E+04  0.7818608E-02  0.8811365E-01
          1   -1    0    0  501    0  0.00000000000E+00  0.00000000000E+00  0.27002619467E+03  0.27002619467E+03  0.00000000000E+00 0. -1.
         -1   -1    0    0    0  501 -0.00000000000E+00 -0.00000000000E+00 -0.24148886859E+04  0.24148886859E+04  0.00000000000E+00 0.  1.
         23    2    1    2    0    0 -0.22187695228E+03 -0.48952786767E+03 -0.90806951938E+03  0.10588414312E+04  0.87681293453E+02 0.  0.
        254    2    1    2    0    0  0.22187695228E+03  0.48952786767E+03 -0.12367929718E+04  0.16260734494E+04  0.90862043359E+03 0.  0.
        -24    2    4    4    0    0 -0.17199428524E+03  0.22394483993E+03  0.56600490295E+01  0.29361760609E+03  0.80286592680E+02 0.  0.
         24    2    4    4    0    0  0.39387123752E+03  0.26558302774E+03 -0.12424530209E+04  0.13324558433E+04  0.77975437402E+02 0.  0.
         11    1    3    3    0    0  0.30544136919E+01 -0.30730224393E+02 -0.30823766999E+02  0.43632336017E+02  0.00000000000E+00 0.  1.
        -11    1    3    3    0    0 -0.22493136597E+03 -0.45879764328E+03 -0.87724575238E+03  0.10152090952E+04  0.00000000000E+00 0. -1.
          4    1    6    6  502    0  0.52142639089E+02  0.60408688021E+02 -0.15666124289E+03  0.17581470196E+03  0.00000000000E+00 0. -1.
          1    1    5    5  503    0 -0.18898300886E+02  0.66347458092E+02  0.24229849733E+02  0.73117826757E+02  0.00000000000E+00 0. -1.
         -2    1    5    5    0  503 -0.15309598435E+03  0.15759738184E+03 -0.18569800703E+02  0.22049977933E+03  0.00000000000E+00 0.  1.
         -3    1    6    6    0  502  0.34172859843E+03  0.20517433972E+03 -0.10857917780E+04  0.11566411413E+04  0.00000000000E+00 0.  1.
<mgrwt>
<rscale>  0 0.16150334E+04</rscale>
<asrwt>0</asrwt>
<pdfrwt beam="1">  1        1 0.41542491E-01 0.16150334E+04</pdfrwt>
<pdfrwt beam="2">  1       -1 0.37152134E+00 0.16150334E+04</pdfrwt>
<totfact> 0.10807261E+00</totfact>
</mgrwt>
</event>
<event>
12    1  0.1536832E-007  0.1469011E+04  0.7818608E-02  0.8905326E-01
          2   -1    0    0  501    0  0.00000000000E+00  0.00000000000E+00  0.40607324332E+04  0.40607324332E+04  0.00000000000E+00 0. -1.
         -2   -1    0    0    0  501 -0.00000000000E+00 -0.00000000000E+00 -0.13285731579E+03  0.13285731579E+03  0.00000000000E+00 0.  1.
         23    2    1    2    0    0  0.49334853179E+02  0.35023059957E+03  0.23573122276E+04  0.23853273776E+04  0.88149642131E+02 0.  0.
        254    2    1    2    0    0 -0.49334853179E+02 -0.35023059957E+03  0.15705628897E+04  0.18082623713E+04  0.82343767963E+03 0.  0.
        -24    2    4    4    0    0 -0.32587993508E+03  0.10855680976E+03  0.55665444412E+03  0.65875268965E+03  0.78157679860E+02 0.  0.
         24    2    4    4    0    0  0.27654508190E+03 -0.45878740933E+03  0.10139084456E+04  0.11495096817E+04  0.79994392609E+02 0.  0.
         11    1    3    3    0    0  0.58043251219E+02  0.11677433028E+03  0.90431881322E+03  0.91367268711E+03  0.00000000000E+00 0.  1.
        -11    1    3    3    0    0 -0.87083980399E+01  0.23345626928E+03  0.14529934144E+04  0.14716546905E+04  0.00000000000E+00 0. -1.
          2    1    6    6  502    0  0.23111002997E+03 -0.41696449938E+03  0.85335566505E+03  0.97749022029E+03  0.00000000000E+00 0. -1.
          1    1    5    5  503    0 -0.12692117790E+03  0.82869046211E+02  0.23282048221E+03  0.27781584036E+03  0.00000000000E+00 0. -1.
         -2    1    5    5    0  503 -0.19895875718E+03  0.25687763553E+02  0.32383396191E+03  0.38093684928E+03  0.00000000000E+00 0.  1.
         -1    1    6    6    0  502  0.45435051928E+02 -0.41822909952E+02  0.16055278057E+03  0.17201946137E+03  0.00000000000E+00 0.  1.
<mgrwt>
<rscale>  0 0.14690106E+04</rscale>
<asrwt>0</asrwt>
<pdfrwt beam="1">  1        2 0.62472797E+00 0.14690106E+04</pdfrwt>
<pdfrwt beam="2">  1       -2 0.20439590E-01 0.14690106E+04</pdfrwt>
<totfact> 0.62415571E+00</totfact>
</mgrwt>
</event>
<event>
12    1  0.1536832E-007  0.1288713E+04  0.7818608E-02  0.9038564E-01
          2   -1    0    0  501    0  0.00000000000E+00  0.00000000000E+00  0.13282089627E+04  0.13282089627E+04  0.00000000000E+00 0. -1.
         -2   -1    0    0    0  501 -0.00000000000E+00 -0.00000000000E+00 -0.31259804310E+03  0.31259804310E+03  0.00000000000E+00 0.  1.
         23    2    1    2    0    0  0.15554995610E+03 -0.25321128513E+03  0.13316353844E+03  0.34369015536E+03  0.10990291696E+03 0.  0.
        254    2    1    2    0    0 -0.15554995610E+03  0.25321128513E+03  0.88244738117E+03  0.12971168505E+04  0.90304318803E+03 0.  0.
        -24    2    4    4    0    0  0.71465904315E+02  0.21797253384E+02  0.95052297929E+03  0.95672480264E+03  0.79031121092E+02 0.  0.
         24    2    4    4    0    0 -0.22701586041E+03  0.23141403175E+03 -0.68075598112E+02  0.34039204782E+03  0.78382422717E+02 0.  0.
         11    1    3    3    0    0  0.18515284000E+01 -0.60312153185E+02 -0.57557481731E+01  0.60614458805E+02  0.00000000000E+00 0. -1.
        -11    1    3    3    0    0  0.15369842770E+03 -0.19289913195E+03  0.13891928662E+03  0.28307569655E+03  0.00000000000E+00 0.  1.
          2    1    6    6  502    0 -0.21607469336E+03  0.21798693306E+03 -0.43017856999E+02  0.30993081827E+03  0.00000000000E+00 0. -1.
          1    1    5    5  503    0  0.28983737684E+02 -0.26384779804E+02  0.51511257033E+03  0.51660156191E+03  0.00000000000E+00 0. -1.
         -2    1    5    5    0  503  0.42482166631E+02  0.48182033188E+02  0.43541040896E+03  0.44012324073E+03  0.00000000000E+00 0.  1.
         -1    1    6    6    0  502 -0.10941167049E+02  0.13427098694E+02 -0.25057741113E+02  0.30461229546E+02  0.00000000000E+00 0.  1.
<mgrwt>
<rscale>  0 0.12887133E+04</rscale>
<asrwt>0</asrwt>
<pdfrwt beam="1">  1        2 0.20433984E+00 0.12887133E+04</pdfrwt>
<pdfrwt beam="2">  1       -2 0.48092008E-01 0.12887133E+04</pdfrwt>
<totfact> 0.63938014E+01</totfact>
</mgrwt>
</event>
<event>
12    1  0.1536832E-007  0.2029953E+04  0.7818608E-02  0.8592744E-01
          2   -1    0    0  501    0  0.00000000000E+00  0.00000000000E+00  0.25230806789E+04  0.25230806789E+04  0.00000000000E+00 0.  1.
         -2   -1    0    0    0  501 -0.00000000000E+00 -0.00000000000E+00 -0.40830119258E+03  0.40830119258E+03  0.00000000000E+00 0. -1.
         23    2    1    2    0    0  0.54744903793E+03  0.58220769015E+03  0.79705561211E+03  0.11325703184E+04  0.93550167229E+02 0.  0.
        254    2    1    2    0    0 -0.54744903793E+03 -0.58220769015E+03  0.13177238742E+04  0.17988115530E+04  0.92771792648E+03 0.  0.
        -24    2    4    4    0    0 -0.23672849489E+03  0.74452975693E+02  0.94098271644E+03  0.97654141721E+03  0.81246790738E+02 0.  0.
         24    2    4    4    0    0 -0.31072054304E+03 -0.65666066585E+03  0.37674115776E+03  0.82227013583E+03  0.80273223397E+02 0.  0.
         13    1    3    3    0    0  0.23856639994E+03  0.25525738365E+03  0.28382999042E+03  0.45014411309E+03  0.00000000000E+00 0. -1.
        -13    1    3    3    0    0  0.30888263799E+03  0.32695030651E+03  0.51322562170E+03  0.68242620535E+03  0.00000000000E+00 0.  1.
          2    1    6    6  502    0 -0.13950740555E+03 -0.31898502869E+03  0.22416122778E+03  0.41407972755E+03  0.00000000000E+00 0. -1.
          1    1    5    5  503    0 -0.21772425298E+03  0.90863228405E+02  0.84267195424E+03  0.87507485341E+03  0.00000000000E+00 0. -1.
         -2    1    5    5    0  503 -0.19004241915E+02 -0.16410252712E+02  0.98310762194E+02  0.10146656379E+03  0.00000000000E+00 0.  1.
         -1    1    6    6    0  502 -0.17121313749E+03 -0.33767563715E+03  0.15257992998E+03  0.40819040828E+03  0.00000000000E+00 0.  1.
<mgrwt>
<rscale>  0 0.20299526E+04</rscale>
<asrwt>0</asrwt>
<pdfrwt beam="1">  1        2 0.38816625E+00 0.20299526E+04</pdfrwt>
<pdfrwt beam="2">  1       -2 0.62815570E-01 0.20299526E+04</pdfrwt>
<totfact> 0.73528564E+00</totfact>
</mgrwt>
</event>
<event>
12    1  0.1536832E-007  0.2725623E+04  0.7818608E-02  0.8326739E-01
         -1   -1    0    0    0  501 -0.00000000000E+00  0.00000000000E+00  0.14011558934E+04  0.14011558934E+04  0.00000000000E+00 0.  1.
          1   -1    0    0  501    0  0.00000000000E+00 -0.00000000000E+00 -0.13255161677E+04  0.13255161677E+04  0.00000000000E+00 0. -1.
         23    2    1    2    0    0  0.59695766320E+03 -0.65594570847E+03  0.87551611443E+03  0.12494954475E+04  0.89928764590E+02 0.  0.
        254    2    1    2    0    0 -0.59695766320E+03  0.65594570847E+03 -0.79987638875E+03  0.14771766135E+04  0.86926709717E+03 0.  0.
        -24    2    4    4    0    0 -0.57688227262E+03  0.27689804548E+03 -0.86980785413E+03  0.10827842094E+04  0.79939082800E+02 0.  0.
         24    2    4    4    0    0 -0.20075390579E+02  0.37904766300E+03  0.69931465375E+02  0.39439240415E+03  0.81085180368E+02 0.  0.
         13    1    3    3    0    0  0.33326357444E+03 -0.33507876584E+03  0.41014775600E+03  0.62575040641E+03  0.00000000000E+00 0. -1.
        -13    1    3    3    0    0  0.26369408876E+03 -0.32086694263E+03  0.46536835843E+03  0.62374504113E+03  0.00000000000E+00 0.  1.
          4    1    6    6  502    0 -0.30660148135E+02  0.56750459544E+02  0.23222668409E+02  0.68556193521E+02  0.00000000000E+00 0. -1.
          1    1    5    5  503    0 -0.11179672749E+03  0.23282064787E+02 -0.17731903238E+03  0.21090898999E+03  0.00000000000E+00 0. -1.
         -2    1    5    5    0  503 -0.46508554514E+03  0.25361598069E+03 -0.69248882175E+03  0.87187521940E+03  0.00000000000E+00 0.  1.
         -3    1    6    6    0  502  0.10584757556E+02  0.32229720345E+03  0.46708796966E+02  0.32583621063E+03  0.00000000000E+00 0.  1.
<mgrwt>
<rscale>  0 0.27256227E+04</rscale>
<asrwt>0</asrwt>
<pdfrwt beam="1">  1        1 0.20392557E+00 0.27256227E+04</pdfrwt>
<pdfrwt beam="2">  1       -1 0.21556244E+00 0.27256227E+04</pdfrwt>
<totfact> 0.89085680E-01</totfact>
</mgrwt>
</event>
<event>
12    1  0.1536832E-007  0.2834023E+04  0.7818608E-02  0.8292783E-01
         -2   -1    0    0    0  501 -0.00000000000E+00  0.00000000000E+00  0.49546747251E+03  0.49546747251E+03  0.00000000000E+00 0.  1.
          2   -1    0    0  501    0  0.00000000000E+00 -0.00000000000E+00 -0.40525792817E+04  0.40525792817E+04  0.00000000000E+00 0. -1.
         23    2    1    2    0    0  0.10929724906E+04 -0.45608306045E+03 -0.23223652914E+04  0.26091940263E+04  0.10914346838E+03 0.  0.
        254    2    1    2    0    0 -0.10929724906E+04  0.45608306045E+03 -0.12347465178E+04  0.19388527280E+04  0.91211310395E+03 0.  0.
        -24    2    4    4    0    0 -0.11579528466E+03  0.12008242931E+03 -0.78950800054E+03  0.81084191845E+03  0.79456881483E+02 0.  0.
         24    2    4    4    0    0 -0.97717720592E+03  0.33600063114E+03 -0.44523851724E+03  0.11280108095E+04  0.79995832817E+02 0.  0.
         11    1    3    3    0    0  0.27003599183E+03 -0.93691890014E+02 -0.46943465274E+03  0.54960576810E+03  0.00000000000E+00 0. -1.
        -11    1    3    3    0    0  0.82293649874E+03 -0.36239117044E+03 -0.18529306387E+04  0.20595882582E+04  0.00000000000E+00 0.  1.
          2    1    6    6  502    0 -0.53368884874E+03  0.19514154531E+03 -0.28629592207E+03  0.63629345822E+03  0.00000000000E+00 0. -1.
          3    1    5    5  503    0 -0.40178716527E+02  0.90276575384E+02 -0.52154517009E+03  0.53082346761E+03  0.00000000000E+00 0. -1.
         -4    1    5    5    0  503 -0.75616568131E+02  0.29805853925E+02 -0.26796283046E+03  0.28001845084E+03  0.00000000000E+00 0.  1.
         -1    1    6    6    0  502 -0.44348835718E+03  0.14085908583E+03 -0.15894259517E+03  0.49171735130E+03  0.00000000000E+00 0.  1.
<mgrwt>
<rscale>  0 0.28340227E+04</rscale>
<asrwt>0</asrwt>
<pdfrwt beam="1">  1        2 0.62347374E+00 0.28340227E+04</pdfrwt>
<pdfrwt beam="2">  1       -2 0.76225765E-01 0.28340227E+04</pdfrwt>
<totfact> 0.41441184E-01</totfact>
</mgrwt>
</event>
<event>
12    1  0.1536832E-007  0.1201054E+04  0.7818608E-02  0.9111934E-01
          2   -1    0    0  501    0  0.00000000000E+00  0.00000000000E+00  0.14756713763E+04  0.14756713763E+04  0.00000000000E+00 0.  1.
         -2   -1    0    0    0  501 -0.00000000000E+00 -0.00000000000E+00 -0.24438562491E+03  0.24438562491E+03  0.00000000000E+00 0. -1.
         23    2    1    2    0    0  0.34994852589E+02 -0.10627236807E+03  0.50619556313E+03  0.52649705886E+03  0.91906196369E+02 0.  0.
        254    2    1    2    0    0 -0.34994852589E+02  0.10627236807E+03  0.72509018826E+03  0.11935599424E+04  0.94144096946E+03 0.  0.
        -24    2    4    4    0    0 -0.19420166974E+03 -0.21739628299E+03  0.76417993211E+03  0.82201080153E+03  0.82190977660E+02 0.  0.
         24    2    4    4    0    0  0.15920681715E+03  0.32366865107E+03 -0.39089743843E+02  0.37154914083E+03  0.80078397020E+02 0.  0.
         11    1    3    3    0    0  0.43063007911E+02 -0.84200936798E+02  0.22165694654E+03  0.24098967272E+03  0.00000000000E+00 0.  1.
        -11    1    3    3    0    0 -0.80681553221E+01 -0.22071431274E+02  0.28453861660E+03  0.28550738615E+03  0.00000000000E+00 0. -1.
          2    1    6    6  502    0  0.15221089752E+03  0.23152173292E+03 -0.29480654896E+02  0.27863879692E+03  0.00000000000E+00 0. -1.
          1    1    5    5  503    0 -0.15481082181E+03 -0.14208355678E+03  0.45178947504E+03  0.49826484665E+03  0.00000000000E+00 0. -1.
         -2    1    5    5    0  503 -0.39390847927E+02 -0.75312726217E+02  0.31239045707E+03  0.32374595488E+03  0.00000000000E+00 0.  1.
         -1    1    6    6    0  502  0.69959196383E+01  0.92146918148E+02 -0.96090889479E+01  0.92910343914E+02  0.00000000000E+00 0.  1.
<mgrwt>
<rscale>  0 0.12010543E+04</rscale>
<asrwt>0</asrwt>
<pdfrwt beam="1">  1        2 0.22702636E+00 0.12010543E+04</pdfrwt>
<pdfrwt beam="2">  1       -2 0.37597790E-01 0.12010543E+04</pdfrwt>
<totfact> 0.86224178E+01</totfact>
</mgrwt>
</event>
<event>
12    1  0.1536832E-007  0.1250909E+04  0.7818608E-02  0.9069427E-01
         -2   -1    0    0    0  501 -0.00000000000E+00  0.00000000000E+00  0.47007257768E+04  0.47007257768E+04  0.00000000000E+00 0. -1.
          2   -1    0    0  501    0  0.00000000000E+00 -0.00000000000E+00 -0.83219775583E+02  0.83219775583E+02  0.00000000000E+00 0.  1.
         23    2    1    2    0    0  0.11514185731E+03 -0.96400617820E+02  0.20487725750E+04  0.20563374870E+04  0.92217514990E+02 0.  0.
        254    2    1    2    0    0 -0.11514185731E+03  0.96400617820E+02  0.25687334262E+04  0.27276080653E+04  0.90493293497E+03 0.  0.
        -24    2    4    4    0    0 -0.46442411260E+03  0.11655841774E+03  0.19766700752E+04  0.20354491298E+04  0.80950310672E+02 0.  0.
         24    2    4    4    0    0  0.34928225528E+03 -0.20157799915E+02  0.59206335105E+03  0.69215893557E+03  0.78361659437E+02 0.  0.
         13    1    3    3    0    0  0.13050357440E+03 -0.82582715387E+02  0.17216022146E+04  0.17285153378E+04  0.00000000000E+00 0. -1.
        -13    1    3    3    0    0 -0.15361717083E+02 -0.13817902433E+02  0.32717036038E+03  0.32782214917E+03  0.00000000000E+00 0.  1.
          2    1    6    6  502    0  0.33765526970E+02  0.18308728823E+02  0.42407567639E+02  0.57216450045E+02  0.00000000000E+00 0. -1.
          3    1    5    5  503    0 -0.12018700272E+03  0.15782891691E+02  0.37490571111E+03  0.39401561836E+03  0.00000000000E+00 0. -1.
         -4    1    5    5    0  503 -0.34423710988E+03  0.10077552604E+03  0.16017643640E+04  0.16414335114E+04  0.00000000000E+00 0.  1.
         -1    1    6    6    0  502  0.31551672831E+03 -0.38466528738E+02  0.54965578342E+03  0.63494248552E+03  0.00000000000E+00 0.  1.
<mgrwt>
<rscale>  0 0.12509090E+04</rscale>
<asrwt>0</asrwt>
<pdfrwt beam="1">  1        2 0.12803046E-01 0.12509090E+04</pdfrwt>
<pdfrwt beam="2">  1       -2 0.72318837E+00 0.12509090E+04</pdfrwt>
<totfact> 0.91473743E-02</totfact>
</mgrwt>
</event>
<event>
12    1  0.1536832E-007  0.1488100E+04  0.7818608E-02  0.8892405E-01
          2   -1    0    0  501    0  0.00000000000E+00  0.00000000000E+00  0.16418439292E+04  0.16418439292E+04  0.00000000000E+00 0. -1.
         -2   -1    0    0    0  501 -0.00000000000E+00 -0.00000000000E+00 -0.33718819930E+03  0.33718819930E+03  0.00000000000E+00 0.  1.
         23    2    1    2    0    0  0.34228796960E+03  0.21453110545E+03  0.10688216162E+03  0.42852464535E+03  0.94999609798E+02 0.  0.
        254    2    1    2    0    0 -0.34228796960E+03 -0.21453110545E+03  0.11977735682E+04  0.15505074831E+04  0.89790160102E+03 0.  0.
        -24    2    4    4    0    0 -0.30551608973E+03 -0.52470738515E+03  0.53319772596E+03  0.81191129969E+03  0.79007736850E+02 0.  0.
         24    2    4    4    0    0 -0.36771879867E+02  0.31017627970E+03  0.66457584227E+03  0.73859618343E+03  0.79383728853E+02 0.  0.
         11    1    3    3    0    0  0.99768744088E+02  0.16837536742E+02  0.14008298502E+02  0.10214468840E+03  0.00000000000E+00 0. -1.
        -11    1    3    3    0    0  0.24251922551E+03  0.19769356871E+03  0.92873863123E+02  0.32637995695E+03  0.00000000000E+00 0.  1.
          4    1    6    6  502    0 -0.62088187042E+02  0.22332219355E+03  0.47455444049E+03  0.52813791957E+03  0.00000000000E+00 0. -1.
          1    1    5    5  503    0 -0.13742062246E+03 -0.26408845076E+03  0.21232179806E+03  0.36566061209E+03  0.00000000000E+00 0. -1.
         -2    1    5    5    0  503 -0.16809546727E+03 -0.26061893438E+03  0.32087592789E+03  0.44625068759E+03  0.00000000000E+00 0.  1.
         -3    1    6    6    0  502  0.25316307176E+02  0.86854086148E+02  0.19002140178E+03  0.21045826385E+03  0.00000000000E+00 0.  1.
<mgrwt>
<rscale>  0 0.14881000E+04</rscale>
<asrwt>0</asrwt>
<pdfrwt beam="1">  1        2 0.25259137E+00 0.14881000E+04</pdfrwt>
<pdfrwt beam="2">  1       -2 0.51875109E-01 0.14881000E+04</pdfrwt>
<totfact> 0.35853338E+01</totfact>
</mgrwt>
</event>
<event>
12    1  0.1536832E-007  0.1764995E+04  0.7818608E-02  0.8725140E-01
          2   -1    0    0  501    0  0.00000000000E+00  0.00000000000E+00  0.12631763210E+04  0.12631763210E+04  0.00000000000E+00 0. -1.
         -2   -1    0    0    0  501 -0.00000000000E+00 -0.00000000000E+00 -0.61654215390E+03  0.61654215390E+03  0.00000000000E+00 0.  1.
         23    2    1    2    0    0 -0.83595523248E+01  0.14112734847E+03 -0.43710007090E+03  0.46852640644E+03  0.92052761773E+02 0.  0.
        254    2    1    2    0    0  0.83595523248E+01 -0.14112734847E+03  0.10837342380E+04  0.14111920685E+04  0.89274651772E+03 0.  0.
        -24    2    4    4    0    0 -0.15051067497E+03  0.18790687475E+03  0.99423491945E+03  0.10268876384E+04  0.89625275633E+02 0.  0.
         24    2    4    4    0    0  0.15887022730E+03 -0.32903422322E+03  0.89499318568E+02  0.38430443007E+03  0.78590697757E+02 0.  0.
         11    1    3    3    0    0 -0.22598161789E+02  0.52438269455E+02 -0.29456788349E+03  0.30005114064E+03  0.00000000000E+00 0. -1.
        -11    1    3    3    0    0  0.14238609464E+02  0.88689079019E+02 -0.14253218741E+03  0.16847526579E+03  0.00000000000E+00 0.  1.
          4    1    6    6  502    0  0.15343189839E+02 -0.10824812551E+03  0.39602413119E+02  0.11628164634E+03  0.00000000000E+00 0. -1.
          1    1    5    5  503    0 -0.65136192333E+02  0.14892174122E+03  0.59901165438E+03  0.62067332039E+03  0.00000000000E+00 0. -1.
         -2    1    5    5    0  503 -0.85374482637E+02  0.38985133523E+02  0.39522326507E+03  0.40621431803E+03  0.00000000000E+00 0.  1.
         -3    1    6    6    0  502  0.14352703746E+03 -0.22078609771E+03  0.49896905449E+02  0.26802278373E+03  0.00000000000E+00 0.  1.
<mgrwt>
<rscale>  0 0.17649946E+04</rscale>
<asrwt>0</asrwt>
<pdfrwt beam="1">  1        2 0.19433482E+00 0.17649946E+04</pdfrwt>
<pdfrwt beam="2">  1       -2 0.94852639E-01 0.17649946E+04</pdfrwt>
<totfact> 0.15387703E+01</totfact>
</mgrwt>
</event>
<event>
12    1  0.1536832E-007  0.1810728E+04  0.7818608E-02  0.8700615E-01
          1   -1    0    0  501    0  0.00000000000E+00  0.00000000000E+00  0.18898881760E+04  0.18898881760E+04  0.00000000000E+00 0. -1.
         -1   -1    0    0    0  501 -0.00000000000E+00 -0.00000000000E+00 -0.43372083766E+03  0.43372083766E+03  0.00000000000E+00 0.  1.
         23    2    1    2    0    0  0.39360533530E+03 -0.60762728204E+02  0.12447842159E+04  0.13102234590E+04  0.92630983850E+02 0.  0.
        254    2    1    2    0    0 -0.39360533530E+03  0.60762728204E+02  0.21138312241E+03  0.10133855547E+04  0.90755175546E+03 0.  0.
        -24    2    4    4    0    0 -0.60893056232E+03  0.17910088491E+03 -0.55182731016E+02  0.64182056686E+03  0.77556105777E+02 0.  0.
         24    2    4    4    0    0  0.21532522701E+03 -0.11833815670E+03  0.26656585343E+03  0.37156498780E+03  0.81451293558E+02 0.  0.
         13    1    3    3    0    0  0.64684945273E+02 -0.44110057127E+02  0.20083089271E+03  0.21555251506E+03  0.00000000000E+00 0.  1.
        -13    1    3    3    0    0  0.32892039003E+03 -0.16652671077E+02  0.10439533232E+04  0.10946709440E+04  0.00000000000E+00 0. -1.
          4    1    6    6  502    0  0.16616671363E+03 -0.89470485147E+02  0.14739716185E+03  0.23946245583E+03  0.00000000000E+00 0. -1.
          3    1    5    5  503    0 -0.57391771587E+03  0.16503897869E+03 -0.33078845759E+02  0.59809164775E+03  0.00000000000E+00 0. -1.
         -4    1    5    5    0  503 -0.35012846454E+02  0.14061906215E+02 -0.22103885257E+02  0.43728919111E+02  0.00000000000E+00 0.  1.
         -3    1    6    6    0  502  0.49158513383E+02 -0.28867671558E+02  0.11916869158E+03  0.13210253197E+03  0.00000000000E+00 0.  1.
<mgrwt>
<rscale>  0 0.18107279E+04</rscale>
<asrwt>0</asrwt>
<pdfrwt beam="1">  1        1 0.29075202E+00 0.18107279E+04</pdfrwt>
<pdfrwt beam="2">  1       -1 0.66726284E-01 0.18107279E+04</pdfrwt>
<totfact> 0.75934471E+00</totfact>
</mgrwt>
</event>
<event>
12    1  0.1536832E-007  0.1958347E+04  0.7818608E-02  0.8626346E-01
          2   -1    0    0  501    0  0.00000000000E+00  0.00000000000E+00  0.16699037927E+04  0.16699037927E+04  0.00000000000E+00 0. -1.
         -2   -1    0    0    0  501 -0.00000000000E+00 -0.00000000000E+00 -0.57415345720E+03  0.57415345720E+03  0.00000000000E+00 0.  1.
         23    2    1    2    0    0 -0.15532154354E+03 -0.74334676685E+03  0.57756160402E+03  0.95848176307E+03  0.91764295972E+02 0.  0.
        254    2    1    2    0    0  0.15532154354E+03  0.74334676685E+03  0.51818873152E+03  0.12855754869E+04  0.89860757470E+03 0.  0.
        -24    2    4    4    0    0 -0.41726011894E+02  0.68474802027E+03 -0.34155962326E+02  0.69106057844E+03  0.76007775798E+02 0.  0.
         24    2    4    4    0    0  0.19704755543E+03  0.58598746584E+02  0.55234469385E+03  0.59451490843E+03  0.78113784502E+02 0.  0.
         11    1    3    3    0    0 -0.64169436774E+02 -0.19427558583E+03  0.19856898475E+03  0.28511464636E+03  0.00000000000E+00 0. -1.
        -11    1    3    3    0    0 -0.91152106762E+02 -0.54907118103E+03  0.37899261927E+03  0.67336711671E+03  0.00000000000E+00 0.  1.
          2    1    6    6  502    0  0.83397549835E+02  0.30598505708E+02  0.34662792957E+03  0.35783004546E+03  0.00000000000E+00 0. -1.
          3    1    5    5  503    0  0.14146541317E+02  0.28749310558E+03  0.58961462348E+01  0.28790132846E+03  0.00000000000E+00 0. -1.
         -4    1    5    5    0  503 -0.55872553211E+02  0.39725491469E+03 -0.40052108561E+02  0.40315924998E+03  0.00000000000E+00 0.  1.
         -1    1    6    6    0  502  0.11365000560E+03  0.28000240876E+02  0.20571676427E+03  0.23668486298E+03  0.00000000000E+00 0.  1.
<mgrwt>
<rscale>  0 0.19583473E+04</rscale>
<asrwt>0</asrwt>
<pdfrwt beam="1">  1        2 0.25690827E+00 0.19583473E+04</pdfrwt>
<pdfrwt beam="2">  1       -2 0.88331302E-01 0.19583473E+04</pdfrwt>
<totfact> 0.10483992E+01</totfact>
</mgrwt>
</event>
<event>
12    1  0.1536832E-007  0.2082218E+04  0.7818608E-02  0.8569117E-01
          2   -1    0    0  501    0  0.00000000000E+00  0.00000000000E+00  0.20532732026E+04  0.20532732026E+04  0.00000000000E+00 0. -1.
         -2   -1    0    0    0  501 -0.00000000000E+00 -0.00000000000E+00 -0.52789255026E+03  0.52789255026E+03  0.00000000000E+00 0.  1.
         23    2    1    2    0    0 -0.69718622150E+03  0.38192239290E+03  0.98417256694E+03  0.12684402680E+04  0.91715486220E+02 0.  0.
        254    2    1    2    0    0  0.69718622150E+03 -0.38192239290E+03  0.54120808538E+03  0.13127254848E+04  0.89353716494E+03 0.  0.
        -24    2    4    4    0    0  0.42237186289E+03  0.24566384214E+03  0.14116269309E+03  0.51508113662E+03  0.81442970776E+02 0.  0.
         24    2    4    4    0    0  0.27481435862E+03 -0.62758623505E+03  0.40004539229E+03  0.79764434818E+03  0.82539543104E+02 0.  0.
         13    1    3    3    0    0 -0.54156773363E+03  0.25734988768E+03  0.70685193120E+03  0.92691112165E+03  0.00000000000E+00 0. -1.
        -13    1    3    3    0    0 -0.15561848787E+03  0.12457250523E+03  0.27732063574E+03  0.34152914639E+03  0.00000000000E+00 0.  1.
          4    1    6    6  502    0  0.17958819856E+03 -0.48837214445E+03  0.32081640561E+03  0.61129570475E+03  0.00000000000E+00 0. -1.
          1    1    5    5  503    0  0.86324158806E+02  0.18945649161E+02  0.41483801566E+02  0.97630445088E+02  0.00000000000E+00 0. -1.
         -2    1    5    5    0  503  0.33604770408E+03  0.22671819298E+03  0.99678891525E+02  0.41745069153E+03  0.00000000000E+00 0.  1.
         -3    1    6    6    0  502  0.95226160053E+02 -0.13921409060E+03  0.79228986677E+02  0.18634864343E+03  0.00000000000E+00 0.  1.
<mgrwt>
<rscale>  0 0.20822177E+04</rscale>
<asrwt>0</asrwt>
<pdfrwt beam="1">  1        2 0.31588818E+00 0.20822177E+04</pdfrwt>
<pdfrwt beam="2">  1       -2 0.81214240E-01 0.20822177E+04</pdfrwt>
<totfact> 0.76935761E+00</totfact>
</mgrwt>
</event>
<event>
12    1  0.1536832E-007  0.1196688E+04  0.7818608E-02  0.9115761E-01
          2   -1    0    0  501    0  0.00000000000E+00  0.00000000000E+00  0.22737804934E+04  0.22737804934E+04  0.00000000000E+00 0. -1.
         -2   -1    0    0    0  501 -0.00000000000E+00 -0.00000000000E+00 -0.15745381201E+03  0.15745381201E+03  0.00000000000E+00 0.  1.
         23    2    1    2    0    0 -0.49383650178E+02 -0.22179218150E+03  0.29744509944E+03  0.38956795304E+03  0.10797724840E+03 0.  0.
        254    2    1    2    0    0  0.49383650178E+02  0.22179218150E+03  0.18188815819E+04  0.20416663523E+04  0.89913334302E+03 0.  0.
        -24    2    4    4    0    0 -0.68423578545E+01  0.55915159558E+03  0.12702670150E+04  0.13902206328E+04  0.80235863073E+02 0.  0.
         24    2    4    4    0    0  0.56226008033E+02 -0.33735941408E+03  0.54861456687E+03  0.65144571951E+03  0.80192544768E+02 0.  0.
         11    1    3    3    0    0 -0.13154465747E+02 -0.90142312573E+02  0.42857156440E+02  0.10067478504E+03  0.00000000000E+00 0.  1.
        -11    1    3    3    0    0 -0.36229184432E+02 -0.13164986893E+03  0.25458794300E+03  0.28889316800E+03  0.00000000000E+00 0. -1.
          2    1    6    6  502    0 -0.39627559530E+01 -0.86818801926E+02  0.19888594803E+03  0.21704568212E+03  0.00000000000E+00 0. -1.
          3    1    5    5  503    0 -0.40477159842E+02  0.26615748073E+03  0.56970092069E+03  0.63010899379E+03  0.00000000000E+00 0. -1.
         -4    1    5    5    0  503  0.33634801987E+02  0.29299411485E+03  0.70056609434E+03  0.76011163902E+03  0.00000000000E+00 0.  1.
         -1    1    6    6    0  502  0.60188763986E+02 -0.25054061215E+03  0.34972861884E+03  0.43440003739E+03  0.00000000000E+00 0.  1.
<mgrwt>
<rscale>  0 0.11966878E+04</rscale>
<asrwt>0</asrwt>
<pdfrwt beam="1">  1        2 0.34981236E+00 0.11966878E+04</pdfrwt>
<pdfrwt beam="2">  1       -2 0.24223665E-01 0.11966878E+04</pdfrwt>
<totfact> 0.70599065E+01</totfact>
</mgrwt>
</event>
<event>
12    1  0.1536832E-007  0.2618763E+04  0.7818608E-02  0.8361856E-01
         -2   -1    0    0    0  501 -0.00000000000E+00  0.00000000000E+00  0.58589097579E+03  0.58589097579E+03  0.00000000000E+00 0.  1.
          2   -1    0    0  501    0  0.00000000000E+00 -0.00000000000E+00 -0.29262790279E+04  0.29262790279E+04  0.00000000000E+00 0. -1.
         23    2    1    2    0    0 -0.58262369863E+02  0.79928949149E+03 -0.21434844776E+04  0.22900816929E+04  0.87694126162E+02 0.  0.
        254    2    1    2    0    0  0.58262369863E+02 -0.79928949149E+03 -0.19690357460E+03  0.12220883108E+04  0.90137152539E+03 0.  0.
        -24    2    4    4    0    0  0.17093334799E+03 -0.82567195640E+03 -0.43019243009E+03  0.95001239179E+03  0.80657477110E+02 0.  0.
         24    2    4    4    0    0 -0.11267097813E+03  0.26382464911E+02  0.23328885549E+03  0.27207591902E+03  0.78808831042E+02 0.  0.
         13    1    3    3    0    0 -0.41117759093E+02  0.46963683983E+03 -0.13796062580E+04  0.14579310198E+04  0.00000000000E+00 0. -1.
        -13    1    3    3    0    0 -0.17144610770E+02  0.32965265166E+03 -0.76387821955E+03  0.83215067309E+03  0.00000000000E+00 0.  1.
          4    1    6    6  502    0 -0.82518105180E+02  0.50399825619E+02  0.19544674854E+03  0.21805689996E+03  0.00000000000E+00 0. -1.
          3    1    5    5  503    0  0.83960314904E+02 -0.51111421837E+03 -0.22665201141E+03  0.56538324434E+03  0.00000000000E+00 0. -1.
         -4    1    5    5    0  503  0.86973033086E+02 -0.31455773803E+03 -0.20354041867E+03  0.38462914746E+03  0.00000000000E+00 0.  1.
         -3    1    6    6    0  502 -0.30152872947E+02 -0.24017360708E+02  0.37842106949E+02  0.54019019065E+02  0.00000000000E+00 0.  1.
<mgrwt>
<rscale>  0 0.26187634E+04</rscale>
<asrwt>0</asrwt>
<pdfrwt beam="1">  1        2 0.45019677E+00 0.26187634E+04</pdfrwt>
<pdfrwt beam="2">  1       -2 0.90137074E-01 0.26187634E+04</pdfrwt>
<totfact> 0.17997744E+00</totfact>
</mgrwt>
</event>
<event>
12    1  0.1536832E-007  0.1834466E+04  0.7818608E-02  0.8688182E-01
          1   -1    0    0  501    0  0.00000000000E+00  0.00000000000E+00  0.64588109185E+03  0.64588109185E+03  0.00000000000E+00 0. -1.
         -1   -1    0    0    0  501 -0.00000000000E+00 -0.00000000000E+00 -0.13025873688E+04  0.13025873688E+04  0.00000000000E+00 0.  1.
         23    2    1    2    0    0 -0.19429283599E+02  0.45532455742E+03  0.29671155253E+03  0.55135550633E+03  0.90869132855E+02 0.  0.
        254    2    1    2    0    0  0.19429283599E+02 -0.45532455742E+03 -0.95341782947E+03  0.13971129543E+04  0.91390431658E+03 0.  0.
        -24    2    4    4    0    0 -0.23528236222E+02 -0.54107537386E+02 -0.97925319862E+03  0.98429016729E+03  0.80056873036E+02 0.  0.
         24    2    4    4    0    0  0.42957519821E+02 -0.40121702004E+03  0.25835369147E+02  0.41282278701E+03  0.83275095308E+02 0.  0.
         11    1    3    3    0    0 -0.42210703868E+02  0.10659267381E+03  0.85450168854E+02  0.14298766726E+03  0.00000000000E+00 0.  1.
        -11    1    3    3    0    0  0.22781420269E+02  0.34873188361E+03  0.21126138368E+03  0.40836783907E+03  0.00000000000E+00 0. -1.
          4    1    6    6  502    0 -0.37708972920E+01 -0.28559838598E+03  0.77071888850E+00  0.28562431925E+03  0.00000000000E+00 0. -1.
          1    1    5    5  503    0  0.29931078159E+02 -0.19641532587E+02 -0.33887299215E+03  0.34075880628E+03  0.00000000000E+00 0. -1.
         -4    1    5    5    0  503 -0.53459314381E+02 -0.34466004799E+02 -0.64038020646E+03  0.64353136102E+03  0.00000000000E+00 0.  1.
         -3    1    6    6    0  502  0.46728417113E+02 -0.11561863405E+03  0.25064650258E+02  0.12719846775E+03  0.00000000000E+00 0.  1.
<mgrwt>
<rscale>  0 0.18344662E+04</rscale>
<asrwt>0</asrwt>
<pdfrwt beam="1">  1        1 0.99366323E-01 0.18344662E+04</pdfrwt>
<pdfrwt beam="2">  1       -1 0.20039805E+00 0.18344662E+04</pdfrwt>
<totfact> 0.43253024E+00</totfact>
</mgrwt>
</event>
<event>
12    1  0.1536832E-007  0.1765829E+04  0.7818608E-02  0.8724685E-01
         -2   -1    0    0    0  501 -0.00000000000E+00  0.00000000000E+00  0.30328719968E+03  0.30328719968E+03  0.00000000000E+00 0.  1.
          2   -1    0    0  501    0  0.00000000000E+00 -0.00000000000E+00 -0.25702961684E+04  0.25702961684E+04  0.00000000000E+00 0. -1.
         23    2    1    2    0    0  0.77265900292E+02  0.59448266922E+03 -0.12416474247E+04  0.13817961222E+04  0.91063344485E+02 0.  0.
        254    2    1    2    0    0 -0.77265900292E+02 -0.59448266922E+03 -0.10253615441E+04  0.14917872459E+04  0.90259804326E+03 0.  0.
        -24    2    4    4    0    0  0.37745145748E+00 -0.68482097243E+03 -0.11235469216E+04  0.13181457178E+04  0.78552794108E+02 0.  0.
         24    2    4    4    0    0 -0.77643351749E+02  0.90338303209E+02  0.98185377577E+02  0.17364152813E+03  0.79507941881E+02 0.  0.
         11    1    3    3    0    0  0.46277237063E+01  0.34837079837E+03 -0.76015896984E+03  0.83619691964E+03  0.00000000000E+00 0. -1.
        -11    1    3    3    0    0  0.72638176585E+02  0.24611187085E+03 -0.48148845481E+03  0.54559920252E+03  0.00000000000E+00 0.  1.
          2    1    6    6  502    0  0.11001753029E+02 -0.57407020302E+01  0.69053512607E+01  0.14201341681E+02  0.00000000000E+00 0. -1.
          3    1    5    5  503    0  0.42679646558E+01 -0.12183230870E+02 -0.71259240036E+01  0.14745352815E+02  0.00000000000E+00 0. -1.
         -4    1    5    5    0  503 -0.38905131983E+01 -0.67263774156E+03 -0.11164209976E+04  0.13034003650E+04  0.00000000000E+00 0.  1.
         -1    1    6    6    0  502 -0.88645104778E+02  0.96079005239E+02  0.91280026317E+02  0.15944018644E+03  0.00000000000E+00 0.  1.
<mgrwt>
<rscale>  0 0.17658289E+04</rscale>
<asrwt>0</asrwt>
<pdfrwt beam="1">  1        2 0.39543017E+00 0.17658289E+04</pdfrwt>
<pdfrwt beam="2">  1       -2 0.46659571E-01 0.17658289E+04</pdfrwt>
<totfact> 0.13079190E+01</totfact>
</mgrwt>
</event>
<event>
12    1  0.1536832E-007  0.1950561E+04  0.7818608E-02  0.8630090E-01
          2   -1    0    0  501    0  0.00000000000E+00  0.00000000000E+00  0.23807404006E+04  0.23807404006E+04  0.00000000000E+00 0.  1.
         -2   -1    0    0    0  501 -0.00000000000E+00 -0.00000000000E+00 -0.39952794594E+03  0.39952794594E+03  0.00000000000E+00 0. -1.
         23    2    1    2    0    0  0.27821926056E+03 -0.67294825808E+03  0.11055467001E+04  0.13269816634E+04  0.91550607878E+02 0.  0.
        254    2    1    2    0    0 -0.27821926056E+03  0.67294825808E+03  0.87566575451E+03  0.14532866831E+04  0.90276594683E+03 0.  0.
        -24    2    4    4    0    0 -0.35185376057E+03 -0.45996589339E+02  0.54351618092E+03  0.65398250917E+03  0.79790527788E+02 0.  0.
         24    2    4    4    0    0  0.73634500014E+02  0.71894484742E+03  0.33214957360E+03  0.79930417397E+03  0.79120730889E+02 0.  0.
         11    1    3    3    0    0  0.20909015522E+03 -0.54507769432E+03  0.94135745345E+03  0.11076923043E+04  0.00000000000E+00 0.  1.
        -11    1    3    3    0    0  0.69129105338E+02 -0.12787056377E+03  0.16418924669E+03  0.21928935909E+03  0.00000000000E+00 0. -1.
          4    1    6    6  502    0  0.89701515537E+02  0.54769719476E+03  0.25664511655E+03  0.61146160541E+03  0.00000000000E+00 0. -1.
          3    1    5    5  503    0 -0.33213515754E+03 -0.62440314565E+02  0.50853041615E+03  0.61058639021E+03  0.00000000000E+00 0. -1.
         -4    1    5    5    0  503 -0.19718603031E+02  0.16443725225E+02  0.34985764762E+02  0.43396118960E+02  0.00000000000E+00 0.  1.
         -3    1    6    6    0  502 -0.16067015523E+02  0.17124765266E+03  0.75504457051E+02  0.18784256856E+03  0.00000000000E+00 0.  1.
<mgrwt>
<rscale>  0 0.19505613E+04</rscale>
<asrwt>0</asrwt>
<pdfrwt beam="1">  1        2 0.36626774E+00 0.19505613E+04</pdfrwt>
<pdfrwt beam="2">  1       -2 0.61465840E-01 0.19505613E+04</pdfrwt>
<totfact> 0.93629194E+00</totfact>
</mgrwt>
</event>
<event>
12    1  0.1536832E-007  0.1191398E+04  0.7818608E-02  0.9120419E-01
          2   -1    0    0  501    0  0.00000000000E+00  0.00000000000E+00  0.38627610363E+03  0.38627610363E+03  0.00000000000E+00 0.  1.
         -2   -1    0    0    0  501 -0.00000000000E+00 -0.00000000000E+00 -0.91866238518E+03  0.91866238518E+03  0.00000000000E+00 0. -1.
         23    2    1    2    0    0  0.21496463018E+03 -0.55600431992E+02 -0.22233483038E+03  0.32774900500E+03  0.93195671627E+02 0.  0.
        254    2    1    2    0    0 -0.21496463018E+03  0.55600431992E+02 -0.31005145117E+03  0.97718948381E+03  0.89970338703E+03 0.  0.
        -24    2    4    4    0    0 -0.24489347968E+03 -0.39198196376E+03 -0.12978253011E+03  0.48662279994E+03  0.79596281337E+02 0.  0.
         24    2    4    4    0    0  0.29928849503E+02  0.44758239575E+03 -0.18026892106E+03  0.49056668387E+03  0.83264941025E+02 0.  0.
         11    1    3    3    0    0  0.14579720659E+03 -0.52438594783E+02 -0.20391435990E+03  0.25610095245E+03  0.00000000000E+00 0. -1.
        -11    1    3    3    0    0  0.69167423592E+02 -0.31618372094E+01 -0.18420470476E+02  0.71648052544E+02  0.00000000000E+00 0.  1.
          4    1    6    6  502    0  0.22552885510E+00  0.17225506207E+03 -0.11162516720E+03  0.20526089550E+03  0.00000000000E+00 0. -1.
          3    1    5    5  503    0 -0.41146930907E+01 -0.23997361433E+02 -0.24282871511E+02  0.34386943798E+02  0.00000000000E+00 0. -1.
         -4    1    5    5    0  503 -0.24077878659E+03 -0.36798460232E+03 -0.10549965860E+03  0.45223585615E+03  0.00000000000E+00 0.  1.
         -3    1    6    6    0  502  0.29703320648E+02  0.27532733369E+03 -0.68643753865E+02  0.28530578837E+03  0.00000000000E+00 0.  1.
<mgrwt>
<rscale>  0 0.11913980E+04</rscale>
<asrwt>0</asrwt>
<pdfrwt beam="1">  1        2 0.59427093E-01 0.11913980E+04</pdfrwt>
<pdfrwt beam="2">  1       -2 0.14133267E+00 0.11913980E+04</pdfrwt>
<totfact> 0.28588946E+01</totfact>
</mgrwt>
</event>
<event>
12    1  0.1536832E-007  0.1166222E+04  0.7818608E-02  0.9142947E-01
         -1   -1    0    0    0  501 -0.00000000000E+00  0.00000000000E+00  0.15384472522E+04  0.15384472522E+04  0.00000000000E+00 0.  1.
          1   -1    0    0  501    0  0.00000000000E+00 -0.00000000000E+00 -0.22101402434E+03  0.22101402434E+03  0.00000000000E+00 0. -1.
         23    2    1    2    0    0 -0.13510401904E+03 -0.40864451076E+02  0.16383831738E+02  0.16821187317E+03  0.90021136467E+02 0.  0.
        254    2    1    2    0    0  0.13510401904E+03  0.40864451076E+02  0.13010493961E+04  0.15912494034E+04  0.90521938403E+03 0.  0.
        -24    2    4    4    0    0  0.43984212763E+03 -0.18600807790E+03  0.95558488607E+03  0.10713374186E+04  0.81001775820E+02 0.  0.
         24    2    4    4    0    0 -0.30473810859E+03  0.22687252898E+03  0.34546451007E+03  0.51991198480E+03  0.81401996201E+02 0.  0.
         11    1    3    3    0    0 -0.10703127542E+03 -0.44308575269E+02  0.48353557901E+02  0.12552693067E+03  0.00000000000E+00 0.  1.
        -11    1    3    3    0    0 -0.28072743618E+02  0.34441241922E+01 -0.31969726163E+02  0.42684942505E+02  0.00000000000E+00 0. -1.
          4    1    6    6  502    0  0.11746474147E+01 -0.38219215775E+00  0.16303930888E+02  0.16350658390E+02  0.00000000000E+00 0. -1.
          1    1    5    5  503    0  0.12180381271E+03 -0.52063679062E+02  0.35148576106E+03  0.37561820469E+03  0.00000000000E+00 0. -1.
         -4    1    5    5    0  503  0.31803831492E+03 -0.13394439884E+03  0.60409912501E+03  0.69571921389E+03  0.00000000000E+00 0.  1.
         -3    1    6    6    0  502 -0.30591275600E+03  0.22725472113E+03  0.32916057918E+03  0.50356132641E+03  0.00000000000E+00 0.  1.
<mgrwt>
<rscale>  0 0.11662220E+04</rscale>
<asrwt>0</asrwt>
<pdfrwt beam="1">  1        1 0.34002159E-01 0.11662220E+04</pdfrwt>
<pdfrwt beam="2">  1       -1 0.23668419E+00 0.11662220E+04</pdfrwt>
<totfact> 0.11067551E+01</totfact>
</mgrwt>
</event>
<event>
12    1  0.1536832E-007  0.1816188E+04  0.7818608E-02  0.8697738E-01
          2   -1    0    0  501    0  0.00000000000E+00  0.00000000000E+00  0.13732838551E+04  0.13732838551E+04  0.00000000000E+00 0. -1.
         -2   -1    0    0    0  501 -0.00000000000E+00 -0.00000000000E+00 -0.60048367256E+03  0.60048367256E+03  0.00000000000E+00 0.  1.
         23    2    1    2    0    0  0.42065768991E+03 -0.13437421670E+03  0.85599051208E+03  0.96744753760E+03  0.90695419075E+02 0.  0.
        254    2    1    2    0    0 -0.42065768991E+03  0.13437421670E+03 -0.83190329502E+02  0.10063199901E+04  0.90041655324E+03 0.  0.
        -24    2    4    4    0    0 -0.17652352023E+03  0.44446805093E+03  0.18871171159E+03  0.52035716894E+03  0.80293659038E+02 0.  0.
         24    2    4    4    0    0 -0.24413416968E+03 -0.31009383423E+03 -0.27190204109E+03  0.48596282116E+03  0.80432983066E+02 0.  0.
         13    1    3    3    0    0  0.63694710913E+02 -0.55277643329E+02  0.13814264442E+03  0.16185185898E+03  0.00000000000E+00 0.  1.
        -13    1    3    3    0    0  0.35696297900E+03 -0.79096573367E+02  0.71784786766E+03  0.80559567861E+03  0.00000000000E+00 0. -1.
          2    1    6    6  502    0 -0.17798091582E+03 -0.26848879240E+03 -0.23931596011E+03  0.40129237073E+03  0.00000000000E+00 0. -1.
          1    1    5    5  503    0 -0.17240892874E+03  0.38277856121E+03  0.14312545486E+03  0.44354161187E+03  0.00000000000E+00 0. -1.
         -2    1    5    5    0  503 -0.41145914873E+01  0.61689489716E+02  0.45586256724E+02  0.76815557061E+02  0.00000000000E+00 0.  1.
         -1    1    6    6    0  502 -0.66153253866E+02 -0.41605041833E+02 -0.32586080977E+02  0.84670450433E+02  0.00000000000E+00 0.  1.
<mgrwt>
<rscale>  0 0.18161878E+04</rscale>
<asrwt>0</asrwt>
<pdfrwt beam="1">  1        2 0.21127444E+00 0.18161878E+04</pdfrwt>
<pdfrwt beam="2">  1       -2 0.92382103E-01 0.18161878E+04</pdfrwt>
<totfact> 0.14061591E+01</totfact>
</mgrwt>
</event>
<event>
12    1  0.1536832E-007  0.1233609E+04  0.7818608E-02  0.9083937E-01
         -2   -1    0    0    0  501 -0.00000000000E+00  0.00000000000E+00  0.35263686660E+03  0.35263686660E+03  0.00000000000E+00 0.  1.
          2   -1    0    0  501    0  0.00000000000E+00 -0.00000000000E+00 -0.10788650532E+04  0.10788650532E+04  0.00000000000E+00 0. -1.
         23    2    1    2    0    0 -0.93137227968E+02  0.23117724386E+03 -0.31694244400E+03  0.41395831560E+03  0.93763068087E+02 0.  0.
        254    2    1    2    0    0  0.93137227968E+02 -0.23117724386E+03 -0.40928574264E+03  0.10175436042E+04  0.89764286109E+03 0.  0.
        -24    2    4    4    0    0  0.26311907356E+03  0.81455140415E+02 -0.55451977418E+03  0.62427331747E+03  0.79739627366E+02 0.  0.
         24    2    4    4    0    0 -0.16998184559E+03 -0.31263238427E+03  0.14523403154E+03  0.39327028676E+03  0.83281204378E+02 0.  0.
         13    1    3    3    0    0 -0.70415517159E+02  0.22385543477E+03 -0.31055181163E+03  0.38924546039E+03  0.00000000000E+00 0. -1.
        -13    1    3    3    0    0 -0.22721710808E+02  0.73218090928E+01 -0.63906323680E+01  0.24712855208E+02  0.00000000000E+00 0.  1.
          2    1    6    6  502    0 -0.69166452734E+02 -0.14525184960E+03  0.10956387388E+03  0.19464413799E+03  0.00000000000E+00 0. -1.
          3    1    5    5  503    0  0.25964868605E+02  0.67231654055E+01 -0.12613190790E+03  0.12895205910E+03  0.00000000000E+00 0. -1.
         -4    1    5    5    0  503  0.23715420496E+03  0.74731975010E+02 -0.42838786628E+03  0.49532125837E+03  0.00000000000E+00 0.  1.
         -1    1    6    6    0  502 -0.10081539286E+03 -0.16738053468E+03  0.35670157656E+02  0.19862614877E+03  0.00000000000E+00 0.  1.
<mgrwt>
<rscale>  0 0.12336087E+04</rscale>
<asrwt>0</asrwt>
<pdfrwt beam="1">  1        2 0.16597923E+00 0.12336087E+04</pdfrwt>
<pdfrwt beam="2">  1       -2 0.54251827E-01 0.12336087E+04</pdfrwt>
<totfact> 0.70711566E+01</totfact>
</mgrwt>
</event>
<event>
12    1  0.1536832E-007  0.2393488E+04  0.7818608E-02  0.8441946E-01
         -2   -1    0    0    0  501 -0.00000000000E+00  0.00000000000E+00  0.11784383114E+04  0.11784383114E+04  0.00000000000E+00 0.  1.
          2   -1    0    0  501    0  0.00000000000E+00 -0.00000000000E+00 -0.12153338950E+04  0.12153338950E+04  0.00000000000E+00 0. -1.
         23    2    1    2    0    0  0.17563375471E+03  0.84807605409E+03  0.53936227980E+03  0.10242923677E+04  0.90459805365E+02 0.  0.
        254    2    1    2    0    0 -0.17563375471E+03 -0.84807605409E+03 -0.57625786339E+03  0.13694798387E+04  0.89068608061E+03 0.  0.
        -24    2    4    4    0    0  0.26466038380E+03 -0.59684664974E+03 -0.91631018523E+02  0.66368372507E+03  0.76215492589E+02 0.  0.
         24    2    4    4    0    0 -0.44029413851E+03 -0.25122940435E+03 -0.48462684487E+03  0.70579611364E+03  0.79434458791E+02 0.  0.
         13    1    3    3    0    0  0.10385971633E+03  0.46525666915E+03  0.24432553631E+03  0.53567301272E+03  0.00000000000E+00 0. -1.
        -13    1    3    3    0    0  0.71774038378E+02  0.38281938494E+03  0.29503674349E+03  0.48861935500E+03  0.00000000000E+00 0.  1.
          4    1    6    6  502    0 -0.11318293518E+03 -0.71653794387E+02 -0.83088524317E+02  0.15763358126E+03  0.00000000000E+00 0. -1.
          1    1    5    5  503    0  0.13957980026E+03 -0.24650650742E+03 -0.13716491540E+02  0.28361262486E+03  0.00000000000E+00 0. -1.
         -2    1    5    5    0  503  0.12508058354E+03 -0.35034014232E+03 -0.77914526983E+02  0.38007110021E+03  0.00000000000E+00 0.  1.
         -3    1    6    6    0  502 -0.32711120333E+03 -0.17957560996E+03 -0.40153832055E+03  0.54816253238E+03  0.00000000000E+00 0.  1.
<mgrwt>
<rscale>  0 0.23934879E+04</rscale>
<asrwt>0</asrwt>
<pdfrwt beam="1">  1        2 0.18697445E+00 0.23934879E+04</pdfrwt>
<pdfrwt beam="2">  1       -2 0.18129820E+00 0.23934879E+04</pdfrwt>
<totfact> 0.29638206E+00</totfact>
</mgrwt>
</event>
<event>
12    1  0.1536832E-007  0.1572262E+04  0.7818608E-02  0.8837772E-01
         -2   -1    0    0    0  501 -0.00000000000E+00  0.00000000000E+00  0.18257046133E+04  0.18257046133E+04  0.00000000000E+00 0.  1.
          2   -1    0    0  501    0  0.00000000000E+00 -0.00000000000E+00 -0.33850045488E+03  0.33850045488E+03  0.00000000000E+00 0. -1.
         23    2    1    2    0    0  0.22713270583E+03  0.15494155326E+03 -0.10931008572E+03  0.30961417120E+03  0.91192593906E+02 0.  0.
        254    2    1    2    0    0 -0.22713270583E+03 -0.15494155326E+03  0.15965142441E+04  0.18545908970E+04  0.90280314155E+03 0.  0.
        -24    2    4    4    0    0 -0.32875518014E+03  0.31066829862E+03  0.82330602861E+03  0.94284764424E+03  0.80833800265E+02 0.  0.
         24    2    4    4    0    0  0.10162247431E+03 -0.46560985188E+03  0.77320821551E+03  0.91174325272E+03  0.79404992831E+02 0.  0.
         13    1    3    3    0    0  0.15869982291E+03  0.71296078674E+02 -0.32403969262E+02  0.17697113281E+03  0.00000000000E+00 0. -1.
        -13    1    3    3    0    0  0.68432882924E+02  0.83645474586E+02 -0.76906116460E+02  0.13264303839E+03  0.00000000000E+00 0.  1.
          2    1    6    6  502    0  0.72021936889E+01 -0.20469758822E+03  0.35521603517E+03  0.41003829804E+03  0.00000000000E+00 0. -1.
          1    1    5    5  503    0 -0.23514132994E+02  0.42276283444E+02  0.52152112479E+02  0.71133968175E+02  0.00000000000E+00 0. -1.
         -2    1    5    5    0  503 -0.30524104715E+03  0.26839201517E+03  0.77115391613E+03  0.87171367606E+03  0.00000000000E+00 0.  1.
         -1    1    6    6    0  502  0.94420280625E+02 -0.26091226365E+03  0.41799218035E+03  0.50170495468E+03  0.00000000000E+00 0.  1.
<mgrwt>
<rscale>  0 0.15722619E+04</rscale>
<asrwt>0</asrwt>
<pdfrwt beam="1">  1        2 0.52076994E-01 0.15722619E+04</pdfrwt>
<pdfrwt beam="2">  1       -2 0.28087763E+00 0.15722619E+04</pdfrwt>
<totfact> 0.38421852E+00</totfact>
</mgrwt>
</event>
<event>
12    1  0.1536832E-007  0.2231168E+04  0.7818608E-02  0.8505566E-01
          2   -1    0    0  501    0  0.00000000000E+00  0.00000000000E+00  0.10681059722E+04  0.10681059722E+04  0.00000000000E+00 0. -1.
         -2   -1    0    0    0  501 -0.00000000000E+00 -0.00000000000E+00 -0.11651729513E+04  0.11651729513E+04  0.00000000000E+00 0.  1.
         23    2    1    2    0    0 -0.79028139829E+03 -0.34182025271E+03  0.32900213169E+03  0.92655169648E+03  0.94179986989E+02 0.  0.
        254    2    1    2    0    0  0.79028139829E+03  0.34182025271E+03 -0.42606911084E+03  0.13067272271E+04  0.88578518000E+03 0.  0.
        -24    2    4    4    0    0  0.13748016201E+03 -0.86419047058E+02 -0.48664404807E+03  0.51985081194E+03  0.83984465926E+02 0.  0.
         24    2    4    4    0    0  0.65280123628E+03  0.42823929976E+03  0.60574937231E+02  0.78687641512E+03  0.77245179171E+02 0.  0.
         11    1    3    3    0    0 -0.44373971970E+03 -0.20233449812E+03  0.23493077809E+03  0.54132860488E+03  0.00000000000E+00 0. -1.
        -11    1    3    3    0    0 -0.34654167859E+03 -0.13948575459E+03  0.94071353602E+02  0.38522309160E+03  0.00000000000E+00 0.  1.
          4    1    6    6  502    0  0.96732049604E+02  0.36370309214E+02 -0.48860093976E+01  0.10345898656E+03  0.00000000000E+00 0. -1.
          3    1    5    5  503    0  0.47976251006E+02 -0.45235096437E+02 -0.92611486269E+02  0.11368738716E+03  0.00000000000E+00 0. -1.
         -4    1    5    5    0  503  0.89503911006E+02 -0.41183950621E+02 -0.39403256180E+03  0.40616342478E+03  0.00000000000E+00 0.  1.
         -3    1    6    6    0  502  0.55606918668E+03  0.39186899055E+03  0.65460946629E+02  0.68341742856E+03  0.00000000000E+00 0.  1.
<mgrwt>
<rscale>  0 0.22311685E+04</rscale>
<asrwt>0</asrwt>
<pdfrwt beam="1">  1        2 0.16432400E+00 0.22311685E+04</pdfrwt>
<pdfrwt beam="2">  1       -2 0.17925738E+00 0.22311685E+04</pdfrwt>
<totfact> 0.38143231E+00</totfact>
</mgrwt>
</event>
<event>
12    1  0.1536832E-007  0.1449540E+04  0.7818608E-02  0.8918720E-01
          2   -1    0    0  501    0  0.00000000000E+00  0.00000000000E+00  0.73752675926E+03  0.73752675926E+03  0.00000000000E+00 0. -1.
         -2   -1    0    0    0  501 -0.00000000000E+00 -0.00000000000E+00 -0.71223375050E+03  0.71223375050E+03  0.00000000000E+00 0.  1.
         23    2    1    2    0    0 -0.30555915942E+03  0.28393776738E+03 -0.14708979636E+03  0.45159926807E+03  0.91210937274E+02 0.  0.
        254    2    1    2    0    0  0.30555915942E+03 -0.28393776738E+03  0.17238280511E+03  0.99816124170E+03  0.89029375898E+03 0.  0.
        -24    2    4    4    0    0  0.25822385183E+03 -0.14959042051E+03 -0.34061506966E+03  0.45963384622E+03  0.78662540950E+02 0.  0.
         24    2    4    4    0    0  0.47335307590E+02 -0.13434734687E+03  0.51299787477E+03  0.53852739548E+03  0.80963542465E+02 0.  0.
         13    1    3    3    0    0 -0.29819938352E+03  0.28906997454E+03 -0.15086502315E+03  0.44186488627E+03  0.00000000000E+00 0.  1.
        -13    1    3    3    0    0 -0.73597758933E+01 -0.51322071571E+01  0.37752267959E+01  0.97343817916E+01  0.00000000000E+00 0. -1.
          4    1    6    6  502    0  0.14032758152E+02 -0.10809763286E+02  0.19428899365E+03  0.19509480346E+03  0.00000000000E+00 0. -1.
          3    1    5    5  503    0  0.11071897421E+03 -0.96548695808E+02 -0.12393104150E+03  0.19219585053E+03  0.00000000000E+00 0. -1.
         -2    1    5    5    0  503  0.14750487761E+03 -0.53041724704E+02 -0.21668402816E+03  0.26743799569E+03  0.00000000000E+00 0.  1.
         -3    1    6    6    0  502  0.33302549438E+02 -0.12353758358E+03  0.31870888112E+03  0.34343259201E+03  0.00000000000E+00 0.  1.
<mgrwt>
<rscale>  0 0.14495399E+04</rscale>
<asrwt>0</asrwt>
<pdfrwt beam="1">  1        2 0.11346565E+00 0.14495399E+04</pdfrwt>
<pdfrwt beam="2">  1       -2 0.10957442E+00 0.14495399E+04</pdfrwt>
<totfact> 0.24651691E+01</totfact>
</mgrwt>
</event>
<event>
12    1  0.1536832E-007  0.1524661E+04  0.7818608E-02  0.8868217E-01
          2   -1    0    0  501    0  0.00000000000E+00  0.00000000000E+00  0.58334729169E+03  0.58334729169E+03  0.00000000000E+00 0. -1.
         -2   -1    0    0    0  501 -0.00000000000E+00 -0.00000000000E+00 -0.99622985206E+03  0.99622985206E+03  0.00000000000E+00 0.  1.
         23    2    1    2    0    0  0.34002528218E+03  0.31845846847E+03 -0.32917576579E+03  0.57456594479E+03  0.68821155716E+02 0.  0.
        254    2    1    2    0    0 -0.34002528218E+03 -0.31845846847E+03 -0.83706794586E+02  0.10050111990E+04  0.88657074953E+03 0.  0.
        -24    2    4    4    0    0  0.17300322104E+03  0.29880315816E+02  0.23412681550E+03  0.30349409705E+03  0.80438507210E+02 0.  0.
         24    2    4    4    0    0 -0.51302850323E+03 -0.34833878428E+03 -0.31783361008E+03  0.70151710192E+03  0.81054838369E+02 0.  0.
         13    1    3    3    0    0  0.33358899525E+03  0.29097447906E+03 -0.30772258916E+03  0.53911126596E+03  0.00000000000E+00 0.  1.
        -13    1    3    3    0    0  0.64362869359E+01  0.27483989410E+02 -0.21453176628E+02  0.35454678829E+02  0.00000000000E+00 0. -1.
          4    1    6    6  502    0 -0.14074578902E+03 -0.12801007571E+03 -0.68482255935E+02  0.20220231450E+03  0.00000000000E+00 0. -1.
          3    1    5    5  503    0  0.29297442365E+02  0.12082553183E+02  0.44802815688E+01  0.32006267253E+02  0.00000000000E+00 0. -1.
         -4    1    5    5    0  503  0.14370577868E+03  0.17797762633E+02  0.22964653393E+03  0.27148782979E+03  0.00000000000E+00 0.  1.
         -3    1    6    6    0  502 -0.37228271421E+03 -0.22032870857E+03 -0.24935135415E+03  0.49931478742E+03  0.00000000000E+00 0.  1.
<mgrwt>
<rscale>  0 0.15246613E+04</rscale>
<asrwt>0</asrwt>
<pdfrwt beam="1">  1        2 0.89745737E-01 0.15246613E+04</pdfrwt>
<pdfrwt beam="2">  1       -2 0.15326613E+00 0.15246613E+04</pdfrwt>
<totfact> 0.13989046E+01</totfact>
</mgrwt>
</event>
<event>
12    1  0.1536832E-007  0.2125378E+04  0.7818608E-02  0.8550146E-01
          2   -1    0    0  501    0  0.00000000000E+00  0.00000000000E+00  0.14652927503E+04  0.14652927503E+04  0.00000000000E+00 0.  1.
         -2   -1    0    0    0  501 -0.00000000000E+00 -0.00000000000E+00 -0.77070486544E+03  0.77070486544E+03  0.00000000000E+00 0. -1.
         23    2    1    2    0    0 -0.66411097415E+03 -0.11374438124E+03 -0.29495207310E+03  0.74129210443E+03  0.92390954225E+02 0.  0.
        254    2    1    2    0    0  0.66411097415E+03  0.11374438124E+03  0.98953995796E+03  0.14947055113E+04  0.89497154528E+03 0.  0.
        -24    2    4    4    0    0  0.55599359972E+03 -0.11884897379E+03  0.10701451055E+04  0.12140583810E+04  0.73981376087E+02 0.  0.
         24    2    4    4    0    0  0.10811737443E+03  0.23259335503E+03 -0.80605147562E+02  0.28064713034E+03  0.80477242084E+02 0.  0.
         13    1    3    3    0    0 -0.59418603592E+03 -0.12116062518E+03 -0.24052541195E+03  0.65237214546E+03  0.00000000000E+00 0. -1.
        -13    1    3    3    0    0 -0.69924938225E+02  0.74162439338E+01 -0.54426661152E+02  0.88919958974E+02  0.00000000000E+00 0.  1.
          2    1    6    6  502    0  0.89259811590E+02  0.20357650647E+03 -0.96789321153E+02  0.24244356177E+03  0.00000000000E+00 0. -1.
          1    1    5    5  503    0  0.38702112610E+03 -0.11174135875E+03  0.79130689553E+03  0.88794036186E+03  0.00000000000E+00 0. -1.
         -2    1    5    5    0  503  0.16897247361E+03 -0.71076150433E+01  0.27883821000E+03  0.32611801911E+03  0.00000000000E+00 0.  1.
         -1    1    6    6    0  502  0.18857562840E+02  0.29016848559E+02  0.16184173591E+02  0.38203568569E+02  0.00000000000E+00 0.  1.
<mgrwt>
<rscale>  0 0.21253783E+04</rscale>
<asrwt>0</asrwt>
<pdfrwt beam="1">  1        2 0.22542965E+00 0.21253783E+04</pdfrwt>
<pdfrwt beam="2">  1       -2 0.11856998E+00 0.21253783E+04</pdfrwt>
<totfact> 0.66830684E+00</totfact>
</mgrwt>
</event>
<event>
12    1  0.1536832E-007  0.1257192E+04  0.7818608E-02  0.9064218E-01
         -2   -1    0    0    0  501 -0.00000000000E+00  0.00000000000E+00  0.54820311222E+03  0.54820311222E+03  0.00000000000E+00 0.  1.
          2   -1    0    0  501    0  0.00000000000E+00 -0.00000000000E+00 -0.72077886462E+03  0.72077886462E+03  0.00000000000E+00 0. -1.
         23    2    1    2    0    0 -0.28946190049E+03  0.25040705598E+03 -0.13515130135E+03  0.41936226576E+03  0.10538951639E+03 0.  0.
        254    2    1    2    0    0  0.28946190049E+03 -0.25040705598E+03 -0.37424451055E+02  0.84961971109E+03  0.75760225607E+03 0.  0.
        -24    2    4    4    0    0  0.98536283485E+02 -0.32712614279E+03 -0.33131008062E+03  0.48288134658E+03  0.81774769306E+02 0.  0.
         24    2    4    4    0    0  0.19092561700E+03  0.76719086809E+02  0.29388562956E+03  0.36673836451E+03  0.76091098231E+02 0.  0.
         11    1    3    3    0    0 -0.29462929417E+02  0.48731194121E+02 -0.58222665897E+02  0.81441219996E+02  0.00000000000E+00 0.  1.
        -11    1    3    3    0    0 -0.25999897107E+03  0.20167586186E+03 -0.76928635453E+02  0.33792104576E+03  0.00000000000E+00 0. -1.
          2    1    6    6  502    0  0.18324905889E+03  0.57167855807E+02  0.28569256312E+03  0.34419271047E+03  0.00000000000E+00 0. -1.
          3    1    5    5  503    0  0.78055038007E+02 -0.28783346368E+03 -0.24539003299E+03  0.38620844121E+03  0.00000000000E+00 0. -1.
         -4    1    5    5    0  503  0.20481245478E+02 -0.39292679113E+02 -0.85920047626E+02  0.96672905368E+02  0.00000000000E+00 0.  1.
         -1    1    6    6    0  502  0.76765581150E+01  0.19551231002E+02  0.81930664449E+01  0.22545654037E+02  0.00000000000E+00 0.  1.
<mgrwt>
<rscale>  0 0.12571925E+04</rscale>
<asrwt>0</asrwt>
<pdfrwt beam="1">  1        2 0.11088906E+00 0.12571925E+04</pdfrwt>
<pdfrwt beam="2">  1       -2 0.84338940E-01 0.12571925E+04</pdfrwt>
<totfact> 0.47614500E+01</totfact>
</mgrwt>
</event>
<event>
12    1  0.1536832E-007  0.2904846E+04  0.7818608E-02  0.8271437E-01
         -2   -1    0    0    0  501 -0.00000000000E+00  0.00000000000E+00  0.82861224001E+03  0.82861224001E+03  0.00000000000E+00 0.  1.
          2   -1    0    0  501    0  0.00000000000E+00 -0.00000000000E+00 -0.25458615776E+04  0.25458615776E+04  0.00000000000E+00 0. -1.
         23    2    1    2    0    0 -0.73988957477E+02  0.97565283719E+03 -0.17819584538E+04  0.20349947981E+04  0.91951470040E+02 0.  0.
        254    2    1    2    0    0  0.73988957477E+02 -0.97565283719E+03  0.64709116181E+02  0.13394790195E+04  0.91249325994E+03 0.  0.
        -24    2    4    4    0    0 -0.27932819287E+03 -0.87199071582E+03  0.19705920052E+03  0.94012581011E+03  0.81315204725E+02 0.  0.
         24    2    4    4    0    0  0.35331715035E+03 -0.10366212137E+03 -0.13235008434E+03  0.39935320940E+03  0.79922442992E+02 0.  0.
         11    1    3    3    0    0 -0.50403324789E+02  0.88486765123E+03 -0.16517968362E+04  0.18745570259E+04  0.00000000000E+00 0. -1.
        -11    1    3    3    0    0 -0.23585632688E+02  0.90785185955E+02 -0.13016161760E+03  0.16043777222E+03  0.00000000000E+00 0.  1.
          2    1    6    6  502    0  0.32535244095E+03 -0.11692255805E+03 -0.12410597541E+03  0.36732463646E+03  0.00000000000E+00 0. -1.
          1    1    5    5  503    0 -0.12196212344E+03 -0.51240860608E+03  0.11087798253E+03  0.53826690977E+03  0.00000000000E+00 0. -1.
         -2    1    5    5    0  503 -0.15736606943E+03 -0.35958210973E+03  0.86181217984E+02  0.40185890034E+03  0.00000000000E+00 0.  1.
         -1    1    6    6    0  502  0.27964709395E+02  0.13260436682E+02 -0.82441089286E+01  0.32028572940E+02  0.00000000000E+00 0.  1.
<mgrwt>
<rscale>  0 0.29048457E+04</rscale>
<asrwt>0</asrwt>
<pdfrwt beam="1">  1        2 0.39167101E+00 0.29048457E+04</pdfrwt>
<pdfrwt beam="2">  1       -2 0.12747881E+00 0.29048457E+04</pdfrwt>
<totfact> 0.12885378E+00</totfact>
</mgrwt>
</event>
<event>
12    1  0.1536832E-007  0.1568886E+04  0.7818608E-02  0.8839894E-01
          1   -1    0    0  501    0  0.00000000000E+00  0.00000000000E+00  0.16749644660E+04  0.16749644660E+04  0.00000000000E+00 0. -1.
         -1   -1    0    0    0  501 -0.00000000000E+00 -0.00000000000E+00 -0.36738123282E+03  0.36738123282E+03  0.00000000000E+00 0.  1.
         23    2    1    2    0    0 -0.44545452250E+02 -0.36498141603E+02  0.11196077050E+04  0.11247079632E+04  0.90167498164E+02 0.  0.
        254    2    1    2    0    0  0.44545452250E+02  0.36498141603E+02  0.18797552826E+03  0.91763773570E+03  0.89633018643E+03 0.  0.
        -24    2    4    4    0    0  0.20784269341E+03  0.41727980979E+03  0.13581239889E+03  0.49259240483E+03  0.82953268407E+02 0.  0.
         24    2    4    4    0    0 -0.16329724116E+03 -0.38078166819E+03  0.52163129370E+02  0.42504533087E+03  0.79258270445E+02 0.  0.
         11    1    3    3    0    0 -0.13504125831E+02 -0.28880255051E+02  0.10108054981E+04  0.10113081556E+04  0.00000000000E+00 0. -1.
        -11    1    3    3    0    0 -0.31041326420E+02 -0.76178865527E+01  0.10880220684E+03  0.11339980756E+03  0.00000000000E+00 0.  1.
          4    1    6    6  502    0 -0.13959663097E+03 -0.33947946192E+03  0.70948783560E+02  0.37385458982E+03  0.00000000000E+00 0. -1.
          1    1    5    5  503    0  0.17072732165E+03  0.31776163973E+03  0.69437028589E+02  0.36734422410E+03  0.00000000000E+00 0. -1.
         -4    1    5    5    0  503  0.37115371764E+02  0.99518170059E+02  0.66375370297E+02  0.12524818073E+03  0.00000000000E+00 0.  1.
         -3    1    6    6    0  502 -0.23700610193E+02 -0.41302206269E+02 -0.18785654189E+02  0.51190741053E+02  0.00000000000E+00 0.  1.
<mgrwt>
<rscale>  0 0.15688856E+04</rscale>
<asrwt>0</asrwt>
<pdfrwt beam="1">  1        1 0.25768684E+00 0.15688856E+04</pdfrwt>
<pdfrwt beam="2">  1       -1 0.56520191E-01 0.15688856E+04</pdfrwt>
<totfact> 0.15108958E+01</totfact>
</mgrwt>
</event>
<event>
12    1  0.1536832E-007  0.2407068E+04  0.7818608E-02  0.8436862E-01
         -2   -1    0    0    0  501 -0.00000000000E+00  0.00000000000E+00  0.54983631847E+03  0.54983631847E+03  0.00000000000E+00 0.  1.
          2   -1    0    0  501    0  0.00000000000E+00 -0.00000000000E+00 -0.26344093516E+04  0.26344093516E+04  0.00000000000E+00 0. -1.
         23    2    1    2    0    0  0.79325369948E+03 -0.18843908234E+03 -0.64043276132E+02  0.82293652181E+03  0.91445383792E+02 0.  0.
        254    2    1    2    0    0 -0.79325369948E+03  0.18843908234E+03 -0.20205297570E+04  0.23613091483E+04  0.91020858890E+03 0.  0.
        -24    2    4    4    0    0 -0.82954363770E+03  0.10166806642E+03 -0.88866182156E+03  0.12226894794E+04  0.82284186448E+02 0.  0.
         24    2    4    4    0    0  0.36289938221E+02  0.86771015921E+02 -0.11318679355E+04  0.11386196689E+04  0.80520545522E+02 0.  0.
         13    1    3    3    0    0  0.34997525165E+03 -0.12881901450E+03 -0.19198927460E+02  0.37342417447E+03  0.00000000000E+00 0.  1.
        -13    1    3    3    0    0  0.44327844783E+03 -0.59620067834E+02 -0.44844348672E+02  0.44951234733E+03  0.00000000000E+00 0. -1.
          4    1    6    6  502    0  0.14760104715E+02  0.90410036017E+02 -0.66971422653E+03  0.67595042757E+03  0.00000000000E+00 0. -1.
          1    1    5    5  503    0 -0.41908064422E+03  0.12489614518E+02 -0.42312957504E+03  0.59567039049E+03  0.00000000000E+00 0. -1.
         -2    1    5    5    0  503 -0.41046299348E+03  0.89178451897E+02 -0.46553224652E+03  0.62701908890E+03  0.00000000000E+00 0.  1.
         -3    1    6    6    0  502  0.21529833506E+02 -0.36390200963E+01 -0.46215370894E+03  0.46266924134E+03  0.00000000000E+00 0.  1.
<mgrwt>
<rscale>  0 0.24070679E+04</rscale>
<asrwt>0</asrwt>
<pdfrwt beam="1">  1        2 0.40529375E+00 0.24070679E+04</pdfrwt>
<pdfrwt beam="2">  1       -2 0.84590203E-01 0.24070679E+04</pdfrwt>
<totfact> 0.31798251E+00</totfact>
</mgrwt>
</event>
<event>
12    1  0.1536832E-007  0.1322139E+04  0.7818608E-02  0.9012191E-01
         -2   -1    0    0    0  501 -0.00000000000E+00  0.00000000000E+00  0.65225093316E+03  0.65225093316E+03  0.00000000000E+00 0.  1.
          2   -1    0    0  501    0  0.00000000000E+00 -0.00000000000E+00 -0.67000716169E+03  0.67000716169E+03  0.00000000000E+00 0. -1.
         23    2    1    2    0    0 -0.18476659482E+03 -0.13050021275E+03 -0.27178144838E+03  0.36522946696E+03  0.91424328088E+02 0.  0.
        254    2    1    2    0    0  0.18476659482E+03  0.13050021275E+03  0.25402521985E+03  0.95702862788E+03  0.89454233113E+03 0.  0.
        -24    2    4    4    0    0  0.38336129871E+03 -0.22787229730E+03 -0.26548540937E+02  0.45387729917E+03  0.80050661753E+02 0.  0.
         24    2    4    4    0    0 -0.19859470390E+03  0.35837251005E+03  0.28057376078E+03  0.50315132871E+03  0.81048824621E+02 0.  0.
         11    1    3    3    0    0 -0.18216833572E+03 -0.91309027789E+02 -0.23894854736E+03  0.31403670069E+03  0.00000000000E+00 0. -1.
        -11    1    3    3    0    0 -0.25982590953E+01 -0.39191184963E+02 -0.32832901012E+02  0.51192766267E+02  0.00000000000E+00 0.  1.
          4    1    6    6  502    0 -0.17573848528E+02  0.20735373497E+01  0.16057742256E+02  0.23895413693E+02  0.00000000000E+00 0. -1.
          3    1    5    5  503    0  0.16355822834E+03 -0.91405730767E+02 -0.50491812822E+02  0.19405083055E+03  0.00000000000E+00 0. -1.
         -4    1    5    5    0  503  0.21980307037E+03 -0.13646656653E+03  0.23943271885E+02  0.25982646862E+03  0.00000000000E+00 0.  1.
         -3    1    6    6    0  502 -0.18102085537E+03  0.35629897270E+03  0.26451601853E+03  0.47925591502E+03  0.00000000000E+00 0.  1.
<mgrwt>
<rscale>  0 0.13221389E+04</rscale>
<asrwt>0</asrwt>
<pdfrwt beam="1">  1        2 0.10307802E+00 0.13221389E+04</pdfrwt>
<pdfrwt beam="2">  1       -2 0.10034630E+00 0.13221389E+04</pdfrwt>
<totfact> 0.34722846E+01</totfact>
</mgrwt>
</event>
<event>
12    1  0.1536832E-007  0.2505638E+04  0.7818608E-02  0.8400980E-01
         -2   -1    0    0    0  501 -0.00000000000E+00  0.00000000000E+00  0.48364093683E+03  0.48364093683E+03  0.00000000000E+00 0. -1.
          2   -1    0    0  501    0  0.00000000000E+00 -0.00000000000E+00 -0.32452909013E+04  0.32452909013E+04  0.00000000000E+00 0.  1.
         23    2    1    2    0    0  0.39908191542E+03 -0.41080523339E+03  0.17117244147E+03  0.60461348015E+03  0.90720122728E+02 0.  0.
        254    2    1    2    0    0 -0.39908191542E+03  0.41080523339E+03 -0.29328224059E+04  0.31243183580E+04  0.91208038141E+03 0.  0.
        -24    2    4    4    0    0  0.11213031856E+03  0.45690269627E+03 -0.82842582775E+03  0.95662073640E+03  0.86605998808E+02 0.  0.
         24    2    4    4    0    0 -0.51121223398E+03 -0.46097462871E+02 -0.21043965782E+04  0.21676976216E+04  0.83457150746E+02 0.  0.
         13    1    3    3    0    0  0.38815318729E+03 -0.36529929663E+03  0.15495478027E+03  0.55508328821E+03  0.00000000000E+00 0. -1.
        -13    1    3    3    0    0  0.10928728129E+02 -0.45505936765E+02  0.16217661194E+02  0.49530191943E+02  0.00000000000E+00 0.  1.
          4    1    6    6  502    0 -0.82499448625E+02  0.21754113782E+02 -0.30703679794E+03  0.31867066978E+03  0.00000000000E+00 0. -1.
          3    1    5    5  503    0  0.49058962743E+02  0.19118522910E+03 -0.43513073034E+03  0.47780469456E+03  0.00000000000E+00 0. -1.
         -4    1    5    5    0  503  0.63071355820E+02  0.26571746716E+03 -0.39329509741E+03  0.47881604184E+03  0.00000000000E+00 0.  1.
         -3    1    6    6    0  502 -0.42871278536E+03 -0.67851576653E+02 -0.17973597802E+04  0.18490269518E+04  0.00000000000E+00 0.  1.
<mgrwt>
<rscale>  0 0.25056381E+04</rscale>
<asrwt>0</asrwt>
<pdfrwt beam="1">  1        2 0.49927552E+00 0.25056381E+04</pdfrwt>
<pdfrwt beam="2">  1       -2 0.74406298E-01 0.25056381E+04</pdfrwt>
<totfact> 0.17555008E+00</totfact>
</mgrwt>
</event>
<event>
12    1  0.1536832E-007  0.2329365E+04  0.7818608E-02  0.8466432E-01
         -2   -1    0    0    0  501 -0.00000000000E+00  0.00000000000E+00  0.84553665831E+03  0.84553665831E+03  0.00000000000E+00 0.  1.
          2   -1    0    0  501    0  0.00000000000E+00 -0.00000000000E+00 -0.16042897058E+04  0.16042897058E+04  0.00000000000E+00 0. -1.
         23    2    1    2    0    0  0.48165940945E+02 -0.11843377835E+02  0.71491270381E+03  0.72273903991E+03  0.93762051350E+02 0.  0.
        254    2    1    2    0    0 -0.48165940945E+02  0.11843377835E+02 -0.14736657513E+04  0.17270873242E+04  0.89926617606E+03 0.  0.
        -24    2    4    4    0    0 -0.27561990471E+02 -0.30448511939E+03 -0.13352077791E+04  0.13720838501E+04  0.79771092988E+02 0.  0.
         24    2    4    4    0    0 -0.20603950474E+02  0.31632849723E+03 -0.13845797220E+03  0.35500347404E+03  0.79803606328E+02 0.  0.
         11    1    3    3    0    0 -0.85252600113E+01  0.11040915005E+02  0.47350422729E+03  0.47370965277E+03  0.00000000000E+00 0.  1.
        -11    1    3    3    0    0  0.56691200957E+02 -0.22884292840E+02  0.24140847652E+03  0.24902938714E+03  0.00000000000E+00 0. -1.
          2    1    6    6  502    0 -0.41476683213E+01 -0.41679736913E+01 -0.36454011793E+01  0.69183890432E+01  0.00000000000E+00 0. -1.
          3    1    5    5  503    0 -0.33416601597E+02 -0.10365459245E+03 -0.34820390674E+03  0.36483818943E+03  0.00000000000E+00 0. -1.
         -4    1    5    5    0  503  0.58546111258E+01 -0.20083052694E+03 -0.98700387231E+03  0.10072456607E+04  0.00000000000E+00 0.  1.
         -1    1    6    6    0  502 -0.16456282153E+02  0.32049647092E+03 -0.13481257102E+03  0.34808508500E+03  0.00000000000E+00 0.  1.
<mgrwt>
<rscale>  0 0.23293654E+04</rscale>
<asrwt>0</asrwt>
<pdfrwt beam="1">  1        2 0.24681380E+00 0.23293654E+04</pdfrwt>
<pdfrwt beam="2">  1       -2 0.13008256E+00 0.23293654E+04</pdfrwt>
<totfact> 0.43500027E+00</totfact>
</mgrwt>
</event>
<event>
12    1  0.1536832E-007  0.2196236E+04  0.7818608E-02  0.8519996E-01
         -1   -1    0    0    0  501 -0.00000000000E+00  0.00000000000E+00  0.91697898750E+03  0.91697898750E+03  0.00000000000E+00 0.  1.
          1   -1    0    0  501    0  0.00000000000E+00 -0.00000000000E+00 -0.13150393624E+04  0.13150393624E+04  0.00000000000E+00 0. -1.
         23    2    1    2    0    0 -0.68899995336E+03 -0.55024867086E+03  0.53129944606E+02  0.88874873722E+03  0.97759865824E+02 0.  0.
        254    2    1    2    0    0  0.68899995336E+03  0.55024867086E+03 -0.45119031953E+03  0.13432696127E+04  0.90736211761E+03 0.  0.
        -24    2    4    4    0    0  0.74546344084E+03  0.73873197062E+03 -0.37357683316E+03  0.11169764088E+04  0.81461533533E+02 0.  0.
         24    2    4    4    0    0 -0.56463487481E+02 -0.18848329976E+03 -0.77613486371E+02  0.22629320393E+03  0.80440544316E+02 0.  0.
         11    1    3    3    0    0 -0.54739522993E+03 -0.43032152303E+03  0.20889138179E+01  0.69629197503E+03  0.00000000000E+00 0.  1.
        -11    1    3    3    0    0 -0.14160472343E+03 -0.11992714784E+03  0.51041030788E+02  0.19245676218E+03  0.00000000000E+00 0. -1.
          4    1    6    6  502    0 -0.73142964428E+02 -0.17321456171E+03 -0.59176482896E+02  0.19711680233E+03  0.00000000000E+00 0. -1.
          3    1    5    5  503    0  0.65218708810E+03  0.68112679004E+03 -0.33368084469E+03  0.10003122553E+04  0.00000000000E+00 0. -1.
         -4    1    5    5    0  503  0.93276352742E+02  0.57605180583E+02 -0.39895988464E+02  0.11666415348E+03  0.00000000000E+00 0.  1.
         -3    1    6    6    0  502  0.16679476947E+02 -0.15268738049E+02 -0.18437003475E+02  0.29176401594E+02  0.00000000000E+00 0.  1.
<mgrwt>
<rscale>  0 0.21962363E+04</rscale>
<asrwt>0</asrwt>
<pdfrwt beam="1">  1        1 0.20231375E+00 0.21962363E+04</pdfrwt>
<pdfrwt beam="2">  1       -1 0.14107369E+00 0.21962363E+04</pdfrwt>
<totfact> 0.33067504E+00</totfact>
</mgrwt>
</event>
<event>
12    1  0.1536832E-007  0.1775702E+04  0.7818608E-02  0.8719329E-01
         -2   -1    0    0    0  501 -0.00000000000E+00  0.00000000000E+00  0.38985071591E+03  0.38985071591E+03  0.00000000000E+00 0. -1.
          2   -1    0    0  501    0  0.00000000000E+00 -0.00000000000E+00 -0.20220025365E+04  0.20220025365E+04  0.00000000000E+00 0.  1.
         23    2    1    2    0    0 -0.23143240453E+03 -0.32897873380E+03  0.92717117583E+02  0.42357278603E+03  0.95023555065E+02 0.  0.
        254    2    1    2    0    0  0.23143240453E+03  0.32897873380E+03 -0.17248689382E+04  0.19882804664E+04  0.90349233202E+03 0.  0.
        -24    2    4    4    0    0 -0.23869906483E+03  0.26376678250E+03 -0.26148780463E+03  0.44766660843E+03  0.74022707580E+02 0.  0.
         24    2    4    4    0    0  0.47013146935E+03  0.65211951295E+02 -0.14633811336E+04  0.15406138580E+04  0.82039747932E+02 0.  0.
         11    1    3    3    0    0 -0.16911070563E+03 -0.15874172111E+03  0.55963285695E+02  0.23859852079E+03  0.00000000000E+00 0.  1.
        -11    1    3    3    0    0 -0.62321698902E+02 -0.17023701268E+03  0.36753831888E+02  0.18497426524E+03  0.00000000000E+00 0. -1.
          2    1    6    6  502    0  0.35768228298E+03  0.42040852689E+02 -0.12094736260E+04  0.12619550312E+04  0.00000000000E+00 0. -1.
          3    1    5    5  503    0 -0.23892792475E+03  0.26005973865E+03 -0.26577919038E+03  0.44199117517E+03  0.00000000000E+00 0. -1.
         -4    1    5    5    0  503  0.22885992217E+00  0.37070438528E+01  0.42913857553E+01  0.56754332603E+01  0.00000000000E+00 0.  1.
         -1    1    6    6    0  502  0.11244918637E+03  0.23171098606E+02 -0.25390750759E+03  0.27865882677E+03  0.00000000000E+00 0.  1.
<mgrwt>
<rscale>  0 0.17757017E+04</rscale>
<asrwt>0</asrwt>
<pdfrwt beam="1">  1        2 0.31107732E+00 0.17757017E+04</pdfrwt>
<pdfrwt beam="2">  1       -2 0.59977032E-01 0.17757017E+04</pdfrwt>
<totfact> 0.15926052E+01</totfact>
</mgrwt>
</event>
<event>
12    1  0.1536832E-007  0.1432918E+04  0.7818608E-02  0.8930330E-01
          2   -1    0    0  501    0  0.00000000000E+00  0.00000000000E+00  0.23388688795E+04  0.23388688795E+04  0.00000000000E+00 0. -1.
         -2   -1    0    0    0  501 -0.00000000000E+00 -0.00000000000E+00 -0.21947074903E+03  0.21947074903E+03  0.00000000000E+00 0.  1.
         23    2    1    2    0    0 -0.11399533029E+03 -0.37025877353E+03  0.32953546849E+03  0.51641430774E+03  0.89462939497E+02 0.  0.
        254    2    1    2    0    0  0.11399533029E+03  0.37025877353E+03  0.17898626620E+04  0.20419253208E+04  0.90319664096E+03 0.  0.
        -24    2    4    4    0    0  0.41517772341E+03  0.10509657605E+03  0.39294912242E+03  0.58635438695E+03  0.77360338478E+02 0.  0.
         24    2    4    4    0    0 -0.30118239313E+03  0.26516219748E+03  0.13969135395E+04  0.14555709338E+04  0.79356672924E+02 0.  0.
         13    1    3    3    0    0 -0.53239682724E+02 -0.11238906317E+03  0.15686792752E+03  0.20018319615E+03  0.00000000000E+00 0. -1.
        -13    1    3    3    0    0 -0.60755647564E+02 -0.25786971037E+03  0.17266754097E+03  0.31623111159E+03  0.00000000000E+00 0.  1.
          4    1    6    6  502    0 -0.24419647107E+03  0.19626078801E+03  0.11816588677E+04  0.12224843119E+04  0.00000000000E+00 0. -1.
          3    1    5    5  503    0  0.35197674873E+03  0.60180058372E+02  0.33413877192E+03  0.48903782060E+03  0.00000000000E+00 0. -1.
         -4    1    5    5    0  503  0.63200974681E+02  0.44916517677E+02  0.58810350498E+02  0.97316566352E+02  0.00000000000E+00 0.  1.
         -3    1    6    6    0  502 -0.56985922053E+02  0.68901409468E+02  0.21525467187E+03  0.23308662188E+03  0.00000000000E+00 0.  1.
<mgrwt>
<rscale>  0 0.14329177E+04</rscale>
<asrwt>0</asrwt>
<pdfrwt beam="1">  1        2 0.35982596E+00 0.14329177E+04</pdfrwt>
<pdfrwt beam="2">  1       -2 0.33764732E-01 0.14329177E+04</pdfrwt>
<totfact> 0.34402003E+01</totfact>
</mgrwt>
</event>
<event>
12    1  0.1536832E-007  0.1350103E+04  0.7818608E-02  0.8990750E-01
          2   -1    0    0  501    0  0.00000000000E+00  0.00000000000E+00  0.34503622600E+04  0.34503622600E+04  0.00000000000E+00 0. -1.
         -2   -1    0    0    0  501 -0.00000000000E+00 -0.00000000000E+00 -0.13207147930E+03  0.13207147930E+03  0.00000000000E+00 0.  1.
         23    2    1    2    0    0 -0.21997535050E+03 -0.20481345680E+02  0.16617070312E+04  0.16788197660E+04  0.91416130269E+02 0.  0.
        254    2    1    2    0    0  0.21997535050E+03  0.20481345680E+02  0.16565837495E+04  0.19036139733E+04  0.91140978698E+03 0.  0.
        -24    2    4    4    0    0  0.52124122650E+03 -0.18276665778E+03  0.10909989242E+04  0.12254140532E+04  0.79151006482E+02 0.  0.
         24    2    4    4    0    0 -0.30126587600E+03  0.20324800346E+03  0.56558482532E+03  0.67819992007E+03  0.89431862381E+02 0.  0.
         11    1    3    3    0    0 -0.48402036836E+02 -0.33688449892E+02  0.26084075491E+03  0.26742394854E+03  0.00000000000E+00 0.  1.
        -11    1    3    3    0    0 -0.17157331366E+03  0.13207104212E+02  0.14008662763E+04  0.14113958175E+04  0.00000000000E+00 0. -1.
          4    1    6    6  502    0 -0.94400093480E+02  0.32577120311E+02  0.21267240807E+03  0.23495148344E+03  0.00000000000E+00 0. -1.
          3    1    5    5  503    0  0.24449742997E+03 -0.47167803607E+02  0.45486269024E+03  0.51855941022E+03  0.00000000000E+00 0. -1.
         -4    1    5    5    0  503  0.27674379653E+03 -0.13559885417E+03  0.63613623395E+03  0.70685464299E+03  0.00000000000E+00 0.  1.
         -3    1    6    6    0  502 -0.20686578252E+03  0.17067088315E+03  0.35291241725E+03  0.44324843663E+03  0.00000000000E+00 0.  1.
<mgrwt>
<rscale>  0 0.13501029E+04</rscale>
<asrwt>0</asrwt>
<pdfrwt beam="1">  1        2 0.53082489E+00 0.13501029E+04</pdfrwt>
<pdfrwt beam="2">  1       -2 0.20318692E-01 0.13501029E+04</pdfrwt>
<totfact> 0.18199251E+01</totfact>
</mgrwt>
</event>
<event>
12    1  0.1536832E-007  0.1790854E+04  0.7818608E-02  0.8711178E-01
         -2   -1    0    0    0  501 -0.00000000000E+00  0.00000000000E+00  0.36034937068E+03  0.36034937068E+03  0.00000000000E+00 0.  1.
          2   -1    0    0  501    0  0.00000000000E+00 -0.00000000000E+00 -0.22250339976E+04  0.22250339976E+04  0.00000000000E+00 0. -1.
         23    2    1    2    0    0 -0.36063519895E+03 -0.17804937319E+03  0.72412169463E+02  0.41784981405E+03  0.87152847347E+02 0.  0.
        254    2    1    2    0    0  0.36063519895E+03  0.17804937319E+03 -0.19370967964E+04  0.21675335542E+04  0.88549329990E+03 0.  0.
        -24    2    4    4    0    0  0.16740300327E+03  0.49933580656E+03 -0.14686123320E+04  0.15621313673E+04  0.77924410969E+02 0.  0.
         24    2    4    4    0    0  0.19323219567E+03 -0.32128643337E+03 -0.46848446437E+03  0.60540218691E+03  0.80439174845E+02 0.  0.
         13    1    3    3    0    0 -0.34335163848E+03 -0.15704559811E+03  0.46735495196E+02  0.38044431136E+03  0.00000000000E+00 0.  1.
        -13    1    3    3    0    0 -0.17283560464E+02 -0.21003775082E+02  0.25676674267E+02  0.37405502689E+02  0.00000000000E+00 0. -1.
          2    1    6    6  502    0  0.16682607568E+03 -0.21124782985E+03 -0.35029768948E+03  0.44177489336E+03  0.00000000000E+00 0. -1.
          3    1    5    5  503    0  0.16767411521E+03  0.50221842795E+03 -0.14596100166E+04  0.15526749044E+04  0.00000000000E+00 0. -1.
         -4    1    5    5    0  503 -0.27111193803E+00 -0.28826213873E+01 -0.90023153970E+01  0.94564628827E+01  0.00000000000E+00 0.  1.
         -1    1    6    6    0  502  0.26406119988E+02 -0.11003860352E+03 -0.11818677488E+03  0.16362729355E+03  0.00000000000E+00 0.  1.
<mgrwt>
<rscale>  0 0.17908541E+04</rscale>
<asrwt>0</asrwt>
<pdfrwt beam="1">  1        2 0.34231292E+00 0.17908541E+04</pdfrwt>
<pdfrwt beam="2">  1       -2 0.55438366E-01 0.17908541E+04</pdfrwt>
<totfact> 0.14447016E+01</totfact>
</mgrwt>
</event>
<event>
12    1  0.1536832E-007  0.1495147E+04  0.7818608E-02  0.8887687E-01
         -2   -1    0    0    0  501 -0.00000000000E+00  0.00000000000E+00  0.54898986346E+03  0.54898986346E+03  0.00000000000E+00 0.  1.
          2   -1    0    0  501    0  0.00000000000E+00 -0.00000000000E+00 -0.10179893582E+04  0.10179893582E+04  0.00000000000E+00 0. -1.
         23    2    1    2    0    0 -0.37147171401E+03  0.28283228811E+03 -0.19478108047E+03  0.51615575267E+03  0.10242926437E+03 0.  0.
        254    2    1    2    0    0  0.37147171401E+03 -0.28283228811E+03 -0.27421841426E+03  0.10508234690E+04  0.90058252634E+03 0.  0.
        -24    2    4    4    0    0  0.20611023593E+03  0.29849377356E+03 -0.23341815815E+03  0.43897965072E+03  0.81480887206E+02 0.  0.
         24    2    4    4    0    0  0.16536147808E+03 -0.58132606167E+03 -0.40800256109E+02  0.61184381826E+03  0.86045270884E+02 0.  0.
         13    1    3    3    0    0 -0.37097076804E+03  0.25855020184E+03 -0.19347502051E+03  0.49183340794E+03  0.00000000000E+00 0. -1.
        -13    1    3    3    0    0 -0.50094597133E+00  0.24282086267E+02 -0.13060599681E+01  0.24322344726E+02  0.00000000000E+00 0.  1.
          2    1    6    6  502    0  0.77452039684E+02 -0.29659117656E+03  0.21913208805E+02  0.30731959454E+03  0.00000000000E+00 0. -1.
          3    1    5    5  503    0  0.12763406762E+03  0.19370326139E+03 -0.19358252703E+03  0.30213507486E+03  0.00000000000E+00 0. -1.
         -4    1    5    5    0  503  0.78476168316E+02  0.10479051218E+03 -0.39835631117E+02  0.13684457586E+03  0.00000000000E+00 0.  1.
         -1    1    6    6    0  502  0.87909438393E+02 -0.28473488510E+03 -0.62713464914E+02  0.30452422373E+03  0.00000000000E+00 0.  1.
<mgrwt>
<rscale>  0 0.14951466E+04</rscale>
<asrwt>0</asrwt>
<pdfrwt beam="1">  1        2 0.15661375E+00 0.14951466E+04</pdfrwt>
<pdfrwt beam="2">  1       -2 0.84459980E-01 0.14951466E+04</pdfrwt>
<totfact> 0.28990422E+01</totfact>
</mgrwt>
</event>
<event>
12    1  0.1536832E-007  0.1563662E+04  0.7818608E-02  0.8843188E-01
          2   -1    0    0  501    0  0.00000000000E+00  0.00000000000E+00  0.15756925640E+04  0.15756925640E+04  0.00000000000E+00 0. -1.
         -2   -1    0    0    0  501 -0.00000000000E+00 -0.00000000000E+00 -0.38793083371E+03  0.38793083371E+03  0.00000000000E+00 0.  1.
         23    2    1    2    0    0  0.15878563939E+03  0.62948545855E+02  0.10136515037E+04  0.10357163871E+04  0.12666358929E+03 0.  0.
        254    2    1    2    0    0 -0.15878563939E+03 -0.62948545855E+02  0.17411022662E+03  0.92790701063E+03  0.89527741548E+03 0.  0.
        -24    2    4    4    0    0 -0.14655475224E+03 -0.28411325405E+03  0.45576193738E+03  0.56225229481E+03  0.78803952415E+02 0.  0.
         24    2    4    4    0    0 -0.12230887144E+02  0.22116470820E+03 -0.28165171076E+03  0.36565471582E+03  0.72885267871E+02 0.  0.
         11    1    3    3    0    0  0.48777825950E+02 -0.13892913770E+02  0.98611862309E+02  0.11088998487E+03  0.00000000000E+00 0.  1.
        -11    1    3    3    0    0  0.11000781344E+03  0.76841459624E+02  0.91503964140E+03  0.92482640223E+03  0.00000000000E+00 0. -1.
          4    1    6    6  502    0 -0.37539665726E+02  0.15278015706E+03 -0.16416212622E+03  0.22737679428E+03  0.00000000000E+00 0. -1.
          1    1    5    5  503    0 -0.47210605432E+02 -0.16372693912E+03  0.27408170847E+03  0.32273229584E+03  0.00000000000E+00 0. -1.
         -2    1    5    5    0  503 -0.99344146810E+02 -0.12038631493E+03  0.18168022891E+03  0.23951999897E+03  0.00000000000E+00 0.  1.
         -3    1    6    6    0  502  0.25308778582E+02  0.68384551137E+02 -0.11748958455E+03  0.13827792154E+03  0.00000000000E+00 0.  1.
<mgrwt>
<rscale>  0 0.15636620E+04</rscale>
<asrwt>0</asrwt>
<pdfrwt beam="1">  1        2 0.24241424E+00 0.15636620E+04</pdfrwt>
<pdfrwt beam="2">  1       -2 0.59681668E-01 0.15636620E+04</pdfrwt>
<totfact> 0.28978758E+01</totfact>
</mgrwt>
</event>
<event>
12    1  0.1536832E-007  0.1625275E+04  0.7818608E-02  0.8805169E-01
          2   -1    0    0  501    0  0.00000000000E+00  0.00000000000E+00  0.49810639823E+03  0.49810639823E+03  0.00000000000E+00 0. -1.
         -2   -1    0    0    0  501 -0.00000000000E+00 -0.00000000000E+00 -0.13257805062E+04  0.13257805062E+04  0.00000000000E+00 0.  1.
         23    2    1    2    0    0 -0.28780398640E+03 -0.55603608380E+02 -0.83227364502E+03  0.88723213272E+03  0.92620415019E+02 0.  0.
        254    2    1    2    0    0  0.28780398640E+03  0.55603608380E+02  0.45995370774E+01  0.93665477168E+03  0.88959435122E+03 0.  0.
        -24    2    4    4    0    0  0.12712024357E+03 -0.31696101362E+03 -0.26795267286E+03  0.44134818371E+03  0.79785612041E+02 0.  0.
         24    2    4    4    0    0  0.16068374283E+03  0.37256462200E+03  0.27255220994E+03  0.49530658797E+03  0.80126438660E+02 0.  0.
         11    1    3    3    0    0 -0.24209391896E+03 -0.63910835116E+02 -0.76898053057E+03  0.80871819371E+03  0.00000000000E+00 0.  1.
        -11    1    3    3    0    0 -0.45710067446E+02  0.83072267359E+01 -0.63293114455E+02  0.78513939014E+02  0.00000000000E+00 0. -1.
          2    1    6    6  502    0  0.22067975965E+01  0.81704493404E+01 -0.57022127819E+01  0.10204970782E+02  0.00000000000E+00 0. -1.
          3    1    5    5  503    0  0.14550186629E+02 -0.13952439823E+03 -0.11602839912E+03  0.18204767242E+03  0.00000000000E+00 0. -1.
         -4    1    5    5    0  503  0.11257005694E+03 -0.17743661539E+03 -0.15192427373E+03  0.25930051128E+03  0.00000000000E+00 0.  1.
         -1    1    6    6    0  502  0.15847694524E+03  0.36439417266E+03  0.27825442272E+03  0.48510161719E+03  0.00000000000E+00 0.  1.
<mgrwt>
<rscale>  0 0.16252751E+04</rscale>
<asrwt>0</asrwt>
<pdfrwt beam="1">  1        2 0.76631754E-01 0.16252751E+04</pdfrwt>
<pdfrwt beam="2">  1       -2 0.20396623E+00 0.16252751E+04</pdfrwt>
<totfact> 0.74096526E+00</totfact>
</mgrwt>
</event>
<event>
12    1  0.1536832E-007  0.1578908E+04  0.7818608E-02  0.8833612E-01
          1   -1    0    0  501    0  0.00000000000E+00  0.00000000000E+00  0.11527147724E+04  0.11527147724E+04  0.00000000000E+00 0. -1.
         -1   -1    0    0    0  501 -0.00000000000E+00 -0.00000000000E+00 -0.54066928603E+03  0.54066928603E+03  0.00000000000E+00 0.  1.
         23    2    1    2    0    0  0.31748055937E+03  0.40283907636E+03  0.10150463781E+03  0.53266716005E+03  0.10177369444E+03 0.  0.
        254    2    1    2    0    0 -0.31748055937E+03 -0.40283907636E+03  0.51054084860E+03  0.11607168984E+04  0.90749023861E+03 0.  0.
        -24    2    4    4    0    0 -0.40970223734E+03  0.64139285351E+02 -0.45524434507E+02  0.42433347923E+03  0.77567108039E+02 0.  0.
         24    2    4    4    0    0  0.92221677968E+02 -0.46697836171E+03  0.55606528311E+03  0.73638341920E+03  0.80487966811E+02 0.  0.
         13    1    3    3    0    0  0.54387983570E+02  0.14011826014E+03  0.42597282792E+02  0.15622326358E+03  0.00000000000E+00 0. -1.
        -13    1    3    3    0    0  0.26309257580E+03  0.26272081622E+03  0.58907355023E+02  0.37644389647E+03  0.00000000000E+00 0.  1.
          2    1    6    6  502    0  0.61467706811E+02 -0.12421132952E+03  0.15645442302E+03  0.20900889896E+03  0.00000000000E+00 0. -1.
          1    1    5    5  503    0 -0.10336001783E+03 -0.11985395634E+02 -0.30009100815E+02  0.10829353224E+03  0.00000000000E+00 0. -1.
         -2    1    5    5    0  503 -0.30634221951E+03  0.76124680985E+02 -0.15515333692E+02  0.31603994698E+03  0.00000000000E+00 0.  1.
         -1    1    6    6    0  502  0.30753971157E+02 -0.34276703219E+03  0.39961086009E+03  0.52737452024E+03  0.00000000000E+00 0.  1.
<mgrwt>
<rscale>  0 0.15789078E+04</rscale>
<asrwt>0</asrwt>
<pdfrwt beam="1">  1        1 0.17734073E+00 0.15789078E+04</pdfrwt>
<pdfrwt beam="2">  1       -1 0.83179891E-01 0.15789078E+04</pdfrwt>
<totfact> 0.15969725E+01</totfact>
</mgrwt>
</event>
<event>
12    1  0.1536832E-007  0.2228074E+04  0.7818608E-02  0.8506833E-01
         -2   -1    0    0    0  501 -0.00000000000E+00  0.00000000000E+00  0.10080808550E+04  0.10080808550E+04  0.00000000000E+00 0.  1.
          2   -1    0    0  501    0  0.00000000000E+00 -0.00000000000E+00 -0.12311303041E+04  0.12311303041E+04  0.00000000000E+00 0. -1.
         23    2    1    2    0    0  0.36894216109E+03  0.41961470019E+01  0.76759484038E+03  0.85589150488E+03  0.84926457935E+02 0.  0.
        254    2    1    2    0    0 -0.36894216109E+03 -0.41961470019E+01 -0.99064428957E+03  0.13833196542E+04  0.89222263555E+03 0.  0.
        -24    2    4    4    0    0 -0.27699318843E+03 -0.25625785544E+03 -0.10311469759E+04  0.11009323122E+04  0.79965962670E+02 0.  0.
         24    2    4    4    0    0 -0.91948972660E+02  0.25206170844E+03  0.40502686331E+02  0.28238734203E+03  0.78181998596E+02 0.  0.
         11    1    3    3    0    0  0.19281058830E+03  0.46601365279E+01  0.30459454230E+03  0.36052111593E+03  0.00000000000E+00 0. -1.
        -11    1    3    3    0    0  0.17613157279E+03 -0.46398952602E+00  0.46300029808E+03  0.49537038895E+03  0.00000000000E+00 0.  1.
          4    1    6    6  502    0 -0.66713818801E+02  0.83322701184E+02 -0.12100131465E+01  0.10674675772E+03  0.00000000000E+00 0. -1.
          1    1    5    5  503    0 -0.48586745264E+02 -0.53663656023E+02 -0.29979501940E+03  0.30841127323E+03  0.00000000000E+00 0. -1.
         -2    1    5    5    0  503 -0.22840644317E+03 -0.20259419942E+03 -0.73135195650E+03  0.79252103896E+03  0.00000000000E+00 0.  1.
         -3    1    6    6    0  502 -0.25235153859E+02  0.16873900725E+03  0.41712699478E+02  0.17564058431E+03  0.00000000000E+00 0.  1.
<mgrwt>
<rscale>  0 0.22280744E+04</rscale>
<asrwt>0</asrwt>
<pdfrwt beam="1">  1        2 0.18940466E+00 0.22280744E+04</pdfrwt>
<pdfrwt beam="2">  1       -2 0.15508936E+00 0.22280744E+04</pdfrwt>
<totfact> 0.45368963E+00</totfact>
</mgrwt>
</event>
<event>
12    1  0.1536832E-007  0.1356703E+04  0.7818608E-02  0.8985769E-01
         -2   -1    0    0    0  501 -0.00000000000E+00  0.00000000000E+00  0.21308278636E+03  0.21308278636E+03  0.00000000000E+00 0.  1.
          2   -1    0    0  501    0  0.00000000000E+00 -0.00000000000E+00 -0.21595397835E+04  0.21595397835E+04  0.00000000000E+00 0. -1.
         23    2    1    2    0    0  0.64151655659E+02  0.29852991208E+03 -0.85966865938E+03  0.91655430610E+03  0.88351846529E+02 0.  0.
        254    2    1    2    0    0 -0.64151655659E+02 -0.29852991208E+03 -0.10867883378E+04  0.14560682638E+04  0.91966861114E+03 0.  0.
        -24    2    4    4    0    0  0.45089346247E+02  0.30931148799E+03 -0.22715931772E+03  0.39462022746E+03  0.80106944413E+02 0.  0.
         24    2    4    4    0    0 -0.10924100191E+03 -0.60784140007E+03 -0.85962902008E+03  0.10614480363E+04  0.79404770217E+02 0.  0.
         13    1    3    3    0    0  0.11786545129E+02  0.86315789410E+02 -0.37324342129E+03  0.38327534448E+03  0.00000000000E+00 0. -1.
        -13    1    3    3    0    0  0.52365110531E+02  0.21221412267E+03 -0.48642523809E+03  0.53327896162E+03  0.00000000000E+00 0.  1.
          4    1    6    6  502    0 -0.92539394477E+02 -0.29576784520E+03 -0.41337919701E+03  0.51664738295E+03  0.00000000000E+00 0. -1.
          1    1    5    5  503    0  0.14024007354E+02  0.22081366464E+03 -0.11819600010E+03  0.25084983898E+03  0.00000000000E+00 0. -1.
         -2    1    5    5    0  503  0.31065338894E+02  0.88497823354E+02 -0.10896331761E+03  0.14377038848E+03  0.00000000000E+00 0.  1.
         -3    1    6    6    0  502 -0.16701607430E+02 -0.31207355488E+03 -0.44624982307E+03  0.54480065339E+03  0.00000000000E+00 0.  1.
<mgrwt>
<rscale>  0 0.13567030E+04</rscale>
<asrwt>0</asrwt>
<pdfrwt beam="1">  1        2 0.33223689E+00 0.13567030E+04</pdfrwt>
<pdfrwt beam="2">  1       -2 0.32781967E-01 0.13567030E+04</pdfrwt>
<totfact> 0.46176072E+01</totfact>
</mgrwt>
</event>
<event>
12    1  0.1536832E-007  0.2528972E+04  0.7818608E-02  0.8392736E-01
          1   -1    0    0  501    0  0.00000000000E+00  0.00000000000E+00  0.27941530288E+04  0.27941530288E+04  0.00000000000E+00 0.  1.
         -1   -1    0    0    0  501 -0.00000000000E+00 -0.00000000000E+00 -0.57223957781E+03  0.57223957781E+03  0.00000000000E+00 0. -1.
         23    2    1    2    0    0  0.12418491782E+03 -0.93549552202E+03  0.21484718716E+03  0.97266141731E+03  0.96628946869E+02 0.  0.
        254    2    1    2    0    0 -0.12418491782E+03  0.93549552202E+03  0.20070662638E+04  0.23937311893E+04  0.90058883720E+03 0.  0.
        -24    2    4    4    0    0 -0.21003913535E+03  0.51392758395E+03  0.18427954774E+04  0.19262255069E+04  0.78813273491E+02 0.  0.
         24    2    4    4    0    0  0.85854217531E+02  0.42156793806E+03  0.16427078647E+03  0.46750568241E+03  0.80536940162E+02 0.  0.
         13    1    3    3    0    0  0.97518058032E+02 -0.41789976039E+03  0.12195962310E+03  0.44612120668E+03  0.00000000000E+00 0.  1.
        -13    1    3    3    0    0  0.26666859791E+02 -0.51759576162E+03  0.92887564056E+02  0.52654021064E+03  0.00000000000E+00 0. -1.
          4    1    6    6  502    0  0.35620588915E+02  0.59483015893E+02  0.74403825410E+01  0.69731017680E+02  0.00000000000E+00 0. -1.
          1    1    5    5  503    0 -0.33000296898E+02  0.17536548716E+03  0.55976126833E+03  0.58751574550E+03  0.00000000000E+00 0. -1.
         -2    1    5    5    0  503 -0.17703883846E+03  0.33856209679E+03  0.12830342090E+04  0.13387097614E+04  0.00000000000E+00 0.  1.
         -3    1    6    6    0  502  0.50233628616E+02  0.36208492217E+03  0.15683040393E+03  0.39777466473E+03  0.00000000000E+00 0.  1.
<mgrwt>
<rscale>  0 0.25289721E+04</rscale>
<asrwt>0</asrwt>
<pdfrwt beam="1">  1        1 0.42986969E+00 0.25289721E+04</pdfrwt>
<pdfrwt beam="2">  1       -1 0.88036860E-01 0.25289721E+04</pdfrwt>
<totfact> 0.94530942E-01</totfact>
</mgrwt>
</event>
<event>
12    1  0.1536832E-007  0.1808295E+04  0.7818608E-02  0.8701901E-01
         -2   -1    0    0    0  501 -0.00000000000E+00  0.00000000000E+00  0.81499620141E+03  0.81499620141E+03  0.00000000000E+00 0.  1.
          2   -1    0    0  501    0  0.00000000000E+00 -0.00000000000E+00 -0.10030506292E+04  0.10030506292E+04  0.00000000000E+00 0. -1.
         23    2    1    2    0    0 -0.25498600374E+03 -0.62525558660E+03 -0.91066931999E+02  0.68750255890E+03  0.91674269663E+02 0.  0.
        254    2    1    2    0    0  0.25498600374E+03  0.62525558660E+03 -0.96987495798E+02  0.11305442717E+04  0.90153278658E+03 0.  0.
        -24    2    4    4    0    0  0.50788682693E+03  0.23941971204E+03 -0.27489119891E+03  0.63017558137E+03  0.79279660946E+02 0.  0.
         24    2    4    4    0    0 -0.25290082318E+03  0.38583587456E+03  0.17790370311E+03  0.50036869034E+03  0.76752525886E+02 0.  0.
         13    1    3    3    0    0 -0.10211208672E+03 -0.36143947939E+03 -0.68286865658E+02  0.38174398691E+03  0.00000000000E+00 0. -1.
        -13    1    3    3    0    0 -0.15287391702E+03 -0.26381610720E+03 -0.22780066341E+02  0.30575857199E+03  0.00000000000E+00 0.  1.
          4    1    6    6  502    0 -0.20931692354E+03  0.34227472425E+03  0.12816649021E+03  0.42117954670E+03  0.00000000000E+00 0. -1.
          3    1    5    5  503    0  0.50228672553E+03  0.22557767484E+03 -0.25939769607E+03  0.60865787332E+03  0.00000000000E+00 0. -1.
         -4    1    5    5    0  503  0.56001013952E+01  0.13842037201E+02 -0.15493502834E+02  0.21517708046E+02  0.00000000000E+00 0.  1.
         -3    1    6    6    0  502 -0.43583899646E+02  0.43561150302E+02  0.49737212896E+02  0.79189143641E+02  0.00000000000E+00 0.  1.
<mgrwt>
<rscale>  0 0.18082947E+04</rscale>
<asrwt>0</asrwt>
<pdfrwt beam="1">  1        2 0.15431548E+00 0.18082947E+04</pdfrwt>
<pdfrwt beam="2">  1       -2 0.12538403E+00 0.18082947E+04</pdfrwt>
<totfact> 0.11256299E+01</totfact>
</mgrwt>
</event>
<event>
12    1  0.1536832E-007  0.1206654E+04  0.7818608E-02  0.9107052E-01
         -2   -1    0    0    0  501 -0.00000000000E+00  0.00000000000E+00  0.30762436427E+03  0.30762436427E+03  0.00000000000E+00 0.  1.
          2   -1    0    0  501    0  0.00000000000E+00 -0.00000000000E+00 -0.11832729819E+04  0.11832729819E+04  0.00000000000E+00 0. -1.
         23    2    1    2    0    0 -0.11844464466E+03  0.25184402291E+02  0.49557163536E+02  0.15727355145E+03  0.87267803695E+02 0.  0.
        254    2    1    2    0    0  0.11844464466E+03 -0.25184402291E+02 -0.92520578117E+03  0.13336237947E+04  0.95282910344E+03 0.  0.
        -24    2    4    4    0    0  0.14698753829E+03  0.19827823472E+03  0.10190142371E+03  0.27906209151E+03  0.81068834867E+02 0.  0.
         24    2    4    4    0    0 -0.28542893630E+02 -0.22346263701E+03 -0.10271072049E+04  0.10545617032E+04  0.80005803761E+02 0.  0.
         13    1    3    3    0    0 -0.12802062678E+03  0.33634451988E+02  0.55069032462E+02  0.14336371779E+03  0.00000000000E+00 0.  1.
        -13    1    3    3    0    0  0.95759821226E+01 -0.84500496970E+01 -0.55118689257E+01  0.13909833664E+02  0.00000000000E+00 0. -1.
          2    1    6    6  502    0 -0.28793617609E+02 -0.19365921928E+02 -0.16760681563E+03  0.17116119885E+03  0.00000000000E+00 0. -1.
          3    1    5    5  503    0 -0.31670743096E+01 -0.46841384103E+01  0.77852955430E+01  0.96219716805E+01  0.00000000000E+00 0. -1.
         -4    1    5    5    0  503  0.15015461260E+03  0.20296237313E+03  0.94116128166E+02  0.26944011983E+03  0.00000000000E+00 0.  1.
         -1    1    6    6    0  502  0.25072397861E+00 -0.20409671509E+03 -0.85950038925E+03  0.88340050435E+03  0.00000000000E+00 0.  1.
<mgrwt>
<rscale>  0 0.12066542E+04</rscale>
<asrwt>0</asrwt>
<pdfrwt beam="1">  1        2 0.18204200E+00 0.12066542E+04</pdfrwt>
<pdfrwt beam="2">  1       -2 0.47326825E-01 0.12066542E+04</pdfrwt>
<totfact> 0.80867321E+01</totfact>
</mgrwt>
</event>
<event>
12    1  0.1536832E-007  0.2545562E+04  0.7818608E-02  0.8386931E-01
          3   -1    0    0  501    0  0.00000000000E+00  0.00000000000E+00  0.54609311346E+03  0.54609311346E+03  0.00000000000E+00 0. -1.
         -3   -1    0    0    0  501 -0.00000000000E+00 -0.00000000000E+00 -0.29664759287E+04  0.29664759287E+04  0.00000000000E+00 0.  1.
         23    2    1    2    0    0 -0.11053798768E+04 -0.13835830119E+01 -0.90589585371E+03  0.14323899976E+04  0.96058425486E+02 0.  0.
        254    2    1    2    0    0  0.11053798768E+04  0.13835830119E+01 -0.15144869615E+04  0.20801790445E+04  0.90089262085E+03 0.  0.
        -24    2    4    4    0    0  0.49483311872E+03 -0.26744709999E+03 -0.19723626235E+03  0.60130432805E+03  0.79227426297E+02 0.  0.
         24    2    4    4    0    0  0.61054675810E+03  0.26883068300E+03 -0.13172506992E+04  0.14788747165E+04  0.82968322973E+02 0.  0.
         11    1    3    3    0    0 -0.16580392486E+03  0.22150188922E+02 -0.10445025372E+03  0.19720909683E+03  0.00000000000E+00 0. -1.
        -11    1    3    3    0    0 -0.93957595196E+03 -0.23533771934E+02 -0.80144559999E+03  0.12351809008E+04  0.00000000000E+00 0.  1.
          4    1    6    6  502    0  0.13215150507E+03  0.23014802427E+02 -0.27954741338E+03  0.31006524757E+03  0.00000000000E+00 0. -1.
          3    1    5    5  503    0  0.12787399676E+03 -0.48346835714E+02 -0.18148279876E+02  0.13790770694E+03  0.00000000000E+00 0. -1.
         -4    1    5    5    0  503  0.36695912196E+03 -0.21910026427E+03 -0.17908798247E+03  0.46339662112E+03  0.00000000000E+00 0.  1.
         -3    1    6    6    0  502  0.47839525303E+03  0.24581588057E+03 -0.10377032858E+04  0.11688094689E+04  0.00000000000E+00 0.  1.
<mgrwt>
<rscale>  0 0.25455625E+04</rscale>
<asrwt>0</asrwt>
<pdfrwt beam="1">  1        3 0.84014326E-01 0.25455625E+04</pdfrwt>
<pdfrwt beam="2">  1       -3 0.45638091E+00 0.25455625E+04</pdfrwt>
<totfact> 0.15694580E-02</totfact>
</mgrwt>
</event>
<event>
12    1  0.1536832E-007  0.1759850E+04  0.7818608E-02  0.8727947E-01
         -1   -1    0    0    0  501 -0.00000000000E+00  0.00000000000E+00  0.53452071240E+03  0.53452071240E+03  0.00000000000E+00 0.  1.
          1   -1    0    0  501    0  0.00000000000E+00 -0.00000000000E+00 -0.14485268044E+04  0.14485268044E+04  0.00000000000E+00 0. -1.
         23    2    1    2    0    0 -0.63894918872E+03  0.18389571266E+02 -0.46594506393E+03  0.79604991471E+03  0.89422715292E+02 0.  0.
        254    2    1    2    0    0  0.63894918872E+03 -0.18389571266E+02 -0.44806102813E+03  0.11869976021E+04  0.89420936053E+03 0.  0.
        -24    2    4    4    0    0  0.34819768118E+03 -0.21895348863E+03 -0.64944837839E+03  0.77283793658E+03  0.79454544607E+02 0.  0.
         24    2    4    4    0    0  0.29075150754E+03  0.20056391737E+03  0.20138735027E+03  0.41415966555E+03  0.78797459587E+02 0.  0.
         13    1    3    3    0    0 -0.27554544011E+03  0.16227179621E+02 -0.25539389790E+03  0.37605139810E+03  0.00000000000E+00 0. -1.
        -13    1    3    3    0    0 -0.36340374861E+03  0.21623916447E+01 -0.21055116602E+03  0.41999851661E+03  0.00000000000E+00 0.  1.
          2    1    6    6  502    0  0.15098221113E+03  0.83787933297E+02  0.13890108835E+03  0.22160676476E+03  0.00000000000E+00 0. -1.
          3    1    5    5  503    0  0.31070410401E+03 -0.19425501156E+03 -0.61638740030E+03  0.71708122066E+03  0.00000000000E+00 0. -1.
         -4    1    5    5    0  503  0.37493577169E+02 -0.24698477071E+02 -0.33060978094E+02  0.55756715928E+02  0.00000000000E+00 0.  1.
         -1    1    6    6    0  502  0.13976929641E+03  0.11677598407E+03  0.62486261918E+02  0.19255290079E+03  0.00000000000E+00 0.  1.
<mgrwt>
<rscale>  0 0.17598495E+04</rscale>
<asrwt>0</asrwt>
<pdfrwt beam="1">  1        1 0.22285027E+00 0.17598495E+04</pdfrwt>
<pdfrwt beam="2">  1       -1 0.82233957E-01 0.17598495E+04</pdfrwt>
<totfact> 0.98914803E+00</totfact>
</mgrwt>
</event>
<event>
12    1  0.1536832E-007  0.2775585E+04  0.7818608E-02  0.8310889E-01
          2   -1    0    0  501    0  0.00000000000E+00  0.00000000000E+00  0.17600034729E+04  0.17600034729E+04  0.00000000000E+00 0. -1.
         -2   -1    0    0    0  501 -0.00000000000E+00 -0.00000000000E+00 -0.10942977502E+04  0.10942977502E+04  0.00000000000E+00 0.  1.
         23    2    1    2    0    0  0.82635191281E+03  0.27288064605E+03  0.12070090652E+04  0.14908006885E+04  0.91074027532E+02 0.  0.
        254    2    1    2    0    0 -0.82635191281E+03 -0.27288064605E+03 -0.54130334249E+03  0.13635005346E+04  0.89933479219E+03 0.  0.
        -24    2    4    4    0    0  0.89393455345E+02  0.13234357218E+03  0.64987142868E+02  0.18990131497E+03  0.79581214698E+02 0.  0.
         24    2    4    4    0    0 -0.91574536815E+03 -0.40522421822E+03 -0.60629048535E+03  0.11735992196E+04  0.83371034076E+02 0.  0.
         11    1    3    3    0    0  0.14629375349E+03  0.13165425651E+02  0.19260310249E+03  0.24222127452E+03  0.00000000000E+00 0.  1.
        -11    1    3    3    0    0  0.68005815932E+03  0.25971522040E+03  0.10144059627E+04  0.12485794140E+04  0.00000000000E+00 0. -1.
          2    1    6    6  502    0 -0.24425918982E+03 -0.14859213086E+03 -0.16507786030E+03  0.33014068687E+03  0.00000000000E+00 0. -1.
          1    1    5    5  503    0 -0.15300050560E+01  0.56303644047E+02  0.36514695552E+01  0.56442665408E+02  0.00000000000E+00 0. -1.
         -2    1    5    5    0  503  0.90923460401E+02  0.76039928132E+02  0.61335673313E+02  0.13345864956E+03  0.00000000000E+00 0.  1.
         -3    1    6    6    0  502 -0.67148617833E+03 -0.25663208737E+03 -0.44121262506E+03  0.84345853275E+03  0.00000000000E+00 0.  1.
<mgrwt>
<rscale>  0 0.27755849E+04</rscale>
<asrwt>0</asrwt>
<pdfrwt beam="1">  1        2 0.27076977E+00 0.27755849E+04</pdfrwt>
<pdfrwt beam="2">  1       -2 0.16835350E+00 0.27755849E+04</pdfrwt>
<totfact> 0.17342205E+00</totfact>
</mgrwt>
</event>
<event>
12    1  0.1536832E-007  0.1233752E+04  0.7818608E-02  0.9083816E-01
         -2   -1    0    0    0  501 -0.00000000000E+00  0.00000000000E+00  0.22526597106E+03  0.22526597106E+03  0.00000000000E+00 0.  1.
          2   -1    0    0  501    0  0.00000000000E+00 -0.00000000000E+00 -0.16892740065E+04  0.16892740065E+04  0.00000000000E+00 0. -1.
         23    2    1    2    0    0 -0.19207837357E+02 -0.23711966958E+03 -0.59787913937E+03  0.64991076785E+03  0.91268078548E+02 0.  0.
        254    2    1    2    0    0  0.19207837357E+02  0.23711966958E+03 -0.86612889603E+03  0.12646292097E+04  0.89023204542E+03 0.  0.
        -24    2    4    4    0    0  0.13998755906E+03 -0.92593767397E+02 -0.88504743428E+03  0.90423269142E+03  0.78470866292E+02 0.  0.
         24    2    4    4    0    0 -0.12077972170E+03  0.32971343698E+03  0.18918538250E+02  0.36039651825E+03  0.78924315505E+02 0.  0.
         11    1    3    3    0    0 -0.28978565662E+02 -0.22025775392E+03 -0.58690883288E+03  0.62754698115E+03  0.00000000000E+00 0. -1.
        -11    1    3    3    0    0  0.97707283045E+01 -0.16861915665E+02 -0.10970306481E+02  0.22363786705E+02  0.00000000000E+00 0.  1.
          4    1    6    6  502    0 -0.84741110493E+00  0.45950069056E+02  0.24902812275E+02  0.52271187198E+02  0.00000000000E+00 0. -1.
          3    1    5    5  503    0  0.84098937355E+01 -0.16206167203E+02 -0.27111496424E+03  0.27172907464E+03  0.00000000000E+00 0. -1.
         -4    1    5    5    0  503  0.13157766533E+03 -0.76387600194E+02 -0.61393247004E+03  0.63250361678E+03  0.00000000000E+00 0.  1.
         -3    1    6    6    0  502 -0.11993231060E+03  0.28376336792E+03 -0.59842740255E+01  0.30812533105E+03  0.00000000000E+00 0.  1.
<mgrwt>
<rscale>  0 0.12337519E+04</rscale>
<asrwt>0</asrwt>
<pdfrwt beam="1">  1        2 0.25988831E+00 0.12337519E+04</pdfrwt>
<pdfrwt beam="2">  1       -2 0.34656303E-01 0.12337519E+04</pdfrwt>
<totfact> 0.76408827E+01</totfact>
</mgrwt>
</event>
<event>
12    1  0.1536832E-007  0.3821040E+04  0.7818608E-02  0.8041655E-01
          2   -1    0    0  501    0  0.00000000000E+00  0.00000000000E+00  0.11641124382E+04  0.11641124382E+04  0.00000000000E+00 0. -1.
         -2   -1    0    0    0  501 -0.00000000000E+00 -0.00000000000E+00 -0.31355100494E+04  0.31355100494E+04  0.00000000000E+00 0.  1.
         23    2    1    2    0    0 -0.82294924347E+03  0.15240227650E+04 -0.15007118327E+04  0.22935427901E+04  0.91168412383E+02 0.  0.
        254    2    1    2    0    0  0.82294924347E+03 -0.15240227650E+04 -0.47068577842E+03  0.20060796975E+04  0.89605792522E+03 0.  0.
        -24    2    4    4    0    0  0.75647195590E+03 -0.50403308132E+03 -0.10970627337E+03  0.91909719141E+03  0.80031329608E+02 0.  0.
         24    2    4    4    0    0  0.66477287573E+02 -0.10199896837E+04 -0.36097950506E+03  0.10869825061E+04  0.80165959171E+02 0.  0.
         13    1    3    3    0    0 -0.75659106959E+03  0.14013462442E+04 -0.14110372058E+04  0.21277282107E+04  0.00000000000E+00 0.  1.
        -13    1    3    3    0    0 -0.66358173883E+02  0.12267652081E+03 -0.89674626943E+02  0.16581457932E+03  0.00000000000E+00 0. -1.
          2    1    6    6  502    0 -0.16771833706E+02 -0.29312476781E+03 -0.97580759394E+02  0.30939526259E+03  0.00000000000E+00 0. -1.
          1    1    5    5  503    0  0.62978352018E+03 -0.38422517933E+03 -0.77710836459E+02  0.74181887602E+03  0.00000000000E+00 0. -1.
         -2    1    5    5    0  503  0.12668843572E+03 -0.11980790199E+03 -0.31995436909E+02  0.17727831539E+03  0.00000000000E+00 0.  1.
         -1    1    6    6    0  502  0.83249121279E+02 -0.72686491585E+03 -0.26339874566E+03  0.77758724353E+03  0.00000000000E+00 0.  1.
<mgrwt>
<rscale>  0 0.38210398E+04</rscale>
<asrwt>0</asrwt>
<pdfrwt beam="1">  1        2 0.17909422E+00 0.38210398E+04</pdfrwt>
<pdfrwt beam="2">  1       -2 0.48238615E+00 0.38210398E+04</pdfrwt>
<totfact> 0.33964533E-02</totfact>
</mgrwt>
</event>
<event>
12    1  0.1536832E-007  0.1747220E+04  0.7818608E-02  0.8734882E-01
          1   -1    0    0  501    0  0.00000000000E+00  0.00000000000E+00  0.10026246575E+04  0.10026246575E+04  0.00000000000E+00 0. -1.
         -1   -1    0    0    0  501 -0.00000000000E+00 -0.00000000000E+00 -0.76119673877E+03  0.76119673877E+03  0.00000000000E+00 0.  1.
         23    2    1    2    0    0 -0.50977383094E+03  0.23289861668E+03 -0.22146418566E+03  0.60976966540E+03  0.93067367792E+02 0.  0.
        254    2    1    2    0    0  0.50977383094E+03 -0.23289861668E+03  0.46289210442E+03  0.11540517309E+04  0.89635661034E+03 0.  0.
        -24    2    4    4    0    0  0.74872791058E+02  0.13090168117E+03 -0.20984713317E+03  0.27061454996E+03  0.80344448309E+02 0.  0.
         24    2    4    4    0    0  0.43490103988E+03 -0.36380029785E+03  0.67273923760E+03  0.88343718094E+03  0.79959987892E+02 0.  0.
         13    1    3    3    0    0 -0.35128356825E+03  0.11728076497E+03 -0.16638953211E+03  0.40600541813E+03  0.00000000000E+00 0. -1.
        -13    1    3    3    0    0 -0.15849026269E+03  0.11561785171E+03 -0.55074653549E+02  0.20376424727E+03  0.00000000000E+00 0.  1.
          4    1    6    6  502    0  0.37154519407E+03 -0.34288633667E+03  0.58475124317E+03  0.77301415737E+03  0.00000000000E+00 0. -1.
          3    1    5    5  503    0  0.82817967442E+02  0.10268366803E+03 -0.12855699545E+03  0.18420003390E+03  0.00000000000E+00 0. -1.
         -4    1    5    5    0  503 -0.79451763845E+01  0.28218013135E+02 -0.81290137728E+02  0.86414516054E+02  0.00000000000E+00 0.  1.
         -3    1    6    6    0  502  0.63355845813E+02 -0.20913961179E+02  0.87987994429E+02  0.11042302357E+03  0.00000000000E+00 0.  1.
<mgrwt>
<rscale>  0 0.17472202E+04</rscale>
<asrwt>0</asrwt>
<pdfrwt beam="1">  1        1 0.15424995E+00 0.17472202E+04</pdfrwt>
<pdfrwt beam="2">  1       -1 0.11710719E+00 0.17472202E+04</pdfrwt>
<totfact> 0.93800044E+00</totfact>
</mgrwt>
</event>
<event>
12    1  0.1536832E-007  0.1212040E+04  0.7818608E-02  0.9102383E-01
          2   -1    0    0  501    0  0.00000000000E+00  0.00000000000E+00  0.11310689694E+04  0.11310689694E+04  0.00000000000E+00 0. -1.
         -2   -1    0    0    0  501 -0.00000000000E+00 -0.00000000000E+00 -0.32470175492E+03  0.32470175492E+03  0.00000000000E+00 0.  1.
         23    2    1    2    0    0 -0.29261275515E+02  0.71675905968E+02  0.48708503999E+03  0.50156529760E+03  0.91226387819E+02 0.  0.
        254    2    1    2    0    0  0.29261275515E+02 -0.71675905968E+02  0.31928217447E+03  0.95420542670E+03  0.89586451636E+03 0.  0.
        -24    2    4    4    0    0 -0.33932857224E+03 -0.27995559971E+03  0.26217276973E+03  0.51934026024E+03  0.86375499793E+02 0.  0.
         24    2    4    4    0    0  0.36858984775E+03  0.20827969375E+03  0.57109404736E+02  0.43486516646E+03  0.81285436560E+02 0.  0.
         13    1    3    3    0    0 -0.15490289575E+02  0.92844935563E+02  0.36973501169E+03  0.38152864899E+03  0.00000000000E+00 0. -1.
        -13    1    3    3    0    0 -0.13770985940E+02 -0.21169029595E+02  0.11735002830E+03  0.12003664861E+03  0.00000000000E+00 0.  1.
          4    1    6    6  502    0  0.34524587450E+03  0.16726162451E+03  0.55674303286E+02  0.38764776916E+03  0.00000000000E+00 0. -1.
          3    1    5    5  503    0 -0.27531582102E+03 -0.22459822795E+03  0.16893972167E+03  0.39342571708E+03  0.00000000000E+00 0. -1.
         -4    1    5    5    0  503 -0.64012751219E+02 -0.55357371760E+02  0.93233048061E+02  0.12591454315E+03  0.00000000000E+00 0.  1.
         -3    1    6    6    0  502  0.23343973258E+02  0.41018069238E+02  0.14351014499E+01  0.47217397299E+02  0.00000000000E+00 0.  1.
<mgrwt>
<rscale>  0 0.12120397E+04</rscale>
<asrwt>0</asrwt>
<pdfrwt beam="1">  1        2 0.17401061E+00 0.12120397E+04</pdfrwt>
<pdfrwt beam="2">  1       -2 0.49954117E-01 0.12120397E+04</pdfrwt>
<totfact> 0.77917587E+01</totfact>
</mgrwt>
</event>
<event>
12    1  0.1536832E-007  0.1442679E+04  0.7818608E-02  0.8923492E-01
          2   -1    0    0  501    0  0.00000000000E+00  0.00000000000E+00  0.46282532476E+03  0.46282532476E+03  0.00000000000E+00 0. -1.
         -2   -1    0    0    0  501 -0.00000000000E+00 -0.00000000000E+00 -0.11242478931E+04  0.11242478931E+04  0.00000000000E+00 0.  1.
         23    2    1    2    0    0  0.79682130751E+02  0.38915443197E+03 -0.40992364137E+03  0.57686308712E+03  0.83325960232E+02 0.  0.
        254    2    1    2    0    0 -0.79682130751E+02 -0.38915443197E+03 -0.25149892700E+03  0.10102101308E+04  0.89413778813E+03 0.  0.
        -24    2    4    4    0    0  0.39248336458E+02 -0.99494748037E+02 -0.55280942551E+03  0.56853751424E+03  0.78721073246E+02 0.  0.
         24    2    4    4    0    0 -0.11893046721E+03 -0.28965968393E+03  0.30131049850E+03  0.44167261653E+03  0.78990475126E+02 0.  0.
         13    1    3    3    0    0  0.96702797524E+02  0.32849075311E+03 -0.33619085475E+03  0.47987696000E+03  0.00000000000E+00 0.  1.
        -13    1    3    3    0    0 -0.17020666773E+02  0.60663678859E+02 -0.73732786627E+02  0.96986127121E+02  0.00000000000E+00 0. -1.
          2    1    6    6  502    0 -0.53375887416E+02 -0.17364743785E+03  0.22102686922E+03  0.28610364372E+03  0.00000000000E+00 0. -1.
          3    1    5    5  503    0  0.53755791624E+02 -0.10382171442E+03 -0.50642543712E+03  0.51974547317E+03  0.00000000000E+00 0. -1.
         -4    1    5    5    0  503 -0.14507455166E+02  0.43269663878E+01 -0.46383988381E+02  0.48792041069E+02  0.00000000000E+00 0.  1.
         -1    1    6    6    0  502 -0.65554579793E+02 -0.11601224608E+03  0.80283629279E+02  0.15556897281E+03  0.00000000000E+00 0.  1.
<mgrwt>
<rscale>  0 0.14426786E+04</rscale>
<asrwt>0</asrwt>
<pdfrwt beam="1">  1        2 0.71203897E-01 0.14426786E+04</pdfrwt>
<pdfrwt beam="2">  1       -2 0.17296121E+00 0.14426786E+04</pdfrwt>
<totfact> 0.13254448E+01</totfact>
</mgrwt>
</event>
<event>
12    1  0.1536832E-007  0.1412026E+04  0.7818608E-02  0.8945160E-01
          2   -1    0    0  501    0  0.00000000000E+00  0.00000000000E+00  0.22399446701E+04  0.22399446701E+04  0.00000000000E+00 0.  1.
         -2   -1    0    0    0  501 -0.00000000000E+00 -0.00000000000E+00 -0.22252963842E+03  0.22252963842E+03  0.00000000000E+00 0. -1.
         23    2    1    2    0    0  0.23110396964E+03 -0.34120997351E+03  0.71792684576E+03  0.83264751924E+03  0.89719811802E+02 0.  0.
        254    2    1    2    0    0 -0.23110396964E+03  0.34120997351E+03  0.12994881859E+04  0.16298267893E+04  0.89321471489E+03 0.  0.
        -24    2    4    4    0    0 -0.25053239730E+03  0.50968533171E+02  0.13008734849E+04  0.13281398750E+04  0.79494844582E+02 0.  0.
         24    2    4    4    0    0  0.19428427655E+02  0.29024144034E+03 -0.13852990105E+01  0.30168691427E+03  0.79971980703E+02 0.  0.
         13    1    3    3    0    0  0.86810345556E+02 -0.86061802703E+02  0.28177716111E+03  0.30714986326E+03  0.00000000000E+00 0.  1.
        -13    1    3    3    0    0  0.14429362409E+03 -0.25514817080E+03  0.43614968465E+03  0.52549765598E+03  0.00000000000E+00 0. -1.
          4    1    6    6  502    0  0.16621155285E+02  0.26851836644E+03  0.21647694205E+02  0.26990183138E+03  0.00000000000E+00 0. -1.
          3    1    5    5  503    0 -0.35841949704E+02 -0.17435251961E+02  0.27019139992E+03  0.27311540776E+03  0.00000000000E+00 0. -1.
         -4    1    5    5    0  503 -0.21469044759E+03  0.68403785132E+02  0.10306820850E+04  0.10550244673E+04  0.00000000000E+00 0.  1.
         -3    1    6    6    0  502  0.28072723701E+01  0.21723073898E+02 -0.23032993216E+02  0.31785082888E+02  0.00000000000E+00 0.  1.
<mgrwt>
<rscale>  0 0.14120256E+04</rscale>
<asrwt>0</asrwt>
<pdfrwt beam="1">  1        2 0.34460686E+00 0.14120256E+04</pdfrwt>
<pdfrwt beam="2">  1       -2 0.34235331E-01 0.14120256E+04</pdfrwt>
<totfact> 0.38166617E+01</totfact>
</mgrwt>
</event>
<event>
12    1  0.1536832E-007  0.1311469E+04  0.7818608E-02  0.9020519E-01
          2   -1    0    0  501    0  0.00000000000E+00  0.00000000000E+00  0.52339481704E+03  0.52339481704E+03  0.00000000000E+00 0. -1.
         -2   -1    0    0    0  501 -0.00000000000E+00 -0.00000000000E+00 -0.82153629281E+03  0.82153629281E+03  0.00000000000E+00 0.  1.
         23    2    1    2    0    0  0.25083198179E+03  0.22306946346E+03 -0.14504429981E+03  0.37715262784E+03  0.92355764099E+02 0.  0.
        254    2    1    2    0    0 -0.25083198179E+03 -0.22306946346E+03 -0.15309717597E+03  0.96777848202E+03  0.89469535393E+03 0.  0.
        -24    2    4    4    0    0 -0.10393636475E+03 -0.48094192846E+03 -0.34450080099E+03  0.60551819202E+03  0.76573967631E+02 0.  0.
         24    2    4    4    0    0 -0.14689561704E+03  0.25787246500E+03  0.19140362502E+03  0.36226029000E+03  0.80750476947E+02 0.  0.
         11    1    3    3    0    0  0.22720259227E+02  0.17947620101E+02 -0.46798740057E+02  0.55031348498E+02  0.00000000000E+00 0. -1.
        -11    1    3    3    0    0  0.22811172256E+03  0.20512184336E+03 -0.98245559749E+02  0.32212127934E+03  0.00000000000E+00 0.  1.
          4    1    6    6  502    0 -0.19817890982E+01  0.35788254140E+02  0.10991889027E+01  0.35859933612E+02  0.00000000000E+00 0. -1.
          1    1    5    5  503    0 -0.51301231194E+02 -0.10400698494E+03 -0.10022111410E+03  0.15327602862E+03  0.00000000000E+00 0. -1.
         -2    1    5    5    0  503 -0.52635133553E+02 -0.37693494352E+03 -0.24427968689E+03  0.45224216340E+03  0.00000000000E+00 0.  1.
         -3    1    6    6    0  502 -0.14491382794E+03  0.22208421086E+03  0.19030443612E+03  0.32640035639E+03  0.00000000000E+00 0.  1.
<mgrwt>
<rscale>  0 0.13114692E+04</rscale>
<asrwt>0</asrwt>
<pdfrwt beam="1">  1        2 0.80522280E-01 0.13114692E+04</pdfrwt>
<pdfrwt beam="2">  1       -2 0.12639020E+00 0.13114692E+04</pdfrwt>
<totfact> 0.26648407E+01</totfact>
</mgrwt>
</event>
<event>
12    1  0.1536832E-007  0.1806533E+04  0.7818608E-02  0.8702833E-01
         -1   -1    0    0    0  501 -0.00000000000E+00  0.00000000000E+00  0.77037279199E+03  0.77037279199E+03  0.00000000000E+00 0.  1.
          1   -1    0    0  501    0  0.00000000000E+00 -0.00000000000E+00 -0.10590851120E+04  0.10590851120E+04  0.00000000000E+00 0. -1.
         23    2    1    2    0    0 -0.33580749477E+03 -0.26021255568E+03 -0.65389838006E+03  0.78635723981E+03  0.10147595520E+03 0.  0.
        254    2    1    2    0    0  0.33580749477E+03  0.26021255568E+03  0.36518606009E+03  0.10431006641E+04  0.87989822670E+03 0.  0.
        -24    2    4    4    0    0  0.31204837622E+03 -0.15012121435E+03 -0.14479318627E+03  0.38319025474E+03  0.77195443129E+02 0.  0.
         24    2    4    4    0    0  0.23759118549E+02  0.41033377003E+03  0.50997924636E+03  0.65991040939E+03  0.80402849195E+02 0.  0.
         11    1    3    3    0    0 -0.45998691362E+02 -0.73672572648E+02 -0.87146083869E+02  0.12303644786E+03  0.00000000000E+00 0.  1.
        -11    1    3    3    0    0 -0.28980880341E+03 -0.18653998303E+03 -0.56675229619E+03  0.66332079196E+03  0.00000000000E+00 0. -1.
          4    1    6    6  502    0  0.23133973545E+01  0.32289824780E+03  0.34900257179E+03  0.47546968921E+03  0.00000000000E+00 0. -1.
          3    1    5    5  503    0  0.20919136028E+03 -0.12611720180E+03 -0.12948737266E+03  0.27646618868E+03  0.00000000000E+00 0. -1.
         -4    1    5    5    0  503  0.10285701594E+03 -0.24004012554E+02 -0.15305813608E+02  0.10672406606E+03  0.00000000000E+00 0.  1.
         -3    1    6    6    0  502  0.21445721194E+02  0.87435522235E+02  0.16097667456E+03  0.18444072018E+03  0.00000000000E+00 0.  1.
<mgrwt>
<rscale>  0 0.18065330E+04</rscale>
<asrwt>0</asrwt>
<pdfrwt beam="1">  1        1 0.16293617E+00 0.18065330E+04</pdfrwt>
<pdfrwt beam="2">  1       -1 0.11851889E+00 0.18065330E+04</pdfrwt>
<totfact> 0.81982830E+00</totfact>
</mgrwt>
</event>
<event>
12    1  0.1536832E-007  0.1877900E+04  0.7818608E-02  0.8665936E-01
          1   -1    0    0  501    0  0.00000000000E+00  0.00000000000E+00  0.28604746715E+04  0.28604746715E+04  0.00000000000E+00 0. -1.
         -1   -1    0    0    0  501 -0.00000000000E+00 -0.00000000000E+00 -0.30821006732E+03  0.30821006732E+03  0.00000000000E+00 0.  1.
         23    2    1    2    0    0  0.12432802633E+03 -0.33170587766E+03  0.20753531656E+04  0.21075971788E+04  0.96896123383E+02 0.  0.
        254    2    1    2    0    0 -0.12432802633E+03  0.33170587766E+03  0.47691143850E+03  0.10610875599E+04  0.87919056084E+03 0.  0.
        -24    2    4    4    0    0 -0.31934255732E+03  0.33212451729E+03 -0.71833913225E+02  0.47328274057E+03  0.80932549286E+02 0.  0.
         24    2    4    4    0    0  0.19501453099E+03 -0.41863962047E+00  0.54874535172E+03  0.58780481937E+03  0.79763413201E+02 0.  0.
         13    1    3    3    0    0  0.94663459865E+02 -0.31317773925E+03  0.19578825659E+04  0.19850303799E+04  0.00000000000E+00 0. -1.
        -13    1    3    3    0    0  0.29664566465E+02 -0.18528138410E+02  0.11747059971E+03  0.12256679899E+03  0.00000000000E+00 0.  1.
          4    1    6    6  502    0  0.17692013083E+03  0.23350466816E+02  0.43451893425E+03  0.46973682123E+03  0.00000000000E+00 0. -1.
          3    1    5    5  503    0 -0.16591081048E+03  0.14335873223E+03  0.12968127580E+01  0.21927107621E+03  0.00000000000E+00 0. -1.
         -4    1    5    5    0  503 -0.15343174684E+03  0.18876578505E+03 -0.73130725983E+02  0.25401166435E+03  0.00000000000E+00 0.  1.
         -1    1    6    6    0  502  0.18094400155E+02 -0.23769106436E+02  0.11422641747E+03  0.11806799814E+03  0.00000000000E+00 0.  1.
<mgrwt>
<rscale>  0 0.18779000E+04</rscale>
<asrwt>0</asrwt>
<pdfrwt beam="1">  1        1 0.44007301E+00 0.18779000E+04</pdfrwt>
<pdfrwt beam="2">  1       -1 0.47416935E-01 0.18779000E+04</pdfrwt>
<totfact> 0.31449002E+00</totfact>
</mgrwt>
</event>
<event>
12    1  0.1536832E-007  0.1841615E+04  0.7818608E-02  0.8684477E-01
          2   -1    0    0  501    0  0.00000000000E+00  0.00000000000E+00  0.19048797993E+04  0.19048797993E+04  0.00000000000E+00 0. -1.
         -2   -1    0    0    0  501 -0.00000000000E+00 -0.00000000000E+00 -0.44511282218E+03  0.44511282218E+03  0.00000000000E+00 0.  1.
         23    2    1    2    0    0 -0.46269687739E+03 -0.43262138804E+03  0.92375666603E+03  0.11237467231E+04  0.90722951266E+02 0.  0.
        254    2    1    2    0    0  0.46269687739E+03  0.43262138804E+03  0.53601031112E+03  0.12262458984E+04  0.90284122858E+03 0.  0.
        -24    2    4    4    0    0  0.77335091748E+02 -0.21555007713E+03  0.38172642485E+03  0.45237070317E+03  0.80508617444E+02 0.  0.
         24    2    4    4    0    0  0.38536178564E+03  0.64817146517E+03  0.15428388626E+03  0.77387519525E+03  0.80307821336E+02 0.  0.
         11    1    3    3    0    0 -0.14655684903E+03 -0.19730757099E+03  0.35922940099E+03  0.43526423021E+03  0.00000000000E+00 0.  1.
        -11    1    3    3    0    0 -0.31614002836E+03 -0.23531381705E+03  0.56452726505E+03  0.68848249288E+03  0.00000000000E+00 0. -1.
          4    1    6    6  502    0  0.70491960392E+01  0.49323527964E+02  0.14346665825E+02  0.51849092527E+02  0.00000000000E+00 0. -1.
          3    1    5    5  503    0 -0.16477310823E+02 -0.46878584352E+02  0.74562238657E+02  0.89602627619E+02  0.00000000000E+00 0. -1.
         -4    1    5    5    0  503  0.93812402571E+02 -0.16867149278E+03  0.30716418620E+03  0.36276807555E+03  0.00000000000E+00 0.  1.
         -3    1    6    6    0  502  0.37831258960E+03  0.59884793721E+03  0.13993722044E+03  0.72202610273E+03  0.00000000000E+00 0.  1.
<mgrwt>
<rscale>  0 0.18416150E+04</rscale>
<asrwt>0</asrwt>
<pdfrwt beam="1">  1        2 0.29305843E+00 0.18416150E+04</pdfrwt>
<pdfrwt beam="2">  1       -2 0.68478897E-01 0.18416150E+04</pdfrwt>
<totfact> 0.13845950E+01</totfact>
</mgrwt>
</event>
<event>
12    1  0.1536832E-007  0.1829818E+04  0.7818608E-02  0.8690601E-01
          2   -1    0    0  501    0  0.00000000000E+00  0.00000000000E+00  0.11948612346E+04  0.11948612346E+04  0.00000000000E+00 0. -1.
         -2   -1    0    0    0  501 -0.00000000000E+00 -0.00000000000E+00 -0.70054891820E+03  0.70054891820E+03  0.00000000000E+00 0.  1.
         23    2    1    2    0    0 -0.53576203140E+03  0.19495278759E+03 -0.21528392160E+03  0.61600090154E+03  0.89790868821E+02 0.  0.
        254    2    1    2    0    0  0.53576203140E+03 -0.19495278759E+03  0.70959623796E+03  0.12794092512E+04  0.89906266049E+03 0.  0.
        -24    2    4    4    0    0 -0.82099423610E+02  0.24671660716E+03  0.32500810880E+03  0.42464560060E+03  0.84167783121E+02 0.  0.
         24    2    4    4    0    0  0.61786145501E+03 -0.44166939475E+03  0.38458812916E+03  0.85476365062E+03  0.76734851827E+02 0.  0.
         11    1    3    3    0    0 -0.34118344776E+03  0.86846130067E+02 -0.15959165827E+03  0.38654610685E+03  0.00000000000E+00 0.  1.
        -11    1    3    3    0    0 -0.19457858364E+03  0.10810665752E+03 -0.55692263328E+02  0.22945479469E+03  0.00000000000E+00 0. -1.
          2    1    6    6  502    0  0.32817380916E+03 -0.27947178209E+03  0.22918504553E+03  0.48818880681E+03  0.00000000000E+00 0. -1.
          3    1    5    5  503    0 -0.83062906969E+01  0.15423408443E+03  0.17086809607E+03  0.23033248472E+03  0.00000000000E+00 0. -1.
         -4    1    5    5    0  503 -0.73793132913E+02  0.92482522731E+02  0.15414001273E+03  0.19431311587E+03  0.00000000000E+00 0.  1.
         -1    1    6    6    0  502  0.28968764585E+03 -0.16219761266E+03  0.15540308363E+03  0.36657484381E+03  0.00000000000E+00 0.  1.
<mgrwt>
<rscale>  0 0.18298183E+04</rscale>
<asrwt>0</asrwt>
<pdfrwt beam="1">  1        2 0.18382481E+00 0.18298183E+04</pdfrwt>
<pdfrwt beam="2">  1       -2 0.10777676E+00 0.18298183E+04</pdfrwt>
<totfact> 0.12403806E+01</totfact>
</mgrwt>
</event>
<event>
12    1  0.1536832E-007  0.1537119E+04  0.7818608E-02  0.8860138E-01
         -2   -1    0    0    0  501 -0.00000000000E+00  0.00000000000E+00  0.37667724308E+03  0.37667724308E+03  0.00000000000E+00 0.  1.
          2   -1    0    0  501    0  0.00000000000E+00 -0.00000000000E+00 -0.15681424058E+04  0.15681424058E+04  0.00000000000E+00 0. -1.
         23    2    1    2    0    0  0.26659091326E+03 -0.15637264216E+03 -0.88500698328E+03  0.94167090953E+03  0.89351122767E+02 0.  0.
        254    2    1    2    0    0 -0.26659091326E+03  0.15637264216E+03 -0.30645817941E+03  0.10031487393E+04  0.90380731311E+03 0.  0.
        -24    2    4    4    0    0  0.10813303532E+03 -0.24548002050E+03 -0.34731663808E+03  0.44647174921E+03  0.82188697274E+02 0.  0.
         24    2    4    4    0    0 -0.37472394858E+03  0.40185266267E+03  0.40858458675E+02  0.55667699011E+03  0.79474886248E+02 0.  0.
         11    1    3    3    0    0  0.18478709353E+03 -0.10462930188E+03 -0.71689160212E+03  0.74768116864E+03  0.00000000000E+00 0. -1.
        -11    1    3    3    0    0  0.81803819735E+02 -0.51743340277E+02 -0.16811538116E+03  0.19398974089E+03  0.00000000000E+00 0.  1.
          2    1    6    6  502    0 -0.95273958526E+01  0.22357795128E+02  0.16626808106E+02  0.29446443292E+02  0.00000000000E+00 0. -1.
          3    1    5    5  503    0  0.13441025747E+01 -0.98415311325E+02 -0.11108340937E+03  0.14841463524E+03  0.00000000000E+00 0. -1.
         -4    1    5    5    0  503  0.10678893274E+03 -0.14706470918E+03 -0.23623322871E+03  0.29805711397E+03  0.00000000000E+00 0.  1.
         -1    1    6    6    0  502 -0.36519655273E+03  0.37949486754E+03  0.24231650569E+02  0.52723054682E+03  0.00000000000E+00 0.  1.
<mgrwt>
<rscale>  0 0.15371188E+04</rscale>
<asrwt>0</asrwt>
<pdfrwt beam="1">  1        2 0.24125268E+00 0.15371188E+04</pdfrwt>
<pdfrwt beam="2">  1       -2 0.57950344E-01 0.15371188E+04</pdfrwt>
<totfact> 0.31198807E+01</totfact>
</mgrwt>
</event>
<event>
12    1  0.1536832E-007  0.1402195E+04  0.7818608E-02  0.8952231E-01
         -2   -1    0    0    0  501 -0.00000000000E+00  0.00000000000E+00  0.20635423469E+03  0.20635423469E+03  0.00000000000E+00 0.  1.
          2   -1    0    0  501    0  0.00000000000E+00 -0.00000000000E+00 -0.23820088916E+04  0.23820088916E+04  0.00000000000E+00 0. -1.
         23    2    1    2    0    0 -0.26868178541E+03 -0.35809218256E+02 -0.86447372911E+02  0.29584153129E+03  0.81097850956E+02 0.  0.
        254    2    1    2    0    0  0.26868178541E+03  0.35809218256E+02 -0.20892072840E+04  0.22925215950E+04  0.90409954435E+03 0.  0.
        -24    2    4    4    0    0 -0.17624596060E+03  0.31551407868E+03 -0.12091136573E+04  0.12644714861E+04  0.79501763131E+02 0.  0.
         24    2    4    4    0    0  0.44492774601E+03 -0.27970486042E+03 -0.88009362671E+03  0.10280501089E+04  0.78273409254E+02 0.  0.
         13    1    3    3    0    0 -0.24203439996E+03 -0.29374416054E+02 -0.47788695328E+02  0.24844972627E+03  0.00000000000E+00 0.  1.
        -13    1    3    3    0    0 -0.26647385453E+02 -0.64348022017E+01 -0.38658677583E+02  0.47391805023E+02  0.00000000000E+00 0. -1.
          4    1    6    6  502    0  0.27920419860E+03 -0.20706311905E+03 -0.62728902607E+03  0.71716221457E+03  0.00000000000E+00 0. -1.
          1    1    5    5  503    0 -0.16717470560E+03  0.31912894240E+03 -0.11754016598E+04  0.12293737129E+04  0.00000000000E+00 0. -1.
         -2    1    5    5    0  503 -0.90712550045E+01 -0.36148637249E+01 -0.33711997507E+02  0.35097773192E+02  0.00000000000E+00 0.  1.
         -3    1    6    6    0  502  0.16572354741E+03 -0.72641741376E+02 -0.25280460064E+03  0.31088789437E+03  0.00000000000E+00 0.  1.
<mgrwt>
<rscale>  0 0.14021949E+04</rscale>
<asrwt>0</asrwt>
<pdfrwt beam="1">  1        2 0.36646291E+00 0.14021949E+04</pdfrwt>
<pdfrwt beam="2">  1       -2 0.31746805E-01 0.14021949E+04</pdfrwt>
<totfact> 0.36630851E+01</totfact>
</mgrwt>
</event>
<event>
12    1  0.1536832E-007  0.2599245E+04  0.7818608E-02  0.8368458E-01
         -1   -1    0    0    0  501 -0.00000000000E+00  0.00000000000E+00  0.20466016566E+04  0.20466016566E+04  0.00000000000E+00 0.  1.
          1   -1    0    0  501    0  0.00000000000E+00 -0.00000000000E+00 -0.82527962402E+03  0.82527962402E+03  0.00000000000E+00 0. -1.
         23    2    1    2    0    0 -0.79456758352E+03 -0.38802050614E+03  0.13320430845E+04  0.16014389557E+04  0.91489846192E+02 0.  0.
        254    2    1    2    0    0  0.79456758352E+03  0.38802050614E+03 -0.11072105191E+03  0.12704423249E+04  0.90546506925E+03 0.  0.
        -24    2    4    4    0    0  0.20491217565E+03  0.57887850883E+03  0.61882254443E+02  0.62233167315E+03  0.79862195558E+02 0.  0.
         24    2    4    4    0    0  0.58965540787E+03 -0.19085800268E+03 -0.17260330636E+03  0.64811065176E+03  0.78327762326E+02 0.  0.
         13    1    3    3    0    0 -0.27300401856E+03 -0.97562219750E+02  0.48773470623E+03  0.56739291900E+03  0.00000000000E+00 0. -1.
        -13    1    3    3    0    0 -0.52156356496E+03 -0.29045828639E+03  0.84430837823E+03  0.10340460367E+04  0.00000000000E+00 0.  1.
          2    1    6    6  502    0  0.25588094334E+03 -0.11408760639E+03 -0.10383431903E+03  0.29878521533E+03  0.00000000000E+00 0. -1.
          3    1    5    5  503    0  0.14397703708E+03  0.29191545335E+03  0.43650898297E+02  0.32840435447E+03  0.00000000000E+00 0. -1.
         -4    1    5    5    0  503  0.60935138570E+02  0.28696305547E+03  0.18231356146E+02  0.29392731868E+03  0.00000000000E+00 0.  1.
         -1    1    6    6    0  502  0.33377446453E+03 -0.76770396299E+02 -0.68768987328E+02  0.34932543643E+03  0.00000000000E+00 0.  1.
<mgrwt>
<rscale>  0 0.25992450E+04</rscale>
<asrwt>0</asrwt>
<pdfrwt beam="1">  1        1 0.12696610E+00 0.25992450E+04</pdfrwt>
<pdfrwt beam="2">  1       -1 0.31486179E+00 0.25992450E+04</pdfrwt>
<totfact> 0.48958122E-01</totfact>
</mgrwt>
</event>
<event>
12    1  0.1536832E-007  0.1981894E+04  0.7818608E-02  0.8615133E-01
         -2   -1    0    0    0  501 -0.00000000000E+00  0.00000000000E+00  0.14221129930E+04  0.14221129930E+04  0.00000000000E+00 0.  1.
          2   -1    0    0  501    0  0.00000000000E+00 -0.00000000000E+00 -0.69050482178E+03  0.69050482178E+03  0.00000000000E+00 0. -1.
         23    2    1    2    0    0  0.51239292974E+03 -0.19842249492E+03  0.88900692932E+03  0.10487152989E+04  0.86904871807E+02 0.  0.
        254    2    1    2    0    0 -0.51239292974E+03  0.19842249492E+03 -0.15739875807E+03  0.10639025160E+04  0.89732724993E+03 0.  0.
        -24    2    4    4    0    0 -0.39254949690E+03  0.33436262817E+03  0.27386116860E+03  0.58935895535E+03  0.80315402962E+02 0.  0.
         24    2    4    4    0    0 -0.11984343284E+03 -0.13594013325E+03 -0.43125992667E+03  0.47454356060E+03  0.79776552540E+02 0.  0.
         13    1    3    3    0    0  0.16668440812E+03 -0.32686782142E+02  0.32553025003E+03  0.36718123771E+03  0.00000000000E+00 0. -1.
        -13    1    3    3    0    0  0.34570852162E+03 -0.16573571277E+03  0.56347667929E+03  0.68153406115E+03  0.00000000000E+00 0.  1.
          2    1    6    6  502    0 -0.42293190872E+02 -0.93676587422E+02 -0.16887941924E+03  0.19769743364E+03  0.00000000000E+00 0. -1.
          1    1    5    5  503    0 -0.27711235645E+03  0.27105267683E+03  0.17829649482E+03  0.42667370645E+03  0.00000000000E+00 0. -1.
         -2    1    5    5    0  503 -0.11543714045E+03  0.63309951336E+02  0.95564673780E+02  0.16268524889E+03  0.00000000000E+00 0.  1.
         -1    1    6    6    0  502 -0.77550241971E+02 -0.42263545831E+02 -0.26238050743E+03  0.27684612696E+03  0.00000000000E+00 0.  1.
<mgrwt>
<rscale>  0 0.19818939E+04</rscale>
<asrwt>0</asrwt>
<pdfrwt beam="1">  1        2 0.10623151E+00 0.19818939E+04</pdfrwt>
<pdfrwt beam="2">  1       -2 0.21878661E+00 0.19818939E+04</pdfrwt>
<totfact> 0.38999069E+00</totfact>
</mgrwt>
</event>
<event>
12    1  0.1536832E-007  0.2225154E+04  0.7818608E-02  0.8508031E-01
         -1   -1    0    0    0  501 -0.00000000000E+00  0.00000000000E+00  0.78906783771E+03  0.78906783771E+03  0.00000000000E+00 0.  1.
          1   -1    0    0  501    0  0.00000000000E+00 -0.00000000000E+00 -0.15687210327E+04  0.15687210327E+04  0.00000000000E+00 0. -1.
         23    2    1    2    0    0 -0.52134491168E+03 -0.74584979282E+02 -0.11367292212E+04  0.12558356134E+04  0.87214272922E+02 0.  0.
        254    2    1    2    0    0  0.52134491168E+03  0.74584979282E+02  0.35707602615E+03  0.11019532571E+04  0.89968564305E+03 0.  0.
        -24    2    4    4    0    0  0.45519138875E+03  0.25398724504E+03  0.58987230837E+03  0.79118675241E+03  0.79488464425E+02 0.  0.
         24    2    4    4    0    0  0.66153522927E+02 -0.17940226576E+03 -0.23279628222E+03  0.31076650468E+03  0.76290562100E+02 0.  0.
         11    1    3    3    0    0 -0.19368317050E+03 -0.17307656830E+02 -0.32702835597E+03  0.38047374565E+03  0.00000000000E+00 0.  1.
        -11    1    3    3    0    0 -0.32766174118E+03 -0.57277322452E+02 -0.80970086522E+03  0.87536186771E+03  0.00000000000E+00 0. -1.
          4    1    6    6  502    0  0.98791125206E+01 -0.11248723140E+02 -0.64782640010E+02  0.66490007393E+02  0.00000000000E+00 0. -1.
          1    1    5    5  503    0  0.11328396015E+03  0.29377708042E+02  0.15383936300E+03  0.19329473600E+03  0.00000000000E+00 0. -1.
         -2    1    5    5    0  503  0.34190742860E+03  0.22460953700E+03  0.43603294537E+03  0.59789201641E+03  0.00000000000E+00 0.  1.
         -3    1    6    6    0  502  0.56274410406E+02 -0.16815354262E+03 -0.16801364221E+03  0.24427649729E+03  0.00000000000E+00 0.  1.
<mgrwt>
<rscale>  0 0.22251538E+04</rscale>
<asrwt>0</asrwt>
<pdfrwt beam="1">  1        1 0.24134169E+00 0.22251538E+04</pdfrwt>
<pdfrwt beam="2">  1       -1 0.12139505E+00 0.22251538E+04</pdfrwt>
<totfact> 0.32097624E+00</totfact>
</mgrwt>
</event>
<event>
12    1  0.1536832E-007  0.2846294E+04  0.7818608E-02  0.8289038E-01
         -1   -1    0    0    0  501 -0.00000000000E+00  0.00000000000E+00  0.15741805820E+04  0.15741805820E+04  0.00000000000E+00 0.  1.
          1   -1    0    0  501    0  0.00000000000E+00 -0.00000000000E+00 -0.12866041702E+04  0.12866041702E+04  0.00000000000E+00 0. -1.
         23    2    1    2    0    0 -0.11441119330E+04  0.50619847134E+03  0.39914547359E+03  0.13163535916E+04  0.90778088558E+02 0.  0.
        254    2    1    2    0    0  0.11441119330E+04 -0.50619847134E+03 -0.11156906175E+03  0.15444311606E+04  0.89866064042E+03 0.  0.
        -24    2    4    4    0    0  0.47785339985E+03 -0.66566496118E+03  0.86711609494E+02  0.82777928179E+03  0.79031157412E+02 0.  0.
         24    2    4    4    0    0  0.66625853317E+03  0.15946648984E+03 -0.19828067124E+03  0.71665187882E+03  0.70318535427E+02 0.  0.
         13    1    3    3    0    0 -0.64300036097E+03  0.27749161254E+03  0.27010810106E+03  0.75060605213E+03  0.00000000000E+00 0. -1.
        -13    1    3    3    0    0 -0.50111157205E+03  0.22870685880E+03  0.12903737253E+03  0.56574753947E+03  0.00000000000E+00 0.  1.
          2    1    6    6  502    0  0.29104770757E+03  0.35725226205E+02 -0.73103147953E+02  0.30220709805E+03  0.00000000000E+00 0. -1.
          1    1    5    5  503    0  0.95827830840E+02 -0.14674396841E+03  0.50465998816E+02  0.18238306518E+03  0.00000000000E+00 0. -1.
         -2    1    5    5    0  503  0.38202556901E+03 -0.51892099277E+03  0.36245610678E+02  0.64539621661E+03  0.00000000000E+00 0.  1.
         -1    1    6    6    0  502  0.37521082560E+03  0.12374126364E+03 -0.12517752329E+03  0.41444478077E+03  0.00000000000E+00 0.  1.
<mgrwt>
<rscale>  0 0.28462939E+04</rscale>
<asrwt>0</asrwt>
<pdfrwt beam="1">  1        1 0.19793910E+00 0.28462939E+04</pdfrwt>
<pdfrwt beam="2">  1       -1 0.24218163E+00 0.28462939E+04</pdfrwt>
<totfact> 0.62552410E-01</totfact>
</mgrwt>
</event>
<event>
12    1  0.1536832E-007  0.1878467E+04  0.7818608E-02  0.8665649E-01
         -2   -1    0    0    0  501 -0.00000000000E+00  0.00000000000E+00  0.21801602633E+03  0.21801602633E+03  0.00000000000E+00 0.  1.
          2   -1    0    0  501    0  0.00000000000E+00 -0.00000000000E+00 -0.40463070075E+04  0.40463070075E+04  0.00000000000E+00 0. -1.
         23    2    1    2    0    0 -0.67515945767E+03 -0.21204917023E+02 -0.20812387944E+04  0.21900157793E+04  0.91237342871E+02 0.  0.
        254    2    1    2    0    0  0.67515945767E+03  0.21204917023E+02 -0.17470521868E+04  0.20743072545E+04  0.89121787512E+03 0.  0.
        -24    2    4    4    0    0  0.15198272349E+03  0.41940218236E+03 -0.62622568101E+03  0.77301079996E+03  0.79938441875E+02 0.  0.
         24    2    4    4    0    0  0.52317673418E+03 -0.39819726533E+03 -0.11208265058E+04  0.13012964546E+04  0.69609261196E+02 0.  0.
         13    1    3    3    0    0 -0.50092003261E+03 -0.22346674937E+02 -0.14089322376E+04  0.14954966744E+04  0.00000000000E+00 0. -1.
        -13    1    3    3    0    0 -0.17423942506E+03  0.11417579141E+01 -0.67230655675E+03  0.69451910492E+03  0.00000000000E+00 0.  1.
          2    1    6    6  502    0  0.17839189278E+03 -0.10307260739E+03 -0.31327758682E+03  0.37495396545E+03  0.00000000000E+00 0. -1.
          1    1    5    5  503    0  0.50318753932E+02  0.59418519026E+02 -0.87153821656E+02  0.11686884114E+03  0.00000000000E+00 0. -1.
         -4    1    5    5    0  503  0.10166396956E+03  0.35998366333E+03 -0.53907185935E+03  0.65614195882E+03  0.00000000000E+00 0.  1.
         -1    1    6    6    0  502  0.34478484140E+03 -0.29512465794E+03 -0.80754891898E+03  0.92634248911E+03  0.00000000000E+00 0.  1.
<mgrwt>
<rscale>  0 0.18784672E+04</rscale>
<asrwt>0</asrwt>
<pdfrwt beam="1">  1        2 0.62250873E+00 0.18784672E+04</pdfrwt>
<pdfrwt beam="2">  1       -2 0.33540929E-01 0.18784672E+04</pdfrwt>
<totfact> 0.24779461E+00</totfact>
</mgrwt>
</event>
<event>
12    1  0.1536832E-007  0.1546419E+04  0.7818608E-02  0.8854158E-01
         -2   -1    0    0    0  501 -0.00000000000E+00  0.00000000000E+00  0.48097472955E+03  0.48097472955E+03  0.00000000000E+00 0.  1.
          2   -1    0    0  501    0  0.00000000000E+00 -0.00000000000E+00 -0.12430035838E+04  0.12430035838E+04  0.00000000000E+00 0. -1.
         23    2    1    2    0    0  0.22724514330E+03 -0.14644237034E+03  0.22352818328E+03  0.36193399904E+03  0.89138364119E+02 0.  0.
        254    2    1    2    0    0 -0.22724514330E+03  0.14644237034E+03 -0.98555703756E+03  0.13620443143E+04  0.90042007806E+03 0.  0.
        -24    2    4    4    0    0 -0.25493283111E+03 -0.27859900275E+03 -0.13803165878E+03  0.41019913735E+03  0.81255404415E+02 0.  0.
         24    2    4    4    0    0  0.27687687810E+02  0.42504137309E+03 -0.84752537878E+03  0.95184517700E+03  0.79266615965E+02 0.  0.
         11    1    3    3    0    0  0.74268564804E+00  0.94848396717E+01  0.53939881072E+01  0.10936584168E+02  0.00000000000E+00 0. -1.
        -11    1    3    3    0    0  0.22650245765E+03 -0.15592721001E+03  0.21813419517E+03  0.35099741487E+03  0.00000000000E+00 0.  1.
          4    1    6    6  502    0  0.19818927468E+02  0.25938798654E+03 -0.59919547768E+03  0.65323053964E+03  0.00000000000E+00 0. -1.
          1    1    5    5  503    0 -0.25272260211E+03 -0.27793045814E+03 -0.12342099283E+03  0.39540712519E+03  0.00000000000E+00 0. -1.
         -2    1    5    5    0  503 -0.22102289934E+01 -0.66854460939E+00 -0.14610665953E+02  0.14792012158E+02  0.00000000000E+00 0.  1.
         -3    1    6    6    0  502  0.78687603419E+01  0.16565338655E+03 -0.24832990110E+03  0.29861463736E+03  0.00000000000E+00 0.  1.
<mgrwt>
<rscale>  0 0.15464195E+04</rscale>
<asrwt>0</asrwt>
<pdfrwt beam="1">  1        2 0.19123132E+00 0.15464195E+04</pdfrwt>
<pdfrwt beam="2">  1       -2 0.73996113E-01 0.15464195E+04</pdfrwt>
<totfact> 0.28288979E+01</totfact>
</mgrwt>
</event>
<event>
12    1  0.1536832E-007  0.3342678E+04  0.7818608E-02  0.8152120E-01
         -1   -1    0    0    0  501 -0.00000000000E+00  0.00000000000E+00  0.18765311811E+04  0.18765311811E+04  0.00000000000E+00 0. -1.
          1   -1    0    0  501    0  0.00000000000E+00 -0.00000000000E+00 -0.14885837097E+04  0.14885837097E+04  0.00000000000E+00 0.  1.
         23    2    1    2    0    0  0.13619080382E+04  0.61604924835E+03  0.58471599463E+03  0.16076639615E+04  0.91544731546E+02 0.  0.
        254    2    1    2    0    0 -0.13619080382E+04 -0.61604924835E+03 -0.19676852324E+03  0.17574509293E+04  0.90310892823E+03 0.  0.
        -24    2    4    4    0    0 -0.56188592211E+03 -0.46922623888E+03 -0.49513446089E+03  0.88738843735E+03  0.80069043106E+02 0.  0.
         24    2    4    4    0    0 -0.80002211611E+03 -0.14682300947E+03  0.29836593765E+03  0.87006249197E+03  0.79963271570E+02 0.  0.
         13    1    3    3    0    0  0.11971649391E+04  0.53246596374E+03  0.48052942031E+03  0.13955760165E+04  0.00000000000E+00 0. -1.
        -13    1    3    3    0    0  0.16474309911E+03  0.83583284607E+02  0.10418657432E+03  0.21208794506E+03  0.00000000000E+00 0.  1.
          2    1    6    6  502    0 -0.76861160695E+03 -0.14536801451E+03  0.26945146367E+03  0.82734500256E+03  0.00000000000E+00 0. -1.
          1    1    5    5  503    0 -0.47086048099E+03 -0.37597185597E+03 -0.37218355785E+03  0.70822667966E+03  0.00000000000E+00 0. -1.
         -2    1    5    5    0  503 -0.91025441119E+02 -0.93254382904E+02 -0.12295090303E+03  0.17916175769E+03  0.00000000000E+00 0.  1.
         -1    1    6    6    0  502 -0.31410509162E+02 -0.14549949564E+01  0.28914473975E+02  0.42717489409E+02  0.00000000000E+00 0.  1.
<mgrwt>
<rscale>  0 0.33426778E+04</rscale>
<asrwt>0</asrwt>
<pdfrwt beam="1">  1        1 0.22901288E+00 0.33426778E+04</pdfrwt>
<pdfrwt beam="2">  1       -1 0.28869710E+00 0.33426778E+04</pdfrwt>
<totfact> 0.21527683E-01</totfact>
</mgrwt>
</event>
<event>
12    1  0.1536832E-007  0.1786755E+04  0.7818608E-02  0.8713375E-01
         -1   -1    0    0    0  501 -0.00000000000E+00  0.00000000000E+00  0.58157891926E+03  0.58157891926E+03  0.00000000000E+00 0.  1.
          1   -1    0    0  501    0  0.00000000000E+00 -0.00000000000E+00 -0.13723382722E+04  0.13723382722E+04  0.00000000000E+00 0. -1.
         23    2    1    2    0    0 -0.53027127456E+03  0.13517654564E+03  0.11355331786E+03  0.56554818241E+03  0.86545176171E+02 0.  0.
        254    2    1    2    0    0  0.53027127456E+03 -0.13517654564E+03 -0.90431267084E+03  0.13883690091E+04  0.90018152369E+03 0.  0.
        -24    2    4    4    0    0  0.32540758725E+03 -0.50945779445E+03 -0.43770966386E+03  0.75080211765E+03  0.81711246878E+02 0.  0.
         24    2    4    4    0    0  0.20486368731E+03  0.37428124881E+03 -0.46660300698E+03  0.63756689143E+03  0.81960913454E+02 0.  0.
         11    1    3    3    0    0 -0.19081116914E+03  0.90357159956E+02  0.31654772451E+02  0.21348382431E+03  0.00000000000E+00 0. -1.
        -11    1    3    3    0    0 -0.33946010542E+03  0.44819385684E+02  0.81898545410E+02  0.35206435810E+03  0.00000000000E+00 0.  1.
          4    1    6    6  502    0  0.39363687632E+02  0.14837840795E+03 -0.18544136673E+03  0.24073668674E+03  0.00000000000E+00 0. -1.
          3    1    5    5  503    0  0.84051650201E+02 -0.12574320875E+03 -0.67938442041E+02  0.16580611073E+03  0.00000000000E+00 0. -1.
         -4    1    5    5    0  503  0.24135593705E+03 -0.38371458569E+03 -0.36977122182E+03  0.58499600692E+03  0.00000000000E+00 0.  1.
         -3    1    6    6    0  502  0.16549999968E+03  0.22590284086E+03 -0.28116164025E+03  0.39683020468E+03  0.00000000000E+00 0.  1.
<mgrwt>
<rscale>  0 0.17867546E+04</rscale>
<asrwt>0</asrwt>
<pdfrwt beam="1">  1        1 0.21112896E+00 0.17867546E+04</pdfrwt>
<pdfrwt beam="2">  1       -1 0.89473681E-01 0.17867546E+04</pdfrwt>
<totfact> 0.92891302E+00</totfact>
</mgrwt>
</event>
<event>
12    1  0.1536832E-007  0.1483737E+04  0.7818608E-02  0.8895340E-01
         -2   -1    0    0    0  501 -0.00000000000E+00  0.00000000000E+00  0.49147404997E+03  0.49147404997E+03  0.00000000000E+00 0.  1.
          2   -1    0    0  501    0  0.00000000000E+00 -0.00000000000E+00 -0.11198332813E+04  0.11198332813E+04  0.00000000000E+00 0. -1.
         23    2    1    2    0    0 -0.41221503277E+03 -0.15499997774E+02  0.37934278892E+02  0.42440812370E+03  0.92313394385E+02 0.  0.
        254    2    1    2    0    0  0.41221503277E+03  0.15499997774E+02 -0.66629351027E+03  0.11868992076E+04  0.89141528146E+03 0.  0.
        -24    2    4    4    0    0  0.55168833545E+03 -0.52459422899E+02 -0.79336518448E+03  0.97101944389E+03  0.79614282381E+02 0.  0.
         24    2    4    4    0    0 -0.13947330268E+03  0.67959420672E+02  0.12707167421E+03  0.21587976371E+03  0.79909805254E+02 0.  0.
         13    1    3    3    0    0 -0.26761560209E+03  0.24973995556E+02 -0.29138029196E+01  0.26879416136E+03  0.00000000000E+00 0. -1.
        -13    1    3    3    0    0 -0.14459943068E+03 -0.40473993330E+02  0.40848081811E+02  0.15561396234E+03  0.00000000000E+00 0.  1.
          4    1    6    6  502    0 -0.11798922882E+03  0.73614578257E+02  0.72229749405E+02  0.15670896895E+03  0.00000000000E+00 0. -1.
          1    1    5    5  503    0  0.34837221212E+03 -0.70804756938E+02 -0.49049089556E+03  0.60577044366E+03  0.00000000000E+00 0. -1.
         -2    1    5    5    0  503  0.20331612333E+03  0.18345334039E+02 -0.30287428892E+03  0.36524900023E+03  0.00000000000E+00 0.  1.
         -3    1    6    6    0  502 -0.21484073860E+02 -0.56551575849E+01  0.54841924803E+02  0.59170794764E+02  0.00000000000E+00 0.  1.
<mgrwt>
<rscale>  0 0.14837372E+04</rscale>
<asrwt>0</asrwt>
<pdfrwt beam="1">  1        2 0.17228204E+00 0.14837372E+04</pdfrwt>
<pdfrwt beam="2">  1       -2 0.75611393E-01 0.14837372E+04</pdfrwt>
<totfact> 0.32140301E+01</totfact>
</mgrwt>
</event>
<event>
12    1  0.1536832E-007  0.1397231E+04  0.7818608E-02  0.8955825E-01
         -1   -1    0    0    0  501 -0.00000000000E+00  0.00000000000E+00  0.33154682319E+03  0.33154682319E+03  0.00000000000E+00 0.  1.
          1   -1    0    0  501    0  0.00000000000E+00 -0.00000000000E+00 -0.14720812517E+04  0.14720812517E+04  0.00000000000E+00 0. -1.
         23    2    1    2    0    0 -0.23095318835E+03  0.13896932893E+03 -0.71923023671E+03  0.77325380007E+03  0.89316607276E+02 0.  0.
        254    2    1    2    0    0  0.23095318835E+03 -0.13896932893E+03 -0.42130419182E+03  0.10303742748E+04  0.90084520014E+03 0.  0.
        -24    2    4    4    0    0  0.37156184375E+03  0.23836623446E+03 -0.42633653450E+03  0.61885590316E+03  0.79643723973E+02 0.  0.
         24    2    4    4    0    0 -0.14060865541E+03 -0.37733556339E+03  0.50323426786E+01  0.41151837168E+03  0.84670681964E+02 0.  0.
         11    1    3    3    0    0 -0.16551477005E+03  0.11743428063E+03 -0.42363170206E+03  0.46973372070E+03  0.00000000000E+00 0. -1.
        -11    1    3    3    0    0 -0.65438418293E+02  0.21535048304E+02 -0.29559853465E+03  0.30352007937E+03  0.00000000000E+00 0.  1.
          2    1    6    6  502    0 -0.68834070726E+02 -0.10931021889E+03 -0.27733645080E+02  0.13212118799E+03  0.00000000000E+00 0. -1.
          3    1    5    5  503    0  0.22521152911E+03  0.11166636104E+03 -0.20148339265E+03  0.32215705261E+03  0.00000000000E+00 0. -1.
         -4    1    5    5    0  503  0.14635031464E+03  0.12669987341E+03 -0.22485314185E+03  0.29669885055E+03  0.00000000000E+00 0.  1.
         -1    1    6    6    0  502 -0.71774584680E+02 -0.26802534450E+03  0.32765987758E+02  0.27939718369E+03  0.00000000000E+00 0.  1.
<mgrwt>
<rscale>  0 0.13972314E+04</rscale>
<asrwt>0</asrwt>
<pdfrwt beam="1">  1        1 0.22647405E+00 0.13972314E+04</pdfrwt>
<pdfrwt beam="2">  1       -1 0.51007202E-01 0.13972314E+04</pdfrwt>
<totfact> 0.25774790E+01</totfact>
</mgrwt>
</event>
<event>
12    1  0.1536832E-007  0.3161575E+04  0.7818608E-02  0.8199039E-01
         -2   -1    0    0    0  501 -0.00000000000E+00  0.00000000000E+00  0.13740937464E+04  0.13740937464E+04  0.00000000000E+00 0.  1.
          2   -1    0    0  501    0  0.00000000000E+00 -0.00000000000E+00 -0.18185730792E+04  0.18185730792E+04  0.00000000000E+00 0. -1.
         23    2    1    2    0    0 -0.11825721819E+04 -0.83155396238E+03 -0.75258277950E+01  0.14485931561E+04  0.91687163523E+02 0.  0.
        254    2    1    2    0    0  0.11825721819E+04  0.83155396238E+03 -0.43695350501E+03  0.17440736695E+04  0.87229905505E+03 0.  0.
        -24    2    4    4    0    0  0.64789911394E+03  0.84528850686E+03 -0.53430835794E+03  0.11945592853E+04  0.84856013536E+02 0.  0.
         24    2    4    4    0    0  0.53467306795E+03 -0.13734544476E+02  0.97354852924E+02  0.54951438424E+03  0.80150881390E+02 0.  0.
         11    1    3    3    0    0 -0.45045457915E+03 -0.27906607861E+03 -0.34396558684E+02  0.53100878275E+03  0.00000000000E+00 0.  1.
        -11    1    3    3    0    0 -0.73211760274E+03 -0.55248788378E+03  0.26870730889E+02  0.91758437331E+03  0.00000000000E+00 0. -1.
          4    1    6    6  502    0  0.21691172014E+03 -0.43808676732E+02  0.49577377225E+02  0.22677700682E+03  0.00000000000E+00 0. -1.
          3    1    5    5  503    0  0.20268155823E+03  0.24657514303E+03 -0.11895961706E+03  0.34063250828E+03  0.00000000000E+00 0. -1.
         -4    1    5    5    0  503  0.44521755571E+03  0.59871336383E+03 -0.41534874088E+03  0.85392677701E+03  0.00000000000E+00 0.  1.
         -3    1    6    6    0  502  0.31776134781E+03  0.30074132256E+02  0.47777475699E+02  0.32273737741E+03  0.00000000000E+00 0.  1.
<mgrwt>
<rscale>  0 0.31615755E+04</rscale>
<asrwt>0</asrwt>
<pdfrwt beam="1">  1        2 0.27978047E+00 0.31615755E+04</pdfrwt>
<pdfrwt beam="2">  1       -2 0.21139904E+00 0.31615755E+04</pdfrwt>
<totfact> 0.79841766E-01</totfact>
</mgrwt>
</event>
<event>
12    1  0.1536832E-007  0.1947807E+04  0.7818608E-02  0.8631419E-01
         -1   -1    0    0    0  501 -0.00000000000E+00  0.00000000000E+00  0.87166048561E+03  0.87166048561E+03  0.00000000000E+00 0.  1.
          1   -1    0    0  501    0  0.00000000000E+00 -0.00000000000E+00 -0.10881389942E+04  0.10881389942E+04  0.00000000000E+00 0. -1.
         23    2    1    2    0    0  0.25239741700E+03 -0.41659242796E+03  0.50415967030E+03  0.70778090602E+03  0.97586528928E+02 0.  0.
        254    2    1    2    0    0 -0.25239741700E+03  0.41659242796E+03 -0.72063817891E+03  0.12520185738E+04  0.90054284579E+03 0.  0.
        -24    2    4    4    0    0  0.22184939586E+03  0.38730320833E+03 -0.96444555378E+02  0.46345020938E+03  0.79143001486E+02 0.  0.
         24    2    4    4    0    0 -0.47424681286E+03  0.29289219629E+02 -0.62419362353E+03  0.78856836442E+03  0.80339827087E+02 0.  0.
         11    1    3    3    0    0  0.12751744788E+03 -0.26417644372E+03  0.35578829506E+03  0.46112384869E+03  0.00000000000E+00 0.  1.
        -11    1    3    3    0    0  0.12487996912E+03 -0.15241598424E+03  0.14837137524E+03  0.24665705733E+03  0.00000000000E+00 0. -1.
          4    1    6    6  502    0 -0.11404155782E+03  0.39067337184E+02 -0.17924299238E+03  0.21600875923E+03  0.00000000000E+00 0. -1.
          3    1    5    5  503    0  0.11630792531E+03  0.12857927365E+03 -0.26347529221E+02  0.17536919740E+03  0.00000000000E+00 0. -1.
         -4    1    5    5    0  503  0.10554147054E+03  0.25872393469E+03 -0.70097026157E+02  0.28808101197E+03  0.00000000000E+00 0.  1.
         -3    1    6    6    0  502 -0.36020525504E+03 -0.97781175547E+01 -0.44495063115E+03  0.57255960520E+03  0.00000000000E+00 0.  1.
<mgrwt>
<rscale>  0 0.19478067E+04</rscale>
<asrwt>0</asrwt>
<pdfrwt beam="1">  1        1 0.16740600E+00 0.19478067E+04</pdfrwt>
<pdfrwt beam="2">  1       -1 0.13410161E+00 0.19478067E+04</pdfrwt>
<totfact> 0.56521361E+00</totfact>
</mgrwt>
</event>
<event>
12    1  0.1536832E-007  0.3052556E+04  0.7818608E-02  0.8228880E-01
         -1   -1    0    0    0  501 -0.00000000000E+00  0.00000000000E+00  0.67376124788E+03  0.67376124788E+03  0.00000000000E+00 0.  1.
          1   -1    0    0  501    0  0.00000000000E+00 -0.00000000000E+00 -0.34574928759E+04  0.34574928759E+04  0.00000000000E+00 0. -1.
         23    2    1    2    0    0  0.29051989041E+03 -0.73366120072E+03  0.28101188561E+03  0.84211917718E+03  0.86812813305E+02 0.  0.
        254    2    1    2    0    0 -0.29051989041E+03  0.73366120072E+03 -0.30647435136E+04  0.32891349466E+04  0.89615586168E+03 0.  0.
        -24    2    4    4    0    0 -0.16755808274E+03  0.87499218814E+03 -0.28739825706E+04  0.30099466748E+04  0.79474076647E+02 0.  0.
         24    2    4    4    0    0 -0.12296180767E+03 -0.14133098742E+03 -0.19076094305E+03  0.27918827178E+03  0.80388429228E+02 0.  0.
         11    1    3    3    0    0  0.15766478109E+03 -0.31824688323E+03  0.15974477603E+03  0.38943247855E+03  0.00000000000E+00 0.  1.
        -11    1    3    3    0    0  0.13285510932E+03 -0.41541431750E+03  0.12126710958E+03  0.45268669863E+03  0.00000000000E+00 0. -1.
          2    1    6    6  502    0 -0.19865265665E+02  0.87638217838E+01 -0.22261123868E+02  0.31096478708E+02  0.00000000000E+00 0. -1.
          3    1    5    5  503    0  0.41520892942E+01  0.10042797959E+02 -0.19104939336E+02  0.21979452754E+02  0.00000000000E+00 0. -1.
         -4    1    5    5    0  503 -0.17171017203E+03  0.86494939018E+03 -0.28548776313E+04  0.29879672221E+04  0.00000000000E+00 0.  1.
         -1    1    6    6    0  502 -0.10309654200E+03 -0.15009480921E+03 -0.16849981918E+03  0.24809179307E+03  0.00000000000E+00 0.  1.
<mgrwt>
<rscale>  0 0.30525561E+04</rscale>
<asrwt>0</asrwt>
<pdfrwt beam="1">  1        1 0.53192198E+00 0.30525561E+04</pdfrwt>
<pdfrwt beam="2">  1       -1 0.10365558E+00 0.30525561E+04</pdfrwt>
<totfact> 0.20039741E-01</totfact>
</mgrwt>
</event>
<event>
12    1  0.1536832E-007  0.2116218E+04  0.7818608E-02  0.8554133E-01
         -1   -1    0    0    0  501 -0.00000000000E+00  0.00000000000E+00  0.96752970761E+03  0.96752970761E+03  0.00000000000E+00 0.  1.
          1   -1    0    0  501    0  0.00000000000E+00 -0.00000000000E+00 -0.11571682050E+04  0.11571682050E+04  0.00000000000E+00 0. -1.
         23    2    1    2    0    0  0.29009343746E+03 -0.10731300972E+03 -0.88845948156E+03  0.94554361947E+03  0.94985269566E+02 0.  0.
        254    2    1    2    0    0 -0.29009343746E+03  0.10731300972E+03  0.69882098416E+03  0.11791542932E+04  0.89798874973E+03 0.  0.
        -24    2    4    4    0    0 -0.21935110085E+02  0.44190903384E+03  0.56693662662E+03  0.72348601625E+03  0.79057788149E+02 0.  0.
         24    2    4    4    0    0 -0.26815832738E+03 -0.33459602412E+03  0.13188435754E+03  0.45566827690E+03  0.79854285483E+02 0.  0.
         13    1    3    3    0    0  0.26046134772E+03 -0.12491694629E+03 -0.80422449529E+03  0.85452992689E+03  0.00000000000E+00 0. -1.
        -13    1    3    3    0    0  0.29632089739E+02  0.17603936571E+02 -0.84234986269E+02  0.91013692579E+02  0.00000000000E+00 0.  1.
          4    1    6    6  502    0 -0.64078882558E+02 -0.12549545968E+03  0.68553104686E+02  0.15669952697E+03  0.00000000000E+00 0. -1.
          1    1    5    5  503    0 -0.34268253858E+02  0.39230052162E+03  0.46418787184E+03  0.60872357672E+03  0.00000000000E+00 0. -1.
         -2    1    5    5    0  503  0.12333143773E+02  0.49608512219E+02  0.10274875478E+03  0.11476243953E+03  0.00000000000E+00 0.  1.
         -3    1    6    6    0  502 -0.20407944482E+03 -0.20910056444E+03  0.63331252855E+02  0.29896874993E+03  0.00000000000E+00 0.  1.
<mgrwt>
<rscale>  0 0.21162180E+04</rscale>
<asrwt>0</asrwt>
<pdfrwt beam="1">  1        1 0.17802588E+00 0.21162180E+04</pdfrwt>
<pdfrwt beam="2">  1       -1 0.14885073E+00 0.21162180E+04</pdfrwt>
<totfact> 0.37593842E+00</totfact>
</mgrwt>
</event>
<event>
12    1  0.1536832E-007  0.1160469E+04  0.7818608E-02  0.9148180E-01
         -2   -1    0    0    0  501 -0.00000000000E+00  0.00000000000E+00  0.45656843926E+03  0.45656843926E+03  0.00000000000E+00 0.  1.
          2   -1    0    0  501    0  0.00000000000E+00 -0.00000000000E+00 -0.73739619019E+03  0.73739619019E+03  0.00000000000E+00 0. -1.
         23    2    1    2    0    0  0.18050216433E+02 -0.22834426330E+02  0.16946436580E+03  0.19446959527E+03  0.90846193483E+02 0.  0.
        254    2    1    2    0    0 -0.18050216433E+02  0.22834426330E+02 -0.45029211673E+03  0.99949503418E+03  0.89184085555E+03 0.  0.
        -24    2    4    4    0    0 -0.40044055884E+03  0.20919004232E+03 -0.21031857449E+03  0.50468561608E+03  0.79753077293E+02 0.  0.
         24    2    4    4    0    0  0.38239034240E+03 -0.18635561599E+03 -0.23997354225E+03  0.49480941810E+03  0.79361638657E+02 0.  0.
         13    1    3    3    0    0 -0.16077991345E+02 -0.19265044583E+02  0.15535384340E+03  0.15736727870E+03  0.00000000000E+00 0.  1.
        -13    1    3    3    0    0  0.34128207777E+02 -0.35693817478E+01  0.14110522400E+02  0.37102316566E+02  0.00000000000E+00 0. -1.
          2    1    6    6  502    0  0.29786621946E+03 -0.11546894943E+03 -0.15236288153E+03  0.35393758016E+03  0.00000000000E+00 0. -1.
          1    1    5    5  503    0 -0.21534893786E+03  0.14430399322E+03 -0.14993736270E+03  0.29946622553E+03  0.00000000000E+00 0. -1.
         -2    1    5    5    0  503 -0.18509162097E+03  0.64886049096E+02 -0.60381211788E+02  0.20521939055E+03  0.00000000000E+00 0.  1.
         -1    1    6    6    0  502  0.84524122939E+02 -0.70886666559E+02 -0.87610660716E+02  0.14087183794E+03  0.00000000000E+00 0.  1.
<mgrwt>
<rscale>  0 0.11604686E+04</rscale>
<asrwt>0</asrwt>
<pdfrwt beam="1">  1        2 0.11344557E+00 0.11604686E+04</pdfrwt>
<pdfrwt beam="2">  1       -2 0.70241299E-01 0.11604686E+04</pdfrwt>
<totfact> 0.69996855E+01</totfact>
</mgrwt>
</event>
<event>
12    1  0.1536832E-007  0.1427042E+04  0.7818608E-02  0.8934474E-01
          2   -1    0    0  501    0  0.00000000000E+00  0.00000000000E+00  0.16755258446E+04  0.16755258446E+04  0.00000000000E+00 0. -1.
         -2   -1    0    0    0  501 -0.00000000000E+00 -0.00000000000E+00 -0.30385216226E+03  0.30385216226E+03  0.00000000000E+00 0.  1.
         23    2    1    2    0    0  0.51439089350E+02 -0.13736796086E+03  0.97845804478E+03  0.99356873838E+03  0.91009647235E+02 0.  0.
        254    2    1    2    0    0 -0.51439089350E+02  0.13736796086E+03  0.39321563760E+03  0.98580926853E+03  0.89201201768E+03 0.  0.
        -24    2    4    4    0    0 -0.38152160961E+03  0.18388039283E+03 -0.40492092846E+02  0.43282111860E+03  0.79522158293E+02 0.  0.
         24    2    4    4    0    0  0.33008252026E+03 -0.46512431961E+02  0.43370773045E+03  0.55298814993E+03  0.81090209056E+02 0.  0.
         13    1    3    3    0    0  0.35408608292E+02 -0.13174431278E+03  0.95449661086E+03  0.96419609708E+03  0.00000000000E+00 0. -1.
        -13    1    3    3    0    0  0.16030481057E+02 -0.56236480888E+01  0.23961433927E+02  0.29372641294E+02  0.00000000000E+00 0.  1.
          2    1    6    6  502    0  0.13257393166E+03 -0.47612460292E+02  0.22646752193E+03  0.26670270381E+03  0.00000000000E+00 0. -1.
          3    1    5    5  503    0 -0.21207098695E+03  0.88383430910E+02  0.15908187715E+02  0.23030155188E+03  0.00000000000E+00 0. -1.
         -4    1    5    5    0  503 -0.16945062266E+03  0.95496961916E+02 -0.56400280561E+02  0.20251956672E+03  0.00000000000E+00 0.  1.
         -1    1    6    6    0  502  0.19750858860E+03  0.11000283310E+01  0.20724020852E+03  0.28628544612E+03  0.00000000000E+00 0.  1.
<mgrwt>
<rscale>  0 0.14270419E+04</rscale>
<asrwt>0</asrwt>
<pdfrwt beam="1">  1        2 0.25777320E+00 0.14270419E+04</pdfrwt>
<pdfrwt beam="2">  1       -2 0.46746488E-01 0.14270419E+04</pdfrwt>
<totfact> 0.42638662E+01</totfact>
</mgrwt>
</event>
<event>
12    1  0.1536832E-007  0.1679757E+04  0.7818608E-02  0.8772995E-01
         -2   -1    0    0    0  501 -0.00000000000E+00  0.00000000000E+00  0.20215973746E+04  0.20215973746E+04  0.00000000000E+00 0.  1.
          2   -1    0    0  501    0  0.00000000000E+00 -0.00000000000E+00 -0.34892987988E+03  0.34892987988E+03  0.00000000000E+00 0. -1.
         23    2    1    2    0    0 -0.57737083059E+03  0.24597521338E+03  0.48052027182E+03  0.79784625420E+03  0.10861874658E+03 0.  0.
        254    2    1    2    0    0  0.57737083059E+03 -0.24597521338E+03  0.11921472229E+04  0.15726810003E+04  0.81132585684E+03 0.  0.
        -24    2    4    4    0    0  0.47439211958E+03 -0.29156574940E+03  0.12878727815E+04  0.14052686632E+04  0.78136068202E+02 0.  0.
         24    2    4    4    0    0  0.10297871101E+03  0.45590536017E+02 -0.95725558565E+02  0.16741233709E+03  0.78615495621E+02 0.  0.
         11    1    3    3    0    0 -0.54921366017E+03  0.24794430195E+03  0.43104549511E+03  0.74088611827E+03  0.00000000000E+00 0. -1.
        -11    1    3    3    0    0 -0.28157170416E+02 -0.19690885704E+01  0.49474776701E+02  0.56960135931E+02  0.00000000000E+00 0.  1.
          4    1    6    6  502    0  0.14729773084E+02  0.22592458836E+02  0.91049410680E+01  0.28465511821E+02  0.00000000000E+00 0. -1.
          3    1    5    5  503    0  0.13694164351E+02 -0.13924271803E+02  0.19707378462E+02  0.27745202259E+02  0.00000000000E+00 0. -1.
         -4    1    5    5    0  503  0.46069795523E+03 -0.27764147759E+03  0.12681654030E+04  0.13775234610E+04  0.00000000000E+00 0.  1.
         -3    1    6    6    0  502  0.88248937928E+02  0.22998077181E+02 -0.10483049963E+03  0.13894682527E+03  0.00000000000E+00 0.  1.
<mgrwt>
<rscale>  0 0.16797568E+04</rscale>
<asrwt>0</asrwt>
<pdfrwt beam="1">  1        2 0.53681521E-01 0.16797568E+04</pdfrwt>
<pdfrwt beam="2">  1       -2 0.31101497E+00 0.16797568E+04</pdfrwt>
<totfact> 0.24109568E+00</totfact>
</mgrwt>
</event>
<event>
12    1  0.1536832E-007  0.2332648E+04  0.7818608E-02  0.8465158E-01
         -1   -1    0    0    0  501 -0.00000000000E+00  0.00000000000E+00  0.47556286017E+03  0.47556286017E+03  0.00000000000E+00 0.  1.
          1   -1    0    0  501    0  0.00000000000E+00 -0.00000000000E+00 -0.28604251602E+04  0.28604251602E+04  0.00000000000E+00 0. -1.
         23    2    1    2    0    0  0.23152029260E+03  0.22237278390E+03 -0.23339898639E+04  0.23578381020E+04  0.94024091594E+02 0.  0.
        254    2    1    2    0    0 -0.23152029260E+03 -0.22237278390E+03 -0.50872436175E+02  0.97814991837E+03  0.92257138322E+03 0.  0.
        -24    2    4    4    0    0  0.20300414148E+03 -0.41266471129E+03 -0.14493538806E+03  0.48861004598E+03  0.78934561030E+02 0.  0.
         24    2    4    4    0    0 -0.43452443408E+03  0.19029192738E+03  0.94062951883E+02  0.48953987239E+03  0.76019381060E+02 0.  0.
         13    1    3    3    0    0  0.16733147871E+03  0.99473646868E+02 -0.14594393995E+04  0.14723648294E+04  0.00000000000E+00 0. -1.
        -13    1    3    3    0    0  0.64188813891E+02  0.12289913704E+03 -0.87455046443E+03  0.88547327264E+03  0.00000000000E+00 0.  1.
          4    1    6    6  502    0 -0.22425286306E+03  0.59909351878E+02  0.30681499225E+02  0.23413635221E+03  0.00000000000E+00 0. -1.
          1    1    5    5  503    0  0.19262493260E+03 -0.41337339338E+03 -0.14358241871E+03  0.47811906255E+03  0.00000000000E+00 0. -1.
         -2    1    5    5    0  503  0.10379208882E+02  0.70868209175E+00 -0.13529693453E+01  0.10490983432E+02  0.00000000000E+00 0.  1.
         -1    1    6    6    0  502 -0.21027157102E+03  0.13038257550E+03  0.63381452658E+02  0.25540352017E+03  0.00000000000E+00 0.  1.
<mgrwt>
<rscale>  0 0.23326483E+04</rscale>
<asrwt>0</asrwt>
<pdfrwt beam="1">  1        1 0.44006540E+00 0.23326483E+04</pdfrwt>
<pdfrwt beam="2">  1       -1 0.73163518E-01 0.23326483E+04</pdfrwt>
<totfact> 0.12805686E+00</totfact>
</mgrwt>
</event>
<event>
12    1  0.1536832E-007  0.1220058E+04  0.7818608E-02  0.9095478E-01
         -1   -1    0    0    0  501 -0.00000000000E+00  0.00000000000E+00  0.36286263036E+03  0.36286263036E+03  0.00000000000E+00 0.  1.
          1   -1    0    0  501    0  0.00000000000E+00 -0.00000000000E+00 -0.10255550025E+04  0.10255550025E+04  0.00000000000E+00 0. -1.
         23    2    1    2    0    0  0.17395997660E+02  0.13169260910E+03 -0.42723451295E+03  0.45472702284E+03  0.81251290558E+02 0.  0.
        254    2    1    2    0    0 -0.17395997660E+02 -0.13169260910E+03 -0.23545785915E+03  0.93369060998E+03  0.89369580266E+03 0.  0.
        -24    2    4    4    0    0 -0.27098034026E+03 -0.33801508290E+03 -0.36601431142E+03  0.57315712736E+03  0.82813497746E+02 0.  0.
         24    2    4    4    0    0  0.25358434260E+03  0.20632247380E+03  0.13055645227E+03  0.36053348262E+03  0.77880824685E+02 0.  0.
         13    1    3    3    0    0  0.23902491759E+02  0.11471000403E+03 -0.41842031169E+03  0.43451728547E+03  0.00000000000E+00 0. -1.
        -13    1    3    3    0    0 -0.65064940988E+01  0.16982605074E+02 -0.88142012530E+01  0.20209737363E+02  0.00000000000E+00 0.  1.
          4    1    6    6  502    0  0.47995053370E+01  0.48308960835E+01 -0.90060753021E+01  0.11290801601E+02  0.00000000000E+00 0. -1.
          1    1    5    5  503    0 -0.48912471092E+01  0.18579659354E+01 -0.17841757999E+02  0.18593134867E+02  0.00000000000E+00 0. -1.
         -2    1    5    5    0  503 -0.26608909315E+03 -0.33987304883E+03 -0.34817255342E+03  0.55456399249E+03  0.00000000000E+00 0.  1.
         -3    1    6    6    0  502  0.24878483726E+03  0.20149157771E+03  0.13956252757E+03  0.34924268102E+03  0.00000000000E+00 0.  1.
<mgrwt>
<rscale>  0 0.12200583E+04</rscale>
<asrwt>0</asrwt>
<pdfrwt beam="1">  1        1 0.15777769E+00 0.12200583E+04</pdfrwt>
<pdfrwt beam="2">  1       -1 0.55825022E-01 0.12200583E+04</pdfrwt>
<totfact> 0.46356067E+01</totfact>
</mgrwt>
</event>
<event>
12    1  0.1536832E-007  0.1329285E+04  0.7818608E-02  0.9006659E-01
          1   -1    0    0  501    0  0.00000000000E+00  0.00000000000E+00  0.67902178707E+03  0.67902178707E+03  0.00000000000E+00 0. -1.
         -1   -1    0    0    0  501 -0.00000000000E+00 -0.00000000000E+00 -0.65056730955E+03  0.65056730955E+03  0.00000000000E+00 0.  1.
         23    2    1    2    0    0 -0.24820642113E+03  0.23723141647E+03 -0.81569226152E+02  0.36650400848E+03  0.98926624957E+02 0.  0.
        254    2    1    2    0    0  0.24820642113E+03 -0.23723141647E+03  0.11002370366E+03  0.96308508814E+03  0.89305234963E+03 0.  0.
        -24    2    4    4    0    0  0.22021865385E+03  0.24293134339E+03 -0.19225889329E+03  0.38841708410E+03  0.79952836511E+02 0.  0.
         24    2    4    4    0    0  0.27987767284E+02 -0.48016275986E+03  0.30228259695E+03  0.57466800404E+03  0.86769553278E+02 0.  0.
         11    1    3    3    0    0 -0.17854042531E+03  0.15479737173E+03 -0.90531863774E+01  0.23647593947E+03  0.00000000000E+00 0. -1.
        -11    1    3    3    0    0 -0.69665995823E+02  0.82434044740E+02 -0.72516039774E+02  0.13002806901E+03  0.00000000000E+00 0.  1.
          2    1    6    6  502    0  0.22862633096E+02 -0.99634234560E+02  0.10287231691E+03  0.14502549526E+03  0.00000000000E+00 0. -1.
          3    1    5    5  503    0  0.14668941689E+03  0.13581378152E+03 -0.15586652748E+03  0.25349071515E+03  0.00000000000E+00 0. -1.
         -4    1    5    5    0  503  0.73529236963E+02  0.10711756187E+03 -0.36392365811E+02  0.13492636895E+03  0.00000000000E+00 0.  1.
         -1    1    6    6    0  502  0.51251341876E+01 -0.38052852530E+03  0.19941028004E+03  0.42964250878E+03  0.00000000000E+00 0.  1.
<mgrwt>
<rscale>  0 0.13292846E+04</rscale>
<asrwt>0</asrwt>
<pdfrwt beam="1">  1        1 0.10446489E+00 0.13292846E+04</pdfrwt>
<pdfrwt beam="2">  1       -1 0.10008728E+00 0.13292846E+04</pdfrwt>
<totfact> 0.26618302E+01</totfact>
</mgrwt>
</event>
<event>
12    1  0.1536832E-007  0.1776126E+04  0.7818608E-02  0.8719099E-01
          2   -1    0    0  501    0  0.00000000000E+00  0.00000000000E+00  0.81123759988E+03  0.81123759988E+03  0.00000000000E+00 0. -1.
         -2   -1    0    0    0  501 -0.00000000000E+00 -0.00000000000E+00 -0.97216415799E+03  0.97216415799E+03  0.00000000000E+00 0.  1.
         23    2    1    2    0    0 -0.41781092089E+03 -0.45866492204E+03  0.16277850694E+03  0.65037563734E+03  0.10748093319E+03 0.  0.
        254    2    1    2    0    0  0.41781092089E+03  0.45866492204E+03 -0.32370506506E+03  0.11330261205E+04  0.89108009984E+03 0.  0.
        -24    2    4    4    0    0 -0.19273419778E+02  0.46243179263E+03  0.14166125128E+03  0.49051987798E+03  0.79543780597E+02 0.  0.
         24    2    4    4    0    0  0.43708434067E+03 -0.37668705945E+01 -0.46536631633E+03  0.64250624255E+03  0.72052433461E+02 0.  0.
         13    1    3    3    0    0 -0.17840381788E+03 -0.15703218001E+03  0.10925419399E+03  0.26157887281E+03  0.00000000000E+00 0.  1.
        -13    1    3    3    0    0 -0.23940710301E+03 -0.30163274203E+03  0.53524312943E+02  0.38879676453E+03  0.00000000000E+00 0. -1.
          2    1    6    6  502    0  0.34101929679E+03 -0.12090161079E+02 -0.31826709630E+03  0.46662005675E+03  0.00000000000E+00 0. -1.
          1    1    5    5  503    0 -0.37579939480E+02  0.39793566284E+03  0.10159255601E+03  0.41241495008E+03  0.00000000000E+00 0. -1.
         -2    1    5    5    0  503  0.18306519702E+02  0.64496129786E+02  0.40068695268E+02  0.78104927895E+02  0.00000000000E+00 0.  1.
         -1    1    6    6    0  502  0.96065043881E+02  0.83232904845E+01 -0.14709922003E+03  0.17588618580E+03  0.00000000000E+00 0.  1.
<mgrwt>
<rscale>  0 0.17761263E+04</rscale>
<asrwt>0</asrwt>
<pdfrwt beam="1">  1        2 0.12480578E+00 0.17761263E+04</pdfrwt>
<pdfrwt beam="2">  1       -2 0.14956372E+00 0.17761263E+04</pdfrwt>
<totfact> 0.96523452E+00</totfact>
</mgrwt>
</event>
<event>
12    1  0.1536832E-007  0.1507797E+04  0.7818608E-02  0.8879284E-01
          1   -1    0    0  501    0  0.00000000000E+00  0.00000000000E+00  0.65287647256E+03  0.65287647256E+03  0.00000000000E+00 0. -1.
         -1   -1    0    0    0  501 -0.00000000000E+00 -0.00000000000E+00 -0.87055249543E+03  0.87055249543E+03  0.00000000000E+00 0.  1.
         23    2    1    2    0    0 -0.18137768524E+02  0.44566758223E+03  0.10094570021E+03  0.46712082027E+03  0.95201123099E+02 0.  0.
        254    2    1    2    0    0  0.18137768524E+02 -0.44566758223E+03 -0.31862172308E+03  0.10563081477E+04  0.90294990338E+03 0.  0.
        -24    2    4    4    0    0 -0.67442070231E+02 -0.62875435092E+02  0.29709494337E+03  0.32189640351E+03  0.82765548657E+02 0.  0.
         24    2    4    4    0    0  0.85579838755E+02 -0.38279214714E+03 -0.61571666645E+03  0.73441174420E+03  0.79999124804E+02 0.  0.
         13    1    3    3    0    0 -0.28705858470E+02  0.10551855614E+03 -0.83908953759E+01  0.10967497037E+03  0.00000000000E+00 0.  1.
        -13    1    3    3    0    0  0.10568089946E+02  0.34014902609E+03  0.10933659559E+03  0.35744584989E+03  0.00000000000E+00 0. -1.
          2    1    6    6  502    0 -0.74752220427E+01 -0.88572109278E+01 -0.57873334891E+01  0.12954626931E+02  0.00000000000E+00 0. -1.
          3    1    5    5  503    0 -0.23600875383E+02 -0.55883468884E+01  0.10616873175E+02  0.26475440238E+02  0.00000000000E+00 0. -1.
         -4    1    5    5    0  503 -0.43841194848E+02 -0.57287088203E+02  0.28647807019E+03  0.29542096327E+03  0.00000000000E+00 0.  1.
         -1    1    6    6    0  502  0.93055060798E+02 -0.37393493621E+03 -0.60992933296E+03  0.72145711727E+03  0.00000000000E+00 0.  1.
<mgrwt>
<rscale>  0 0.15077974E+04</rscale>
<asrwt>0</asrwt>
<pdfrwt beam="1">  1        1 0.10044254E+00 0.15077974E+04</pdfrwt>
<pdfrwt beam="2">  1       -1 0.13393115E+00 0.15077974E+04</pdfrwt>
<totfact> 0.13754543E+01</totfact>
</mgrwt>
</event>
<event>
12    1  0.1536832E-007  0.1484372E+04  0.7818608E-02  0.8894912E-01
          2   -1    0    0  501    0  0.00000000000E+00  0.00000000000E+00  0.10076694684E+04  0.10076694684E+04  0.00000000000E+00 0. -1.
         -2   -1    0    0    0  501 -0.00000000000E+00 -0.00000000000E+00 -0.54664783144E+03  0.54664783144E+03  0.00000000000E+00 0.  1.
         23    2    1    2    0    0 -0.20352164677E+03 -0.38662994006E+03  0.28197101510E+03  0.52790751043E+03  0.90966559550E+02 0.  0.
        254    2    1    2    0    0  0.20352164677E+03  0.38662994006E+03  0.17905062184E+03  0.10264097894E+04  0.91134744160E+03 0.  0.
        -24    2    4    4    0    0  0.19468177776E+03  0.62480010723E+03 -0.81676256024E+02  0.66421714991E+03  0.78976216957E+02 0.  0.
         24    2    4    4    0    0  0.88398690185E+01 -0.23817016718E+03  0.26072687786E+03  0.36219263948E+03  0.80011445662E+02 0.  0.
         11    1    3    3    0    0 -0.11382295492E+03 -0.12961359397E+03  0.87979191998E+02  0.19363803096E+03  0.00000000000E+00 0.  1.
        -11    1    3    3    0    0 -0.89698691858E+02 -0.25701634608E+03  0.19399182311E+03  0.33426947947E+03  0.00000000000E+00 0. -1.
          4    1    6    6  502    0  0.33933792968E+02 -0.64696836219E+02  0.10378625348E+03  0.12692032671E+03  0.00000000000E+00 0. -1.
          3    1    5    5  503    0  0.65802500046E+02  0.30213960062E+03 -0.95912119946E+01  0.30937081088E+03  0.00000000000E+00 0. -1.
         -4    1    5    5    0  503  0.12887927771E+03  0.32266050661E+03 -0.72085044030E+02  0.35484633903E+03  0.00000000000E+00 0.  1.
         -3    1    6    6    0  502 -0.25093923950E+02 -0.17347333096E+03  0.15694062438E+03  0.23527231277E+03  0.00000000000E+00 0.  1.
<mgrwt>
<rscale>  0 0.14843724E+04</rscale>
<asrwt>0</asrwt>
<pdfrwt beam="1">  1        2 0.15502607E+00 0.14843724E+04</pdfrwt>
<pdfrwt beam="2">  1       -2 0.84099666E-01 0.14843724E+04</pdfrwt>
<totfact> 0.29746361E+01</totfact>
</mgrwt>
</event>
<event>
12    1  0.1536832E-007  0.2908190E+04  0.7818608E-02  0.8270445E-01
          1   -1    0    0  501    0  0.00000000000E+00  0.00000000000E+00  0.15981197394E+04  0.15981197394E+04  0.00000000000E+00 0. -1.
         -1   -1    0    0    0  501 -0.00000000000E+00 -0.00000000000E+00 -0.13230495968E+04  0.13230495968E+04  0.00000000000E+00 0.  1.
         23    2    1    2    0    0 -0.12439825862E+04  0.18591704972E+03  0.50239810169E+03  0.13575015569E+04  0.91371768809E+02 0.  0.
        254    2    1    2    0    0  0.12439825862E+04 -0.18591704972E+03 -0.22732795915E+03  0.15636677794E+04  0.90073364492E+03 0.  0.
        -24    2    4    4    0    0  0.13540899748E+04 -0.12102777218E+03 -0.97488744566E+02  0.13652790912E+04  0.79218432114E+02 0.  0.
         24    2    4    4    0    0 -0.11010738862E+03 -0.64889277541E+02 -0.12983921459E+03  0.19838868818E+03  0.78521300197E+02 0.  0.
         13    1    3    3    0    0 -0.10603321798E+04  0.14780226579E+03  0.39345941257E+03  0.11405964013E+04  0.00000000000E+00 0.  1.
        -13    1    3    3    0    0 -0.18365040642E+03  0.38114783928E+02  0.10893868912E+03  0.21690515558E+03  0.00000000000E+00 0. -1.
          4    1    6    6  502    0  0.43251416413E+01  0.49085357947E+01  0.50211822506E+01  0.82469900606E+01  0.00000000000E+00 0. -1.
          1    1    5    5  503    0  0.19922655642E+03  0.17978636160E+01 -0.34465000399E+02  0.20219369265E+03  0.00000000000E+00 0. -1.
         -2    1    5    5    0  503  0.11548634184E+04 -0.12282563579E+03 -0.63023744167E+02  0.11630853985E+04  0.00000000000E+00 0.  1.
         -3    1    6    6    0  502 -0.11443253026E+03 -0.69797813336E+02 -0.13486039684E+03  0.19014169812E+03  0.00000000000E+00 0.  1.
<mgrwt>
<rscale>  0 0.29081896E+04</rscale>
<asrwt>0</asrwt>
<pdfrwt beam="1">  1        1 0.24586457E+00 0.29081896E+04</pdfrwt>
<pdfrwt beam="2">  1       -1 0.20354609E+00 0.29081896E+04</pdfrwt>
<totfact> 0.68307271E-01</totfact>
</mgrwt>
</event>
<event>
12    1  0.1536832E-007  0.2454755E+04  0.7818608E-02  0.8419284E-01
         -1   -1    0    0    0  501 -0.00000000000E+00  0.00000000000E+00  0.45586718889E+03  0.45586718889E+03  0.00000000000E+00 0.  1.
          1   -1    0    0  501    0  0.00000000000E+00 -0.00000000000E+00 -0.33045941736E+04  0.33045941736E+04  0.00000000000E+00 0. -1.
         23    2    1    2    0    0 -0.96026292037E+03  0.62514682524E+02 -0.19283501571E+04  0.21571548611E+04  0.93647234501E+02 0.  0.
        254    2    1    2    0    0  0.96026292037E+03 -0.62514682524E+02 -0.92037682758E+03  0.16033065014E+04  0.89302030822E+03 0.  0.
        -24    2    4    4    0    0 -0.22584313595E+02  0.22658764502E+03 -0.35793626993E+03  0.43186338471E+03  0.80843043176E+02 0.  0.
         24    2    4    4    0    0  0.98284723396E+03 -0.28910232754E+03 -0.56244055765E+03  0.11714431167E+04  0.79817000821E+02 0.  0.
         13    1    3    3    0    0 -0.19007172441E+03 -0.54225923812E+01 -0.45811931477E+03  0.49601408397E+03  0.00000000000E+00 0.  1.
        -13    1    3    3    0    0 -0.77019119595E+03  0.67937274905E+02 -0.14702308424E+04  0.16611407772E+04  0.00000000000E+00 0. -1.
          4    1    6    6  502    0  0.73427507143E+03 -0.21702403525E+03 -0.37995567962E+03  0.85476641889E+03  0.00000000000E+00 0. -1.
          1    1    5    5  503    0 -0.17450290806E+01  0.21394151707E+03 -0.33953964267E+03  0.40132429132E+03  0.00000000000E+00 0. -1.
         -2    1    5    5    0  503 -0.20839284514E+02  0.12646127945E+02 -0.18396627253E+02  0.30539093395E+02  0.00000000000E+00 0.  1.
         -3    1    6    6    0  502  0.24857216253E+03 -0.72078292297E+02 -0.18248487803E+03  0.31667669778E+03  0.00000000000E+00 0.  1.
<mgrwt>
<rscale>  0 0.24547554E+04</rscale>
<asrwt>0</asrwt>
<pdfrwt beam="1">  1        1 0.50839910E+00 0.24547554E+04</pdfrwt>
<pdfrwt beam="2">  1       -1 0.70133415E-01 0.24547554E+04</pdfrwt>
<totfact> 0.64977044E-01</totfact>
</mgrwt>
</event>
<event>
12    1  0.1536832E-007  0.3236972E+04  0.7818608E-02  0.8179121E-01
          2   -1    0    0  501    0  0.00000000000E+00  0.00000000000E+00  0.13305747802E+04  0.13305747802E+04  0.00000000000E+00 0. -1.
         -2   -1    0    0    0  501 -0.00000000000E+00 -0.00000000000E+00 -0.19686961717E+04  0.19686961717E+04  0.00000000000E+00 0.  1.
         23    2    1    2    0    0  0.11305172602E+04  0.80941073803E+03 -0.84625076594E+03  0.16302475821E+04  0.91388190541E+02 0.  0.
        254    2    1    2    0    0 -0.11305172602E+04 -0.80941073803E+03  0.20812937440E+03  0.16690233698E+04  0.89950328177E+03 0.  0.
        -24    2    4    4    0    0 -0.23930237447E+03 -0.60702745414E+03  0.34283525919E+03  0.74177479524E+03  0.83341918629E+02 0.  0.
         24    2    4    4    0    0 -0.89121488578E+03 -0.20238328389E+03 -0.13470588479E+03  0.92724857457E+03  0.80132873512E+02 0.  0.
         11    1    3    3    0    0  0.22836567129E+03  0.18225997776E+03 -0.13887950078E+03  0.32350748841E+03  0.00000000000E+00 0. -1.
        -11    1    3    3    0    0  0.90215158895E+03  0.62715076027E+03 -0.70737126516E+03  0.13067400936E+04  0.00000000000E+00 0.  1.
          4    1    6    6  502    0 -0.19203324657E+03 -0.12106868291E+02 -0.17331105353E+02  0.19319345553E+03  0.00000000000E+00 0. -1.
          1    1    5    5  503    0 -0.19971493147E+02 -0.11272975276E+03  0.85535476607E+02  0.14290967586E+03  0.00000000000E+00 0. -1.
         -2    1    5    5    0  503 -0.21933088132E+03 -0.49429770138E+03  0.25729978258E+03  0.59886511938E+03  0.00000000000E+00 0.  1.
         -3    1    6    6    0  502 -0.69918163921E+03 -0.19027641560E+03 -0.11737477943E+03  0.73405511904E+03  0.00000000000E+00 0.  1.
<mgrwt>
<rscale>  0 0.32369723E+04</rscale>
<asrwt>0</asrwt>
<pdfrwt beam="1">  1        2 0.20470381E+00 0.32369723E+04</pdfrwt>
<pdfrwt beam="2">  1       -2 0.30287634E+00 0.32369723E+04</pdfrwt>
<totfact> 0.40650077E-01</totfact>
</mgrwt>
</event>
<event>
12    1  0.1895741E-007  0.1819831E+04  0.7818608E-02  0.8695824E-01
         -1   -1    0    0    0  501 -0.00000000000E+00  0.00000000000E+00  0.56545809609E+03  0.56545809609E+03  0.00000000000E+00 0.  1.
          1   -1    0    0  501    0  0.00000000000E+00 -0.00000000000E+00 -0.14642051340E+04  0.14642051340E+04  0.00000000000E+00 0. -1.
         23    2    1    2    0    0 -0.14568379050E+03  0.13020159694E+03 -0.10665597421E+04  0.10880038090E+04  0.89590079014E+02 0.  0.
        254    2    1    2    0    0  0.14568379050E+03 -0.13020159694E+03  0.16781270428E+03  0.94165942101E+03  0.90575114617E+03 0.  0.
        -24    2    4    4    0    0  0.21243254567E+03  0.14085426414E+03  0.45977628631E+03  0.53170206451E+03  0.79657653527E+02 0.  0.
         24    2    4    4    0    0 -0.66748755166E+02 -0.27105586108E+03 -0.29196358203E+03  0.40995735650E+03  0.69968741399E+02 0.  0.
         13    1    3    3    0    0 -0.14141981364E+03  0.12861748014E+03 -0.10664569262E+04  0.10834539194E+04  0.00000000000E+00 0. -1.
        -13    1    3    3    0    0 -0.42639768674E+01  0.15841168018E+01 -0.10281589731E+00  0.45498896554E+01  0.00000000000E+00 0.  1.
          4    1    6    6  502    0 -0.62198124742E+02 -0.25048684819E+03 -0.23435587973E+03  0.34861862572E+03  0.00000000000E+00 0. -1.
          1    1    5    5  503    0  0.17580714038E+03  0.14789372510E+03  0.39701106756E+03  0.45869215417E+03  0.00000000000E+00 0. -1.
         -4    1    5    5    0  503  0.36625405286E+02 -0.70394609581E+01  0.62765218751E+02  0.73009910340E+02  0.00000000000E+00 0.  1.
         -3    1    6    6    0  502 -0.45506304241E+01 -0.20569012890E+02 -0.57607702306E+02  0.61338730778E+02  0.00000000000E+00 0.  1.
<mgrwt>
<rscale>  0 0.18198315E+04</rscale>
<asrwt>0</asrwt>
<pdfrwt beam="1">  1        1 0.22526233E+00 0.18198315E+04</pdfrwt>
<pdfrwt beam="2">  1       -1 0.86993552E-01 0.18198315E+04</pdfrwt>
<totfact> 0.84940318E+00</totfact>
</mgrwt>
</event>
<event>
12    1  0.1536832E-007  0.2371487E+04  0.7818608E-02  0.8450256E-01
         -2   -1    0    0    0  501 -0.00000000000E+00  0.00000000000E+00  0.61598000503E+03  0.61598000503E+03  0.00000000000E+00 0.  1.
          2   -1    0    0  501    0  0.00000000000E+00 -0.00000000000E+00 -0.22825219093E+04  0.22825219093E+04  0.00000000000E+00 0. -1.
         23    2    1    2    0    0  0.42930293281E+03  0.58008342252E+03 -0.15798156444E+04  0.17410852225E+04  0.12150101462E+03 0.  0.
        254    2    1    2    0    0 -0.42930293281E+03 -0.58008342252E+03 -0.86726259923E+02  0.11574166919E+04  0.90071869597E+03 0.  0.
        -24    2    4    4    0    0 -0.47704904976E+03 -0.68594831467E+03  0.17687101376E+03  0.85777805140E+03  0.79993397704E+02 0.  0.
         24    2    4    4    0    0  0.47746116951E+02  0.10586489215E+03 -0.26359727369E+03  0.29963864047E+03  0.82539233664E+02 0.  0.
         13    1    3    3    0    0  0.61500168029E+02  0.59821397438E+02 -0.29093070953E+03  0.30331756957E+03  0.00000000000E+00 0.  1.
        -13    1    3    3    0    0  0.36780276478E+03  0.52026202508E+03 -0.12888849349E+04  0.14377676529E+04  0.00000000000E+00 0. -1.
          4    1    6    6  502    0 -0.72351187657E+01  0.80471888575E+02 -0.13181973714E+03  0.15461084986E+03  0.00000000000E+00 0. -1.
          3    1    5    5  503    0 -0.42509441624E+03 -0.64751547405E+03  0.16733428493E+03  0.79245335179E+03  0.00000000000E+00 0. -1.
         -4    1    5    5    0  503 -0.51954633514E+02 -0.38432840627E+02  0.95367288322E+01  0.65324699610E+02  0.00000000000E+00 0.  1.
         -3    1    6    6    0  502  0.54981235716E+02  0.25393003579E+02 -0.13177753655E+03  0.14502779061E+03  0.00000000000E+00 0.  1.
<mgrwt>
<rscale>  0 0.23714872E+04</rscale>
<asrwt>0</asrwt>
<pdfrwt beam="1">  1        2 0.35115721E+00 0.23714872E+04</pdfrwt>
<pdfrwt beam="2">  1       -2 0.94766155E-01 0.23714872E+04</pdfrwt>
<totfact> 0.39183714E+00</totfact>
</mgrwt>
</event>
<event>
12    1  0.1536832E-007  0.2159835E+04  0.7818608E-02  0.8535334E-01
          1   -1    0    0  501    0  0.00000000000E+00  0.00000000000E+00  0.12132617541E+04  0.12132617541E+04  0.00000000000E+00 0. -1.
         -1   -1    0    0    0  501 -0.00000000000E+00 -0.00000000000E+00 -0.96122836912E+03  0.96122836912E+03  0.00000000000E+00 0.  1.
         23    2    1    2    0    0  0.22466743848E+03 -0.52138861985E+03 -0.58531508506E+03  0.82045457460E+03  0.90721603577E+02 0.  0.
        254    2    1    2    0    0 -0.22466743848E+03  0.52138861985E+03  0.83734847002E+03  0.13540355486E+04  0.89996569704E+03 0.  0.
        -24    2    4    4    0    0 -0.24967996416E+03  0.74849843905E+03  0.76454643695E+03  0.11017358117E+04  0.81856867943E+02 0.  0.
         24    2    4    4    0    0  0.25012525680E+02 -0.22710981919E+03  0.72802033070E+02  0.25229973689E+03  0.78425281627E+02 0.  0.
         11    1    3    3    0    0  0.58406209947E+02 -0.12087194849E+03 -0.87485007707E+02  0.16023401594E+03  0.00000000000E+00 0. -1.
        -11    1    3    3    0    0  0.16626122854E+03 -0.40051667136E+03 -0.49783007735E+03  0.66022055865E+03  0.00000000000E+00 0.  1.
          4    1    6    6  502    0  0.53155710533E+02 -0.16364839282E+03  0.54821817776E+02  0.18058725797E+03  0.00000000000E+00 0. -1.
          1    1    5    5  503    0 -0.16600363578E+03  0.38350908590E+03  0.37662736200E+03  0.56256963646E+03  0.00000000000E+00 0. -1.
         -2    1    5    5    0  503 -0.83676328385E+02  0.36498935314E+03  0.38791907495E+03  0.53916617527E+03  0.00000000000E+00 0.  1.
         -3    1    6    6    0  502 -0.28143184852E+02 -0.63461426373E+02  0.17980215294E+02  0.71712478921E+02  0.00000000000E+00 0.  1.
<mgrwt>
<rscale>  0 0.21598348E+04</rscale>
<asrwt>0</asrwt>
<pdfrwt beam="1">  1        1 0.18665565E+00 0.21598348E+04</pdfrwt>
<pdfrwt beam="2">  1       -1 0.14788129E+00 0.21598348E+04</pdfrwt>
<totfact> 0.34661895E+00</totfact>
</mgrwt>
</event>
<event>
12    1  0.1536832E-007  0.1439135E+04  0.7818608E-02  0.8925968E-01
          1   -1    0    0  501    0  0.00000000000E+00  0.00000000000E+00  0.21568373771E+04  0.21568373771E+04  0.00000000000E+00 0. -1.
         -1   -1    0    0    0  501 -0.00000000000E+00 -0.00000000000E+00 -0.24006310918E+03  0.24006310918E+03  0.00000000000E+00 0.  1.
         23    2    1    2    0    0  0.30941485650E+03 -0.22743496810E+03  0.91099765564E+03  0.99151429622E+03  0.75628386807E+02 0.  0.
        254    2    1    2    0    0 -0.30941485650E+03  0.22743496810E+03  0.10057766123E+04  0.14053861901E+04  0.90336013376E+03 0.  0.
        -24    2    4    4    0    0 -0.39131870815E+03 -0.24143070945E+03  0.67615645359E+03  0.82107563472E+03  0.74555545649E+02 0.  0.
         24    2    4    4    0    0  0.81903851653E+02  0.46886567754E+03  0.32962015870E+03  0.58431055534E+03  0.78905713189E+02 0.  0.
         13    1    3    3    0    0  0.30994017511E+03 -0.22025203155E+03  0.90652379475E+03  0.98303573689E+03  0.00000000000E+00 0. -1.
        -13    1    3    3    0    0 -0.52531860991E+00 -0.71829365486E+01  0.44738608892E+01  0.84785593327E+01  0.00000000000E+00 0.  1.
          4    1    6    6  502    0  0.36153091708E+02  0.14258790730E+03  0.14541603405E+03  0.20684337144E+03  0.00000000000E+00 0. -1.
          1    1    5    5  503    0 -0.38430805126E+02 -0.30728019737E+02  0.38675575298E+02  0.62585446425E+02  0.00000000000E+00 0. -1.
         -2    1    5    5    0  503 -0.35288790302E+03 -0.21070268971E+03  0.63748087829E+03  0.75849018829E+03  0.00000000000E+00 0.  1.
         -3    1    6    6    0  502  0.45750759945E+02  0.32627777024E+03  0.18420412464E+03  0.37746718391E+03  0.00000000000E+00 0.  1.
<mgrwt>
<rscale>  0 0.14391346E+04</rscale>
<asrwt>0</asrwt>
<pdfrwt beam="1">  1        1 0.33182112E+00 0.14391346E+04</pdfrwt>
<pdfrwt beam="2">  1       -1 0.36932787E-01 0.14391346E+04</pdfrwt>
<totfact> 0.15983042E+01</totfact>
</mgrwt>
</event>
<event>
12    1  0.1536832E-007  0.1173582E+04  0.7818608E-02  0.9136300E-01
         -2   -1    0    0    0  501 -0.00000000000E+00  0.00000000000E+00  0.22509558671E+03  0.22509558671E+03  0.00000000000E+00 0.  1.
          2   -1    0    0  501    0  0.00000000000E+00 -0.00000000000E+00 -0.15296763786E+04  0.15296763786E+04  0.00000000000E+00 0. -1.
         23    2    1    2    0    0  0.86369466313E+02 -0.16335324055E+03 -0.46369764503E+03  0.50741540597E+03  0.91164260008E+02 0.  0.
        254    2    1    2    0    0 -0.86369466313E+02  0.16335324055E+03 -0.84088314688E+03  0.12473565594E+04  0.90259068995E+03 0.  0.
        -24    2    4    4    0    0  0.15471519496E+03  0.28005844786E+03  0.32037333464E+02  0.33078248843E+03  0.77595993098E+02 0.  0.
         24    2    4    4    0    0 -0.24108466128E+03 -0.11670520731E+03 -0.87292048034E+03  0.91657407093E+03  0.79849503413E+02 0.  0.
         11    1    3    3    0    0  0.36916216734E+02 -0.21153327977E+02 -0.19332588818E+03  0.19795244222E+03  0.00000000000E+00 0. -1.
        -11    1    3    3    0    0  0.49453249579E+02 -0.14219991257E+03 -0.27037175685E+03  0.30946296375E+03  0.00000000000E+00 0.  1.
          4    1    6    6  502    0 -0.10613949483E+03 -0.59438440212E+02 -0.27085825204E+03  0.29692206593E+03  0.00000000000E+00 0. -1.
          3    1    5    5  503    0  0.11663248747E+03  0.15730748222E+03 -0.85160811454E+01  0.19601353202E+03  0.00000000000E+00 0. -1.
         -2    1    5    5    0  503  0.38082707494E+02  0.12275096564E+03  0.40553414609E+02  0.13476895641E+03  0.00000000000E+00 0.  1.
         -3    1    6    6    0  502 -0.13494516645E+03 -0.57266767102E+02 -0.60206222830E+03  0.61965200500E+03  0.00000000000E+00 0.  1.
<mgrwt>
<rscale>  0 0.11735815E+04</rscale>
<asrwt>0</asrwt>
<pdfrwt beam="1">  1        2 0.23533483E+00 0.11735815E+04</pdfrwt>
<pdfrwt beam="2">  1       -2 0.34630090E-01 0.11735815E+04</pdfrwt>
<totfact> 0.94327282E+01</totfact>
</mgrwt>
</event>
<event>
12    1  0.1536832E-007  0.3983931E+04  0.7818608E-02  0.8007796E-01
          1   -1    0    0  501    0  0.00000000000E+00  0.00000000000E+00  0.39968474685E+04  0.39968474685E+04  0.00000000000E+00 0. -1.
         -1   -1    0    0    0  501 -0.00000000000E+00 -0.00000000000E+00 -0.99276409569E+03  0.99276409569E+03  0.00000000000E+00 0.  1.
         23    2    1    2    0    0 -0.15549684365E+04 -0.48516749547E+03  0.22427354161E+03  0.16470567723E+04  0.95828245654E+02 0.  0.
        254    2    1    2    0    0  0.15549684365E+04  0.48516749547E+03  0.27798098312E+04  0.33425547919E+04  0.88995252802E+03 0.  0.
        -24    2    4    4    0    0 -0.54902574428E+02  0.12212150079E+03  0.52190007767E+03  0.54472263040E+03  0.80094315458E+02 0.  0.
         24    2    4    4    0    0  0.16098710109E+04  0.36304599468E+03  0.22579097535E+04  0.27978321615E+04  0.78875109068E+02 0.  0.
         13    1    3    3    0    0 -0.17846366333E+03 -0.27782509596E+02  0.38888272065E+02  0.18475238746E+03  0.00000000000E+00 0. -1.
        -13    1    3    3    0    0 -0.13765047731E+04 -0.45738498587E+03  0.18538526955E+03  0.14623043848E+04  0.00000000000E+00 0.  1.
          2    1    6    6  502    0  0.10610263114E+04  0.25292887225E+03  0.14323333561E+04  0.18003690429E+04  0.00000000000E+00 0. -1.
          1    1    5    5  503    0 -0.60490874720E+02  0.12707513776E+03  0.51694478696E+03  0.53576034691E+03  0.00000000000E+00 0. -1.
         -2    1    5    5    0  503  0.55883002921E+01 -0.49536369639E+01  0.49552907061E+01  0.89622834873E+01  0.00000000000E+00 0.  1.
         -1    1    6    6    0  502  0.54884469952E+03  0.11011712243E+03  0.82557639745E+03  0.99746311855E+03  0.00000000000E+00 0.  1.
<mgrwt>
<rscale>  0 0.39839311E+04</rscale>
<asrwt>0</asrwt>
<pdfrwt beam="1">  1        1 0.61489960E+00 0.39839311E+04</pdfrwt>
<pdfrwt beam="2">  1       -1 0.15273294E+00 0.39839311E+04</pdfrwt>
<totfact> 0.25060518E-02</totfact>
</mgrwt>
</event>
<event>
12    1  0.1536832E-007  0.1963135E+04  0.7818608E-02  0.8624053E-01
         -1   -1    0    0    0  501 -0.00000000000E+00  0.00000000000E+00  0.60376180753E+03  0.60376180753E+03  0.00000000000E+00 0. -1.
          1   -1    0    0  501    0  0.00000000000E+00 -0.00000000000E+00 -0.15957869567E+04  0.15957869567E+04  0.00000000000E+00 0.  1.
         23    2    1    2    0    0  0.50713542877E+03 -0.25536796760E+03 -0.98008347747E+03  0.11363515657E+04  0.91280425274E+02 0.  0.
        254    2    1    2    0    0 -0.50713542877E+03  0.25536796760E+03 -0.11941671683E+02  0.10631971985E+04  0.89880283568E+03 0.  0.
        -24    2    4    4    0    0  0.22996494294E+03  0.98299472697E+02  0.12618435917E+03  0.29293769302E+03  0.85693279647E+02 0.  0.
         24    2    4    4    0    0 -0.73710037171E+03  0.15706849490E+03 -0.13812603085E+03  0.77025950550E+03  0.78952107951E+02 0.  0.
         11    1    3    3    0    0  0.26314364631E+02 -0.34157772919E+02 -0.10716067905E+03  0.11551021761E+03  0.00000000000E+00 0. -1.
        -11    1    3    3    0    0  0.48082106414E+03 -0.22121019468E+03 -0.87292279842E+03  0.10208413481E+04  0.00000000000E+00 0.  1.
          4    1    6    6  502    0 -0.10221741538E+03  0.48743287354E+02 -0.11024041895E+02  0.11377977662E+03  0.00000000000E+00 0. -1.
          3    1    5    5  503    0  0.94677891464E+02 -0.24906546425E+01  0.57419021981E+02  0.11075671798E+03  0.00000000000E+00 0. -1.
         -4    1    5    5    0  503  0.13528705148E+03  0.10079012734E+03  0.68765337187E+02  0.18218097504E+03  0.00000000000E+00 0.  1.
         -3    1    6    6    0  502 -0.63488295633E+03  0.10832520755E+03 -0.12710198896E+03  0.65647972888E+03  0.00000000000E+00 0.  1.
<mgrwt>
<rscale>  0 0.19631355E+04</rscale>
<asrwt>0</asrwt>
<pdfrwt beam="1">  1        1 0.24550569E+00 0.19631355E+04</pdfrwt>
<pdfrwt beam="2">  1       -1 0.92886432E-01 0.19631355E+04</pdfrwt>
<totfact> 0.58864685E+00</totfact>
</mgrwt>
</event>
<event>
12    1  0.1536832E-007  0.2755378E+04  0.7818608E-02  0.8317257E-01
          2   -1    0    0  501    0  0.00000000000E+00  0.00000000000E+00  0.14973830526E+04  0.14973830526E+04  0.00000000000E+00 0. -1.
         -2   -1    0    0    0  501 -0.00000000000E+00 -0.00000000000E+00 -0.12675627866E+04  0.12675627866E+04  0.00000000000E+00 0.  1.
         23    2    1    2    0    0 -0.50964997727E+03  0.38915629027E+03 -0.95264407649E+03  0.11519003118E+04  0.90320951648E+02 0.  0.
        254    2    1    2    0    0  0.50964997727E+03 -0.38915629027E+03  0.11824643425E+04  0.16130455273E+04  0.89022931566E+03 0.  0.
        -24    2    4    4    0    0  0.58545233127E+02 -0.43677316005E+03  0.10379565508E+04  0.11304729591E+04  0.80106006530E+02 0.  0.
         24    2    4    4    0    0  0.45110474415E+03  0.47616869784E+02  0.14450779169E+03  0.48257256825E+03  0.78936210221E+02 0.  0.
         13    1    3    3    0    0 -0.11291892662E+02  0.29661590677E+02 -0.64710792631E+02  0.72074985149E+02  0.00000000000E+00 0. -1.
        -13    1    3    3    0    0 -0.49835808461E+03  0.35949469959E+03 -0.88793328386E+03  0.10798253267E+04  0.00000000000E+00 0.  1.
          2    1    6    6  502    0  0.12057103654E+03  0.13295611664E+02  0.28691275709E+01  0.12133581513E+03  0.00000000000E+00 0. -1.
          1    1    5    5  503    0  0.94882078837E+01 -0.77275294113E+02  0.11614180336E+03  0.13982280092E+03  0.00000000000E+00 0. -1.
         -2    1    5    5    0  503  0.49057025243E+02 -0.35949786594E+03  0.92181474741E+03  0.99065015817E+03  0.00000000000E+00 0.  1.
         -1    1    6    6    0  502  0.33053370761E+03  0.34321258120E+02  0.14163866412E+03  0.36123675311E+03  0.00000000000E+00 0.  1.
<mgrwt>
<rscale>  0 0.27553780E+04</rscale>
<asrwt>0</asrwt>
<pdfrwt beam="1">  1        2 0.23036662E+00 0.27553780E+04</pdfrwt>
<pdfrwt beam="2">  1       -2 0.19500966E+00 0.27553780E+04</pdfrwt>
<totfact> 0.15964169E+00</totfact>
</mgrwt>
</event>
<event>
12    1  0.1536832E-007  0.1422078E+04  0.7818608E-02  0.8937990E-01
         -2   -1    0    0    0  501 -0.00000000000E+00  0.00000000000E+00  0.24977090232E+03  0.24977090232E+03  0.00000000000E+00 0.  1.
          2   -1    0    0  501    0  0.00000000000E+00 -0.00000000000E+00 -0.20241614329E+04  0.20241614329E+04  0.00000000000E+00 0. -1.
         23    2    1    2    0    0 -0.29318868687E+03  0.24142566697E+03 -0.25319716592E+03  0.46556613725E+03  0.91635498278E+02 0.  0.
        254    2    1    2    0    0  0.29318868687E+03 -0.24142566697E+03 -0.15211933647E+04  0.18083661980E+04  0.90106220346E+03 0.  0.
        -24    2    4    4    0    0 -0.29434581672E+03 -0.21707903507E+03 -0.72141518430E+03  0.81246670929E+03  0.76808321694E+02 0.  0.
         24    2    4    4    0    0  0.58753450359E+03 -0.24346631906E+02 -0.79977818035E+03  0.99589948867E+03  0.79881802581E+02 0.  0.
         13    1    3    3    0    0 -0.29889161340E+03  0.24066500524E+03 -0.24408407240E+03  0.45478882540E+03  0.00000000000E+00 0.  1.
        -13    1    3    3    0    0  0.57029265332E+01  0.76066173781E+00 -0.91130935176E+01  0.10777311853E+02  0.00000000000E+00 0. -1.
          4    1    6    6  502    0  0.22173809579E+03 -0.38501403475E+02 -0.34790649562E+03  0.41435379918E+03  0.00000000000E+00 0. -1.
          1    1    5    5  503    0 -0.74518761516E+02 -0.68272893886E+02 -0.13386336333E+03  0.16773083765E+03  0.00000000000E+00 0. -1.
         -2    1    5    5    0  503 -0.21982705520E+03 -0.14880614118E+03 -0.58755182097E+03  0.64473587164E+03  0.00000000000E+00 0.  1.
         -3    1    6    6    0  502  0.36579640779E+03  0.14154771569E+02 -0.45187168473E+03  0.58154568950E+03  0.00000000000E+00 0.  1.
<mgrwt>
<rscale>  0 0.14220782E+04</rscale>
<asrwt>0</asrwt>
<pdfrwt beam="1">  1        2 0.31140944E+00 0.14220782E+04</pdfrwt>
<pdfrwt beam="2">  1       -2 0.38426294E-01 0.14220782E+04</pdfrwt>
<totfact> 0.40289336E+01</totfact>
</mgrwt>
</event>
<event>
12    1  0.1536832E-007  0.1400464E+04  0.7818608E-02  0.8953483E-01
          2   -1    0    0  501    0  0.00000000000E+00  0.00000000000E+00  0.23379471251E+04  0.23379471251E+04  0.00000000000E+00 0. -1.
         -2   -1    0    0    0  501 -0.00000000000E+00 -0.00000000000E+00 -0.20972441730E+03  0.20972441730E+03  0.00000000000E+00 0.  1.
         23    2    1    2    0    0  0.73441390458E+02 -0.31876868819E+03  0.16270765354E+03  0.37642322393E+03  0.90628630055E+02 0.  0.
        254    2    1    2    0    0 -0.73441390458E+02  0.31876868819E+03  0.19655150542E+04  0.21712483185E+04  0.86259070108E+03 0.  0.
        -24    2    4    4    0    0 -0.37899178930E+03  0.49277888846E+02  0.14881599513E+04  0.15385611631E+04  0.80543934224E+02 0.  0.
         24    2    4    4    0    0  0.30555039884E+03  0.26949079935E+03  0.47735510296E+03  0.63268715536E+03  0.80242165146E+02 0.  0.
         13    1    3    3    0    0  0.90156669307E+02 -0.26820688848E+03  0.15496504710E+03  0.32261017633E+03  0.00000000000E+00 0. -1.
        -13    1    3    3    0    0 -0.16715278849E+02 -0.50561799710E+02  0.77426064421E+01  0.53813047594E+02  0.00000000000E+00 0.  1.
          2    1    6    6  502    0  0.10487863822E+03  0.70371172183E+02  0.99504690487E+02  0.16078810298E+03  0.00000000000E+00 0. -1.
          1    1    5    5  503    0 -0.16674559643E+03  0.46935354679E+02  0.79388817766E+03  0.81256720342E+03  0.00000000000E+00 0. -1.
         -4    1    5    5    0  503 -0.21224619287E+03  0.23425341665E+01  0.69427177361E+03  0.72599395967E+03  0.00000000000E+00 0.  1.
         -1    1    6    6    0  502  0.20067176062E+03  0.19911962716E+03  0.37785041247E+03  0.47189905238E+03  0.00000000000E+00 0.  1.
<mgrwt>
<rscale>  0 0.14004636E+04</rscale>
<asrwt>0</asrwt>
<pdfrwt beam="1">  1        2 0.35968416E+00 0.14004636E+04</pdfrwt>
<pdfrwt beam="2">  1       -2 0.32265297E-01 0.14004636E+04</pdfrwt>
<totfact> 0.37640047E+01</totfact>
</mgrwt>
</event>
<event>
12    1  0.1536832E-007  0.1685700E+04  0.7818608E-02  0.8769562E-01
         -1   -1    0    0    0  501 -0.00000000000E+00  0.00000000000E+00  0.67681851826E+03  0.67681851826E+03  0.00000000000E+00 0.  1.
          1   -1    0    0  501    0  0.00000000000E+00 -0.00000000000E+00 -0.10496110992E+04  0.10496110992E+04  0.00000000000E+00 0. -1.
         23    2    1    2    0    0  0.48028014349E+03 -0.72722154955E+02 -0.39115574298E+03  0.63040260589E+03  0.91908118210E+02 0.  0.
        254    2    1    2    0    0 -0.48028014349E+03  0.72722154955E+02  0.18363162095E+02  0.10960270115E+04  0.98233419783E+03 0.  0.
        -24    2    4    4    0    0  0.14382641440E+03 -0.22172953138E+03  0.24109783896E+03  0.36645141322E+03  0.79425737233E+02 0.  0.
         24    2    4    4    0    0 -0.62410655789E+03  0.29445168634E+03 -0.22273467687E+03  0.72957559830E+03  0.80368066887E+02 0.  0.
         13    1    3    3    0    0  0.81106293319E+02  0.14723160586E+02 -0.40063401193E+02  0.91651941543E+02  0.00000000000E+00 0.  1.
        -13    1    3    3    0    0  0.39917385017E+03 -0.87445315541E+02 -0.35109234179E+03  0.53875066435E+03  0.00000000000E+00 0. -1.
          4    1    6    6  502    0 -0.45435518127E+03  0.19155520643E+03 -0.18983733236E+03  0.52836563156E+03  0.00000000000E+00 0. -1.
          3    1    5    5  503    0  0.89049121105E+02 -0.74894285867E+02  0.12927183727E+03  0.17392558161E+03  0.00000000000E+00 0. -1.
         -4    1    5    5    0  503  0.54777293294E+02 -0.14683524551E+03  0.11182600169E+03  0.19252583162E+03  0.00000000000E+00 0.  1.
         -3    1    6    6    0  502 -0.16975137661E+03  0.10289647991E+03 -0.32897344513E+02  0.20120996674E+03  0.00000000000E+00 0.  1.
<mgrwt>
<rscale>  0 0.16857001E+04</rscale>
<asrwt>0</asrwt>
<pdfrwt beam="1">  1        1 0.16147863E+00 0.16857001E+04</pdfrwt>
<pdfrwt beam="2">  1       -1 0.10412593E+00 0.16857001E+04</pdfrwt>
<totfact> 0.11456315E+01</totfact>
</mgrwt>
</event>
<event>
12    1  0.1536832E-007  0.2552050E+04  0.7818608E-02  0.8384673E-01
          2   -1    0    0  501    0  0.00000000000E+00  0.00000000000E+00  0.13477853604E+04  0.13477853604E+04  0.00000000000E+00 0. -1.
         -2   -1    0    0    0  501 -0.00000000000E+00 -0.00000000000E+00 -0.12080857526E+04  0.12080857526E+04  0.00000000000E+00 0.  1.
         23    2    1    2    0    0  0.70752458042E+03 -0.78262657697E+03  0.42051598091E+03  0.11390575711E+04  0.86735628357E+02 0.  0.
        254    2    1    2    0    0 -0.70752458042E+03  0.78262657697E+03 -0.28081637312E+03  0.14168135419E+04  0.90299910641E+03 0.  0.
        -24    2    4    4    0    0 -0.74889701789E+03  0.38495621148E+03 -0.46993552328E+03  0.96752123636E+03  0.78866460611E+02 0.  0.
         24    2    4    4    0    0  0.41372437470E+02  0.39767036549E+03  0.18911915016E+03  0.44929230552E+03  0.79019773966E+02 0.  0.
         13    1    3    3    0    0  0.79245063241E+02 -0.51994465583E+02  0.31467589812E+02  0.99866980068E+02  0.00000000000E+00 0.  1.
        -13    1    3    3    0    0  0.62827951718E+03 -0.73063211139E+03  0.38904839109E+03  0.10391905910E+04  0.00000000000E+00 0. -1.
          4    1    6    6  502    0  0.13903481229E+02  0.24589136677E+03  0.75097954276E+02  0.25747926864E+03  0.00000000000E+00 0. -1.
          3    1    5    5  503    0 -0.97384941702E+02  0.21668486897E+02 -0.56936178247E+02  0.11486983324E+03  0.00000000000E+00 0. -1.
         -4    1    5    5    0  503 -0.65151207619E+03  0.36328772459E+03 -0.41299934503E+03  0.85265140312E+03  0.00000000000E+00 0.  1.
         -3    1    6    6    0  502  0.27468956240E+02  0.15177899871E+03  0.11402119588E+03  0.19181303688E+03  0.00000000000E+00 0.  1.
<mgrwt>
<rscale>  0 0.25520504E+04</rscale>
<asrwt>0</asrwt>
<pdfrwt beam="1">  1        2 0.20735159E+00 0.25520504E+04</pdfrwt>
<pdfrwt beam="2">  1       -2 0.18585935E+00 0.25520504E+04</pdfrwt>
<totfact> 0.22768132E+00</totfact>
</mgrwt>
</event>
<event>
12    1  0.1536832E-007  0.1380682E+04  0.7818608E-02  0.8967922E-01
          1   -1    0    0  501    0  0.00000000000E+00  0.00000000000E+00  0.66384392225E+03  0.66384392225E+03  0.00000000000E+00 0. -1.
         -1   -1    0    0    0  501 -0.00000000000E+00 -0.00000000000E+00 -0.71789593054E+03  0.71789593054E+03  0.00000000000E+00 0.  1.
         23    2    1    2    0    0 -0.25897183797E+02 -0.63392969868E+02 -0.40308970140E+03  0.41919735765E+03  0.92497483909E+02 0.  0.
        254    2    1    2    0    0  0.25897183797E+02  0.63392969868E+02  0.34903769311E+03  0.96254249514E+03  0.89441120911E+03 0.  0.
        -24    2    4    4    0    0 -0.26596799012E+03  0.32756085370E+03  0.36086198325E+03  0.56048635918E+03  0.76736583340E+02 0.  0.
         24    2    4    4    0    0  0.29186517392E+03 -0.26416788384E+03 -0.11824290146E+02  0.40205613596E+03  0.80866383818E+02 0.  0.
         11    1    3    3    0    0  0.70795822507E+01  0.12627720262E+02 -0.10312843989E+02  0.17774547955E+02  0.00000000000E+00 0. -1.
        -11    1    3    3    0    0 -0.32976766048E+02 -0.76020690130E+02 -0.39277685741E+03  0.40142280970E+03  0.00000000000E+00 0.  1.
          4    1    6    6  502    0  0.19983900339E+03 -0.22636151379E+03 -0.17016527527E+02  0.30243135488E+03  0.00000000000E+00 0. -1.
          1    1    5    5  503    0 -0.22930282448E+03  0.30621728106E+03  0.34515132358E+03  0.51524580998E+03  0.00000000000E+00 0. -1.
         -2    1    5    5    0  503 -0.36665165637E+02  0.21343572642E+02  0.15710659673E+02  0.45240549197E+02  0.00000000000E+00 0.  1.
         -3    1    6    6    0  502  0.92026170526E+02 -0.37806370042E+02  0.51922373817E+01  0.99624781086E+02  0.00000000000E+00 0.  1.
<mgrwt>
<rscale>  0 0.13806822E+04</rscale>
<asrwt>0</asrwt>
<pdfrwt beam="1">  1        1 0.10212983E+00 0.13806822E+04</pdfrwt>
<pdfrwt beam="2">  1       -1 0.11044553E+00 0.13806822E+04</pdfrwt>
<totfact> 0.21795956E+01</totfact>
</mgrwt>
</event>
<event>
12    1  0.1536832E-007  0.1747971E+04  0.7818608E-02  0.8734468E-01
         -2   -1    0    0    0  501 -0.00000000000E+00  0.00000000000E+00  0.31790225718E+03  0.31790225718E+03  0.00000000000E+00 0. -1.
          2   -1    0    0  501    0  0.00000000000E+00 -0.00000000000E+00 -0.24027837322E+04  0.24027837322E+04  0.00000000000E+00 0.  1.
         23    2    1    2    0    0  0.22821709005E+03 -0.15629366155E+03 -0.15944025410E+04  0.16207908389E+04  0.91283798362E+02 0.  0.
        254    2    1    2    0    0 -0.22821709005E+03  0.15629366155E+03 -0.49047893401E+03  0.10998951505E+04  0.94482221000E+03 0.  0.
        -24    2    4    4    0    0 -0.24135696872E+03 -0.35910953162E+03 -0.34451876502E+03  0.55890195906E+03  0.80407576397E+02 0.  0.
         24    2    4    4    0    0  0.13139878667E+02  0.51540319317E+03 -0.14596016899E+03  0.54099319142E+03  0.74539615597E+02 0.  0.
         13    1    3    3    0    0  0.47377014830E+02  0.17444668320E+01 -0.37295593230E+03  0.37595711476E+03  0.00000000000E+00 0. -1.
        -13    1    3    3    0    0  0.18084007522E+03 -0.15803812838E+03 -0.12214466087E+04  0.12448337241E+04  0.00000000000E+00 0.  1.
          4    1    6    6  502    0  0.17562202982E+02  0.39899943756E+03 -0.14380169680E+03  0.42448546518E+03  0.00000000000E+00 0. -1.
          1    1    5    5  503    0 -0.21020441853E+03 -0.32421074123E+03 -0.27171368071E+03  0.47236302415E+03  0.00000000000E+00 0. -1.
         -2    1    5    5    0  503 -0.31152550185E+02 -0.34898790385E+02 -0.72805084312E+02  0.86538934909E+02  0.00000000000E+00 0.  1.
         -3    1    6    6    0  502 -0.44223243153E+01  0.11640375561E+03 -0.21584721954E+01  0.11650772624E+03  0.00000000000E+00 0.  1.
<mgrwt>
<rscale>  0 0.17479707E+04</rscale>
<asrwt>0</asrwt>
<pdfrwt beam="1">  1        2 0.36965902E+00 0.17479707E+04</pdfrwt>
<pdfrwt beam="2">  1       -2 0.48908042E-01 0.17479707E+04</pdfrwt>
<totfact> 0.14878734E+01</totfact>
</mgrwt>
</event>
<event>
12    1  0.1536832E-007  0.1200938E+04  0.7818608E-02  0.9112036E-01
         -2   -1    0    0    0  501 -0.00000000000E+00  0.00000000000E+00  0.16497456741E+03  0.16497456741E+03  0.00000000000E+00 0.  1.
          2   -1    0    0  501    0  0.00000000000E+00 -0.00000000000E+00 -0.21855678407E+04  0.21855678407E+04  0.00000000000E+00 0. -1.
         23    2    1    2    0    0  0.19649490350E+03  0.65916776071E+02 -0.55445858640E+03  0.59908615773E+03  0.92328933043E+02 0.  0.
        254    2    1    2    0    0 -0.19649490350E+03 -0.65916776071E+02 -0.14661346869E+04  0.17514562504E+04  0.93546395360E+03 0.  0.
        -24    2    4    4    0    0  0.29733739463E+03  0.16022255112E+03 -0.89109575487E+03  0.95648922322E+03  0.82092616359E+02 0.  0.
         24    2    4    4    0    0 -0.49383229813E+03 -0.22613932719E+03 -0.57503893201E+03  0.79496702717E+03  0.79331374477E+02 0.  0.
         13    1    3    3    0    0  0.10536536223E+03  0.63305902098E+02 -0.41206522580E+03  0.43000842680E+03  0.00000000000E+00 0. -1.
        -13    1    3    3    0    0  0.91129541267E+02  0.26108739728E+01 -0.14239336060E+03  0.16907773093E+03  0.00000000000E+00 0.  1.
          2    1    6    6  502    0 -0.28230046831E+03 -0.17067399924E+03 -0.35951431137E+03  0.48792797472E+03  0.00000000000E+00 0. -1.
          1    1    5    5  503    0  0.27542010655E+03  0.14358569819E+03 -0.73416822491E+03  0.79716752962E+03  0.00000000000E+00 0. -1.
         -4    1    5    5    0  503  0.21917288079E+02  0.16636852930E+02 -0.15692752996E+03  0.15932169360E+03  0.00000000000E+00 0.  1.
         -1    1    6    6    0  502 -0.21153182981E+03 -0.55465327948E+02 -0.21552462064E+03  0.30703905245E+03  0.00000000000E+00 0.  1.
<mgrwt>
<rscale>  0 0.12009381E+04</rscale>
<asrwt>0</asrwt>
<pdfrwt beam="1">  1        2 0.33624118E+00 0.12009381E+04</pdfrwt>
<pdfrwt beam="2">  1       -2 0.25380704E-01 0.12009381E+04</pdfrwt>
<totfact> 0.72662137E+01</totfact>
</mgrwt>
</event>
<event>
12    1  0.1536832E-007  0.2079501E+04  0.7818608E-02  0.8570328E-01
          2   -1    0    0  501    0  0.00000000000E+00  0.00000000000E+00  0.13229793065E+04  0.13229793065E+04  0.00000000000E+00 0. -1.
         -2   -1    0    0    0  501 -0.00000000000E+00 -0.00000000000E+00 -0.81715612948E+03  0.81715612948E+03  0.00000000000E+00 0.  1.
         23    2    1    2    0    0 -0.78654043539E+03 -0.29594736254E+03  0.20153882295E+03  0.86885543800E+03  0.89784058079E+02 0.  0.
        254    2    1    2    0    0  0.78654043539E+03  0.29594736254E+03  0.30428435410E+03  0.12712799980E+04  0.90406480261E+03 0.  0.
        -24    2    4    4    0    0  0.26948122242E+03  0.56084797078E+03  0.41774059443E+02  0.62868114728E+03  0.79525702329E+02 0.  0.
         24    2    4    4    0    0  0.51705921297E+03 -0.26490060825E+03  0.26251029466E+03  0.64259885074E+03  0.80616786125E+02 0.  0.
         11    1    3    3    0    0 -0.10014710993E+03 -0.20477401064E+02  0.50375711958E+02  0.11395823769E+03  0.00000000000E+00 0. -1.
        -11    1    3    3    0    0 -0.68639332546E+03 -0.27546996147E+03  0.15116311099E+03  0.75489720031E+03  0.00000000000E+00 0.  1.
          2    1    6    6  502    0  0.84298208817E+02 -0.45689235264E+02  0.12030229268E+02  0.96635504060E+02  0.00000000000E+00 0. -1.
          3    1    5    5  503    0  0.13185318097E+02  0.62054897824E+01 -0.61319057498E+01  0.15810154486E+02  0.00000000000E+00 0. -1.
         -4    1    5    5    0  503  0.25629590432E+03  0.55464248100E+03  0.47905965192E+02  0.61287099279E+03  0.00000000000E+00 0.  1.
         -1    1    6    6    0  502  0.43276100416E+03 -0.21921137298E+03  0.25048006539E+03  0.54596334668E+03  0.00000000000E+00 0.  1.
<mgrwt>
<rscale>  0 0.20795006E+04</rscale>
<asrwt>0</asrwt>
<pdfrwt beam="1">  1        2 0.20353528E+00 0.20795006E+04</pdfrwt>
<pdfrwt beam="2">  1       -2 0.12571633E+00 0.20795006E+04</pdfrwt>
<totfact> 0.69948504E+00</totfact>
</mgrwt>
</event>
<event>
12    1  0.1536832E-007  0.1347526E+04  0.7818608E-02  0.8992703E-01
          1   -1    0    0  501    0  0.00000000000E+00  0.00000000000E+00  0.23965530630E+04  0.23965530630E+04  0.00000000000E+00 0.  1.
         -1   -1    0    0    0  501 -0.00000000000E+00 -0.00000000000E+00 -0.18942050060E+03  0.18942050060E+03  0.00000000000E+00 0. -1.
         23    2    1    2    0    0  0.26941591702E+03  0.21041656349E+03  0.84028562087E+03  0.91167546330E+03  0.90620964508E+02 0.  0.
        254    2    1    2    0    0 -0.26941591702E+03 -0.21041656349E+03  0.13668469415E+04  0.16742981003E+04  0.90451285260E+03 0.  0.
        -24    2    4    4    0    0  0.28234297156E+03 -0.27927003280E+03  0.53955932785E+03  0.67442929578E+03  0.77597048442E+02 0.  0.
         24    2    4    4    0    0 -0.55175888858E+03  0.68853469316E+02  0.82728761364E+03  0.99986880447E+03  0.78448448780E+02 0.  0.
         13    1    3    3    0    0  0.22667411011E+03  0.13625102700E+03  0.68632525820E+03  0.73551876563E+03  0.00000000000E+00 0.  1.
        -13    1    3    3    0    0  0.42741806915E+02  0.74165536482E+02  0.15396036267E+03  0.17615669767E+03  0.00000000000E+00 0. -1.
          2    1    6    6  502    0 -0.34467305417E+02 -0.27289918363E+01  0.25301253400E+02  0.42843855601E+02  0.00000000000E+00 0. -1.
          3    1    5    5  503    0  0.10824409150E+03 -0.98818237176E+02  0.13986243238E+03  0.20259152829E+03  0.00000000000E+00 0. -1.
         -4    1    5    5    0  503  0.17409888005E+03 -0.18045179563E+03  0.39969689547E+03  0.47183776749E+03  0.00000000000E+00 0.  1.
         -1    1    6    6    0  502 -0.51729158316E+03  0.71582461153E+02  0.80198636024E+03  0.95702494887E+03  0.00000000000E+00 0.  1.
<mgrwt>
<rscale>  0 0.13475256E+04</rscale>
<asrwt>0</asrwt>
<pdfrwt beam="1">  1        1 0.36870045E+00 0.13475256E+04</pdfrwt>
<pdfrwt beam="2">  1       -1 0.29141617E-01 0.13475256E+04</pdfrwt>
<totfact> 0.16847243E+01</totfact>
</mgrwt>
</event>
<event>
12    1  0.1536832E-007  0.1196050E+04  0.7818608E-02  0.9116321E-01
          3   -1    0    0  501    0  0.00000000000E+00  0.00000000000E+00  0.28021087270E+03  0.28021087270E+03  0.00000000000E+00 0. -1.
         -3   -1    0    0    0  501 -0.00000000000E+00 -0.00000000000E+00 -0.12763017764E+04  0.12763017764E+04  0.00000000000E+00 0.  1.
         23    2    1    2    0    0  0.21090593678E+03 -0.45055045527E+01 -0.38315700805E+03  0.44694687961E+03  0.91927181173E+02 0.  0.
        254    2    1    2    0    0 -0.21090593678E+03  0.45055045527E+01 -0.61293389569E+03  0.11095657695E+04  0.90052574793E+03 0.  0.
        -24    2    4    4    0    0 -0.41406273046E+03  0.12697130293E+03  0.87731799679E+01  0.44051615412E+03  0.80049090108E+02 0.  0.
         24    2    4    4    0    0  0.20315679368E+03 -0.12246579837E+03 -0.62170707566E+03  0.66904961541E+03  0.69549589252E+02 0.  0.
         13    1    3    3    0    0  0.95499491428E+02 -0.46664657984E+02 -0.19814021676E+03  0.22484948002E+03  0.00000000000E+00 0.  1.
        -13    1    3    3    0    0  0.11540644535E+03  0.42159153432E+02 -0.18501679129E+03  0.22209739959E+03  0.00000000000E+00 0. -1.
          2    1    6    6  502    0  0.36407184367E+02 -0.31212026044E+02 -0.64933827902E+02  0.80722212861E+02  0.00000000000E+00 0. -1.
          1    1    5    5  503    0 -0.46842794206E+02 -0.43905704391E+01 -0.16071508611E+02  0.49717379927E+02  0.00000000000E+00 0. -1.
         -2    1    5    5    0  503 -0.36721993625E+03  0.13136187337E+03  0.24844688579E+02  0.39079877419E+03  0.00000000000E+00 0.  1.
         -1    1    6    6    0  502  0.16674960932E+03 -0.91253772331E+02 -0.55677324776E+03  0.58832740255E+03  0.00000000000E+00 0.  1.
<mgrwt>
<rscale>  0 0.11960496E+04</rscale>
<asrwt>0</asrwt>
<pdfrwt beam="1">  1        3 0.43109366E-01 0.11960496E+04</pdfrwt>
<pdfrwt beam="2">  1       -3 0.19635412E+00 0.11960496E+04</pdfrwt>
<totfact> 0.21424044E+00</totfact>
</mgrwt>
</event>
<event>
12    1  0.1536832E-007  0.1555706E+04  0.7818608E-02  0.8848231E-01
         -2   -1    0    0    0  501 -0.00000000000E+00  0.00000000000E+00  0.27699147404E+03  0.27699147404E+03  0.00000000000E+00 0. -1.
          2   -1    0    0  501    0  0.00000000000E+00 -0.00000000000E+00 -0.21843827530E+04  0.21843827530E+04  0.00000000000E+00 0.  1.
         23    2    1    2    0    0 -0.28438166545E+03  0.29570747873E+03 -0.11212688650E+04  0.11976053004E+04  0.93267053546E+02 0.  0.
        254    2    1    2    0    0  0.28438166545E+03 -0.29570747873E+03 -0.78612241398E+03  0.12637689267E+04  0.90044855801E+03 0.  0.
        -24    2    4    4    0    0 -0.15938072583E+02 -0.26107232467E+03 -0.89261134349E+03  0.93368967248E+03  0.81293376805E+02 0.  0.
         24    2    4    4    0    0  0.30031973804E+03 -0.34635154065E+02  0.10648892951E+03  0.33007925418E+03  0.78872574342E+02 0.  0.
         11    1    3    3    0    0 -0.16380014291E+03  0.19292709271E+03 -0.80537259848E+03  0.84420161828E+03  0.00000000000E+00 0. -1.
        -11    1    3    3    0    0 -0.12058152254E+03  0.10278038603E+03 -0.31589626655E+03  0.35340368214E+03  0.00000000000E+00 0.  1.
          4    1    6    6  502    0  0.79556303459E+02 -0.28211863279E+01  0.65961549661E+02  0.10338322178E+03  0.00000000000E+00 0. -1.
          1    1    5    5  503    0  0.25891303504E+02 -0.18306228268E+03 -0.57667469598E+03  0.60558720588E+03  0.00000000000E+00 0. -1.
         -2    1    5    5    0  503 -0.41829376087E+02 -0.78010041988E+02 -0.31593664751E+03  0.32810246660E+03  0.00000000000E+00 0.  1.
         -3    1    6    6    0  502  0.22076343458E+03 -0.31813967737E+02  0.40527379851E+02  0.22669603240E+03  0.00000000000E+00 0.  1.
<mgrwt>
<rscale>  0 0.15557061E+04</rscale>
<asrwt>0</asrwt>
<pdfrwt beam="1">  1        2 0.33605889E+00 0.15557061E+04</pdfrwt>
<pdfrwt beam="2">  1       -2 0.42614072E-01 0.15557061E+04</pdfrwt>
<totfact> 0.26488668E+01</totfact>
</mgrwt>
</event>
<event>
12    1  0.1536832E-007  0.1937166E+04  0.7818608E-02  0.8636574E-01
         -2   -1    0    0    0  501 -0.00000000000E+00  0.00000000000E+00  0.10260740500E+04  0.10260740500E+04  0.00000000000E+00 0.  1.
          2   -1    0    0  501    0  0.00000000000E+00 -0.00000000000E+00 -0.91431362423E+03  0.91431362423E+03  0.00000000000E+00 0. -1.
         23    2    1    2    0    0  0.10129338496E+03 -0.45444791597E+03 -0.55190973883E+03  0.72784632410E+03  0.91502205036E+02 0.  0.
        254    2    1    2    0    0 -0.10129338496E+03  0.45444791597E+03  0.66367016459E+03  0.12125413501E+04  0.90167354413E+03 0.  0.
        -24    2    4    4    0    0 -0.17936178691E+03  0.10434040788E+03 -0.18404081798E+03  0.28868780032E+03  0.80075289912E+02 0.  0.
         24    2    4    4    0    0  0.78068401946E+02  0.35010750809E+03  0.84771098256E+03  0.92385354978E+03  0.78876668808E+02 0.  0.
         13    1    3    3    0    0 -0.89953199743E+01 -0.43261397196E+02 -0.26169103462E+02  0.51354515330E+02  0.00000000000E+00 0.  1.
        -13    1    3    3    0    0  0.11028870494E+03 -0.41118651877E+03 -0.52574063537E+03  0.67649180877E+03  0.00000000000E+00 0. -1.
          2    1    6    6  502    0  0.83659502344E+02  0.33830114508E+03  0.77184998000E+03  0.84687600552E+03  0.00000000000E+00 0. -1.
          1    1    5    5  503    0 -0.13942747374E+03  0.58962900714E+02 -0.16801117609E+03  0.22615127544E+03  0.00000000000E+00 0. -1.
         -2    1    5    5    0  503 -0.39934313173E+02  0.45377507165E+02 -0.16029641886E+02  0.62536524880E+02  0.00000000000E+00 0.  1.
         -1    1    6    6    0  502 -0.55911003971E+01  0.11806363013E+02  0.75861002564E+02  0.76977544266E+02  0.00000000000E+00 0.  1.
<mgrwt>
<rscale>  0 0.19371665E+04</rscale>
<asrwt>0</asrwt>
<pdfrwt beam="1">  1        2 0.14066363E+00 0.19371665E+04</pdfrwt>
<pdfrwt beam="2">  1       -2 0.15785755E+00 0.19371665E+04</pdfrwt>
<totfact> 0.69950447E+00</totfact>
</mgrwt>
</event>
<event>
12    1  0.1536832E-007  0.2325371E+04  0.7818608E-02  0.8467984E-01
          2   -1    0    0  501    0  0.00000000000E+00  0.00000000000E+00  0.26727461735E+04  0.26727461735E+04  0.00000000000E+00 0. -1.
         -2   -1    0    0    0  501 -0.00000000000E+00 -0.00000000000E+00 -0.50578605562E+03  0.50578605562E+03  0.00000000000E+00 0.  1.
         23    2    1    2    0    0 -0.20188528164E+03 -0.85719072060E+03  0.32147481492E+03  0.94205502372E+03  0.92671531069E+02 0.  0.
        254    2    1    2    0    0  0.20188528164E+03  0.85719072060E+03  0.18454853030E+04  0.22364772054E+04  0.90580389070E+03 0.  0.
        -24    2    4    4    0    0  0.28983568437E+02  0.48557795742E+03  0.17363078377E+04  0.18049376382E+04  0.80056046436E+02 0.  0.
         24    2    4    4    0    0  0.17290171320E+03  0.37161276317E+03  0.10917746524E+03  0.43153956717E+03  0.79470943989E+02 0.  0.
         11    1    3    3    0    0 -0.12062651794E+03 -0.60857151951E+03  0.18718480982E+03  0.64803410729E+03  0.00000000000E+00 0. -1.
        -11    1    3    3    0    0 -0.81258763693E+02 -0.24861920109E+03  0.13429000510E+03  0.29402091643E+03  0.00000000000E+00 0.  1.
          4    1    6    6  502    0  0.41795266865E+02  0.12126877396E+03  0.70330471120E+02  0.14628511558E+03  0.00000000000E+00 0. -1.
          1    1    5    5  503    0  0.18345357131E+02  0.40091255451E+03  0.13069165265E+04  0.13671496757E+04  0.00000000000E+00 0. -1.
         -2    1    5    5    0  503  0.10638211307E+02  0.84665402915E+02  0.42939131123E+03  0.43778796254E+03  0.00000000000E+00 0.  1.
         -3    1    6    6    0  502  0.13110644633E+03  0.25034398921E+03  0.38846994122E+02  0.28525445160E+03  0.00000000000E+00 0.  1.
<mgrwt>
<rscale>  0 0.23253711E+04</rscale>
<asrwt>0</asrwt>
<pdfrwt beam="1">  1        2 0.41119171E+00 0.23253711E+04</pdfrwt>
<pdfrwt beam="2">  1       -2 0.77813241E-01 0.23253711E+04</pdfrwt>
<totfact> 0.36690340E+00</totfact>
</mgrwt>
</event>
<event>
12    1  0.1536832E-007  0.1591582E+04  0.7818608E-02  0.8825736E-01
         -2   -1    0    0    0  501 -0.00000000000E+00  0.00000000000E+00  0.36972668213E+03  0.36972668213E+03  0.00000000000E+00 0.  1.
          2   -1    0    0  501    0  0.00000000000E+00 -0.00000000000E+00 -0.17128409812E+04  0.17128409812E+04  0.00000000000E+00 0. -1.
         23    2    1    2    0    0  0.37552102928E+03 -0.29818226303E+03 -0.15019597099E+03  0.51076613874E+03  0.91621576940E+02 0.  0.
        254    2    1    2    0    0 -0.37552102928E+03  0.29818226303E+03 -0.11929183281E+04  0.15718015246E+04  0.90419975109E+03 0.  0.
        -24    2    4    4    0    0 -0.46082618252E+03  0.11293940102E+03 -0.12549517488E+04  0.13439304531E+04  0.78288519445E+02 0.  0.
         24    2    4    4    0    0  0.85305153244E+02  0.18524286201E+03  0.62033420664E+02  0.22787107151E+03  0.80530695126E+02 0.  0.
         13    1    3    3    0    0  0.19583438364E+03 -0.14022069146E+03 -0.12160707550E+03  0.26981702863E+03  0.00000000000E+00 0. -1.
        -13    1    3    3    0    0  0.17968664563E+03 -0.15796157157E+03 -0.28588895494E+02  0.24094911010E+03  0.00000000000E+00 0.  1.
          4    1    6    6  502    0  0.52841098336E+02  0.76614097659E+02 -0.99097756363E+01  0.93595434112E+02  0.00000000000E+00 0. -1.
          3    1    5    5  503    0 -0.22851587423E+03  0.21846069418E+02 -0.54363277931E+03  0.59011300127E+03  0.00000000000E+00 0. -1.
         -4    1    5    5    0  503 -0.23231030829E+03  0.91093331605E+02 -0.71131896946E+03  0.75381745185E+03  0.00000000000E+00 0.  1.
         -3    1    6    6    0  502  0.32464054908E+02  0.10862876435E+03  0.71943196300E+02  0.13427563740E+03  0.00000000000E+00 0.  1.
<mgrwt>
<rscale>  0 0.15915816E+04</rscale>
<asrwt>0</asrwt>
<pdfrwt beam="1">  1        2 0.26351400E+00 0.15915816E+04</pdfrwt>
<pdfrwt beam="2">  1       -2 0.56881027E-01 0.15915816E+04</pdfrwt>
<totfact> 0.26823522E+01</totfact>
</mgrwt>
</event>
<event>
12    1  0.1536832E-007  0.1923474E+04  0.7818608E-02  0.8643259E-01
         -1   -1    0    0    0  501 -0.00000000000E+00  0.00000000000E+00  0.74929749203E+03  0.74929749203E+03  0.00000000000E+00 0. -1.
          1   -1    0    0  501    0  0.00000000000E+00 -0.00000000000E+00 -0.12344065483E+04  0.12344065483E+04  0.00000000000E+00 0.  1.
         23    2    1    2    0    0  0.16298042830E+03 -0.26937750691E+03  0.50944052884E+03  0.60544120821E+03  0.88896248141E+02 0.  0.
        254    2    1    2    0    0 -0.16298042830E+03  0.26937750691E+03 -0.99454958509E+03  0.13782628321E+04  0.90075118424E+03 0.  0.
        -24    2    4    4    0    0  0.30995398938E+03  0.33641643121E+03 -0.55505864657E+03  0.72394650347E+03  0.82224984232E+02 0.  0.
         24    2    4    4    0    0 -0.47293441768E+03 -0.67038924295E+02 -0.43949093852E+03  0.65431632863E+03  0.82561444236E+02 0.  0.
         11    1    3    3    0    0  0.37976356442E+02 -0.58178011316E+02  0.53658643810E+02  0.87784592639E+02  0.00000000000E+00 0.  1.
        -11    1    3    3    0    0  0.12500407185E+03 -0.21119949560E+03  0.45578188503E+03  0.51765661557E+03  0.00000000000E+00 0. -1.
          2    1    6    6  502    0 -0.10686236057E+03 -0.39873001170E+02 -0.71918838470E+02  0.13483968131E+03  0.00000000000E+00 0. -1.
          3    1    5    5  503    0  0.65947239444E+02  0.92966594419E+02 -0.19232593196E+03  0.22356451009E+03  0.00000000000E+00 0. -1.
         -4    1    5    5    0  503  0.24400674994E+03  0.24344983679E+03 -0.36273271461E+03  0.50038199338E+03  0.00000000000E+00 0.  1.
         -1    1    6    6    0  502 -0.36607205711E+03 -0.27165923126E+02 -0.36757210005E+03  0.51947664732E+03  0.00000000000E+00 0.  1.
<mgrwt>
<rscale>  0 0.19234737E+04</rscale>
<asrwt>0</asrwt>
<pdfrwt beam="1">  1        1 0.18990870E+00 0.19234737E+04</pdfrwt>
<pdfrwt beam="2">  1       -1 0.11527654E+00 0.19234737E+04</pdfrwt>
<totfact> 0.64276698E+00</totfact>
</mgrwt>
</event>
<event>
12    1  0.1536832E-007  0.1258022E+04  0.7818608E-02  0.9063533E-01
         -2   -1    0    0    0  501 -0.00000000000E+00  0.00000000000E+00  0.31610146172E+03  0.31610146172E+03  0.00000000000E+00 0.  1.
          2   -1    0    0  501    0  0.00000000000E+00 -0.00000000000E+00 -0.12516694438E+04  0.12516694438E+04  0.00000000000E+00 0. -1.
         23    2    1    2    0    0 -0.58814093612E+02 -0.13402816525E+02 -0.59548970776E+03  0.60541841299E+03  0.91020490213E+02 0.  0.
        254    2    1    2    0    0  0.58814093612E+02  0.13402816525E+02 -0.34007827433E+03  0.96235249253E+03  0.89823735956E+03 0.  0.
        -24    2    4    4    0    0 -0.10199636664E+03 -0.41496966697E+03 -0.13988294047E+03  0.45669916664E+03  0.80023799334E+02 0.  0.
         24    2    4    4    0    0  0.16081046025E+03  0.42837248350E+03 -0.20019533386E+03  0.50565332589E+03  0.79019779454E+02 0.  0.
         11    1    3    3    0    0 -0.99235643219E+00  0.18361552420E+02 -0.24514909602E+02  0.30644937125E+02  0.00000000000E+00 0.  1.
        -11    1    3    3    0    0 -0.57821737180E+02 -0.31764368945E+02 -0.57097479816E+03  0.57477347586E+03  0.00000000000E+00 0. -1.
          4    1    6    6  502    0  0.64593689949E+02  0.19676525241E+03 -0.13258586599E+03  0.24590225944E+03  0.00000000000E+00 0. -1.
          1    1    5    5  503    0 -0.41794890719E+02 -0.27124104430E+03 -0.57371242533E+02  0.28037470726E+03  0.00000000000E+00 0. -1.
         -2    1    5    5    0  503 -0.60201475918E+02 -0.14372862267E+03 -0.82511697933E+02  0.17632445938E+03  0.00000000000E+00 0.  1.
         -3    1    6    6    0  502  0.96216770301E+02  0.23160723108E+03 -0.67609467874E+02  0.25975106645E+03  0.00000000000E+00 0.  1.
<mgrwt>
<rscale>  0 0.12580215E+04</rscale>
<asrwt>0</asrwt>
<pdfrwt beam="1">  1        2 0.19256453E+00 0.12580215E+04</pdfrwt>
<pdfrwt beam="2">  1       -2 0.48630995E-01 0.12580215E+04</pdfrwt>
<totfact> 0.69444401E+01</totfact>
</mgrwt>
</event>
<event>
12    1  0.1536832E-007  0.1052401E+04  0.7818608E-02  0.9252869E-01
         -1   -1    0    0    0  501 -0.00000000000E+00  0.00000000000E+00  0.11852659134E+04  0.11852659134E+04  0.00000000000E+00 0.  1.
          1   -1    0    0  501    0  0.00000000000E+00 -0.00000000000E+00 -0.23360750327E+03  0.23360750327E+03  0.00000000000E+00 0. -1.
         23    2    1    2    0    0 -0.31666681339E+02 -0.83752896147E+02  0.32170109621E+03  0.34717313279E+03  0.94975062568E+02 0.  0.
        254    2    1    2    0    0  0.31666681339E+02  0.83752896147E+02  0.62995731394E+03  0.10717002839E+04  0.86236764479E+03 0.  0.
        -24    2    4    4    0    0 -0.23147610829E+03  0.36825539355E+03  0.46874739172E+03  0.64450314247E+03  0.80417409920E+02 0.  0.
         24    2    4    4    0    0  0.26314278963E+03 -0.28450249740E+03  0.16120992222E+03  0.42719714142E+03  0.79517041260E+02 0.  0.
         11    1    3    3    0    0 -0.36663578145E+02  0.81032302741E+01  0.11363974860E+03  0.11968238286E+03  0.00000000000E+00 0.  1.
        -11    1    3    3    0    0  0.49968968062E+01 -0.91856126421E+02  0.20806134761E+03  0.22749074994E+03  0.00000000000E+00 0. -1.
          2    1    6    6  502    0  0.40612638105E+02 -0.20068026731E+02 -0.12314552333E+01  0.45316978637E+02  0.00000000000E+00 0. -1.
          1    1    5    5  503    0 -0.15167150533E+02  0.24395919095E+02  0.68213182029E+02  0.74015143899E+02  0.00000000000E+00 0. -1.
         -2    1    5    5    0  503 -0.21630895776E+03  0.34385947446E+03  0.40053420969E+03  0.57048799857E+03  0.00000000000E+00 0.  1.
         -1    1    6    6    0  502  0.22253015153E+03 -0.26443447067E+03  0.16244137745E+03  0.38188016278E+03  0.00000000000E+00 0.  1.
<mgrwt>
<rscale>  0 0.10524011E+04</rscale>
<asrwt>0</asrwt>
<pdfrwt beam="1">  1        1 0.35939617E-01 0.10524011E+04</pdfrwt>
<pdfrwt beam="2">  1       -1 0.18234860E+00 0.10524011E+04</pdfrwt>
<totfact> 0.24323835E+01</totfact>
</mgrwt>
</event>
<event>
12    1  0.1536832E-007  0.1949222E+04  0.7818608E-02  0.8630736E-01
         -1   -1    0    0    0  501 -0.00000000000E+00  0.00000000000E+00  0.74902198058E+03  0.74902198058E+03  0.00000000000E+00 0.  1.
          1   -1    0    0  501    0  0.00000000000E+00 -0.00000000000E+00 -0.12681424514E+04  0.12681424514E+04  0.00000000000E+00 0. -1.
         23    2    1    2    0    0 -0.22627992942E+03 -0.10812854331E+03  0.55050174378E+03  0.61160105516E+03  0.90051609832E+02 0.  0.
        254    2    1    2    0    0  0.22627992942E+03  0.10812854331E+03 -0.10696222146E+04  0.14055633768E+04  0.87671109032E+03 0.  0.
        -24    2    4    4    0    0  0.46218847891E+03  0.15080981271E+03 -0.10408566556E+04  0.11516053357E+04  0.80314893083E+02 0.  0.
         24    2    4    4    0    0 -0.23590854949E+03 -0.42681269399E+02 -0.28765558949E+02  0.25395804106E+03  0.78693676750E+02 0.  0.
         13    1    3    3    0    0 -0.47029597982E+02 -0.35455502118E+02  0.58803642103E+02  0.83227063155E+02  0.00000000000E+00 0. -1.
        -13    1    3    3    0    0 -0.17925033144E+03 -0.72673041190E+02  0.49169810168E+03  0.52837399201E+03  0.00000000000E+00 0.  1.
          4    1    6    6  502    0 -0.12502535530E+03 -0.83957069463E+01 -0.51869237391E+02  0.13561801190E+03  0.00000000000E+00 0. -1.
          3    1    5    5  503    0  0.29698397672E+03  0.69493811722E+02 -0.57960443053E+03  0.65495814232E+03  0.00000000000E+00 0. -1.
         -4    1    5    5    0  503  0.16520450219E+03  0.81316000985E+02 -0.46125222508E+03  0.49664719339E+03  0.00000000000E+00 0.  1.
         -3    1    6    6    0  502 -0.11088319418E+03 -0.34285562453E+02  0.23103678442E+02  0.11834002916E+03  0.00000000000E+00 0.  1.
<mgrwt>
<rscale>  0 0.19492220E+04</rscale>
<asrwt>0</asrwt>
<pdfrwt beam="1">  1        1 0.19509884E+00 0.19492220E+04</pdfrwt>
<pdfrwt beam="2">  1       -1 0.11523415E+00 0.19492220E+04</pdfrwt>
<totfact> 0.60684388E+00</totfact>
</mgrwt>
</event>
<event>
12    1  0.1536832E-007  0.1966304E+04  0.7818608E-02  0.8622539E-01
          2   -1    0    0  501    0  0.00000000000E+00  0.00000000000E+00  0.15774223730E+04  0.15774223730E+04  0.00000000000E+00 0. -1.
         -2   -1    0    0    0  501 -0.00000000000E+00 -0.00000000000E+00 -0.61276386275E+03  0.61276386275E+03  0.00000000000E+00 0.  1.
         23    2    1    2    0    0 -0.56833537478E+03  0.25375618859E+03 -0.11924909514E+03  0.64030171679E+03  0.91480273058E+02 0.  0.
        254    2    1    2    0    0  0.56833537478E+03 -0.25375618859E+03  0.10839076054E+04  0.15498845190E+04  0.91645459443E+03 0.  0.
        -24    2    4    4    0    0  0.39635727658E+03 -0.23302686357E+03  0.18209352829E+02  0.46730517034E+03  0.81498048155E+02 0.  0.
         24    2    4    4    0    0  0.17197809820E+03 -0.20729325017E+02  0.10656982526E+04  0.10825793486E+04  0.79114533273E+02 0.  0.
         13    1    3    3    0    0 -0.45077457340E+03  0.18860952482E+03 -0.12948645460E+03  0.50550767631E+03  0.00000000000E+00 0. -1.
        -13    1    3    3    0    0 -0.11756080138E+03  0.65146663767E+02  0.10237359468E+02  0.13479404048E+03  0.00000000000E+00 0.  1.
          4    1    6    6  502    0  0.15904807446E+03  0.74407257223E+01  0.91031166870E+03  0.92413147796E+03  0.00000000000E+00 0. -1.
          1    1    5    5  503    0  0.32441789088E+03 -0.21612808003E+03  0.35438135953E+02  0.39142582487E+03  0.00000000000E+00 0. -1.
         -2    1    5    5    0  503  0.71939385705E+02 -0.16898783541E+02 -0.17228783124E+02  0.75879345468E+02  0.00000000000E+00 0.  1.
         -3    1    6    6    0  502  0.12930023734E+02 -0.28170050739E+02  0.15538658388E+03  0.15844787068E+03  0.00000000000E+00 0.  1.
<mgrwt>
<rscale>  0 0.19663036E+04</rscale>
<asrwt>0</asrwt>
<pdfrwt beam="1">  1        2 0.24268036E+00 0.19663036E+04</pdfrwt>
<pdfrwt beam="2">  1       -2 0.94271364E-01 0.19663036E+04</pdfrwt>
<totfact> 0.10150466E+01</totfact>
</mgrwt>
</event>
<event>
12    1  0.1536832E-007  0.2476990E+04  0.7818608E-02  0.8411229E-01
          2   -1    0    0  501    0  0.00000000000E+00  0.00000000000E+00  0.15123871458E+04  0.15123871458E+04  0.00000000000E+00 0. -1.
         -2   -1    0    0    0  501 -0.00000000000E+00 -0.00000000000E+00 -0.10142047318E+04  0.10142047318E+04  0.00000000000E+00 0.  1.
         23    2    1    2    0    0  0.56299952140E+03 -0.43398388467E+03  0.10306602983E+04  0.12553282112E+04  0.90982383164E+02 0.  0.
        254    2    1    2    0    0 -0.56299952140E+03  0.43398388467E+03 -0.53247788430E+03  0.12712636664E+04  0.90954281867E+03 0.  0.
        -24    2    4    4    0    0  0.77147921216E+01  0.47382649569E+03 -0.49958724195E+03  0.69297223291E+03  0.77794840628E+02 0.  0.
         24    2    4    4    0    0 -0.57071431352E+03 -0.39842611015E+02 -0.32890642347E+02  0.57829143349E+03  0.77697660136E+02 0.  0.
         13    1    3    3    0    0  0.22160986029E+03 -0.18717420834E+03  0.49667868468E+03  0.57518243216E+03  0.00000000000E+00 0. -1.
        -13    1    3    3    0    0  0.34138966111E+03 -0.24680967633E+03  0.53398161365E+03  0.68014577905E+03  0.00000000000E+00 0.  1.
          4    1    6    6  502    0 -0.57252846410E+03 -0.42350207736E+02 -0.31673658756E+02  0.57496574068E+03  0.00000000000E+00 0. -1.
          1    1    5    5  503    0  0.34352604334E+02  0.19063580711E+03 -0.17112919922E+03  0.25847111097E+03  0.00000000000E+00 0. -1.
         -2    1    5    5    0  503 -0.26637812212E+02  0.28319068857E+03 -0.32845804273E+03  0.43450112194E+03  0.00000000000E+00 0.  1.
         -3    1    6    6    0  502  0.18141505777E+01  0.25075967213E+01 -0.12169835910E+01  0.33256928145E+01  0.00000000000E+00 0.  1.
<mgrwt>
<rscale>  0 0.24769903E+04</rscale>
<asrwt>0</asrwt>
<pdfrwt beam="1">  1        2 0.23267495E+00 0.24769903E+04</pdfrwt>
<pdfrwt beam="2">  1       -2 0.15603150E+00 0.24769903E+04</pdfrwt>
<totfact> 0.30102820E+00</totfact>
</mgrwt>
</event>
<event>
12    1  0.1536832E-007  0.1537650E+04  0.7818608E-02  0.8859795E-01
          2   -1    0    0  501    0  0.00000000000E+00  0.00000000000E+00  0.10474811301E+04  0.10474811301E+04  0.00000000000E+00 0. -1.
         -2   -1    0    0    0  501 -0.00000000000E+00 -0.00000000000E+00 -0.56429840845E+03  0.56429840845E+03  0.00000000000E+00 0.  1.
         23    2    1    2    0    0  0.23612669502E+03 -0.32937533061E+03 -0.13843762442E+03  0.44276508674E+03  0.11239226691E+03 0.  0.
        254    2    1    2    0    0 -0.23612669502E+03  0.32937533061E+03  0.62162034604E+03  0.11690144518E+04  0.90329342371E+03 0.  0.
        -24    2    4    4    0    0 -0.26428097452E+03  0.46554174782E+03  0.77623456844E+03  0.94634949235E+03  0.80397163955E+02 0.  0.
         24    2    4    4    0    0  0.28154279504E+02 -0.13616641721E+03 -0.15461422240E+03  0.22266495942E+03  0.79625182937E+02 0.  0.
         13    1    3    3    0    0  0.61449386354E+02 -0.36926960397E+02  0.76881006399E+01  0.72102249472E+02  0.00000000000E+00 0. -1.
        -13    1    3    3    0    0  0.17467730866E+03 -0.29244837022E+03 -0.14612572506E+03  0.37066283726E+03  0.00000000000E+00 0.  1.
          2    1    6    6  502    0  0.49507649632E+02 -0.10585279858E+03 -0.14108119327E+03  0.18319313697E+03  0.00000000000E+00 0. -1.
          3    1    5    5  503    0 -0.16155448956E+03  0.25235920291E+03  0.49687990725E+03  0.58023672981E+03  0.00000000000E+00 0. -1.
         -4    1    5    5    0  503 -0.10272648496E+03  0.21318254491E+03  0.27935466119E+03  0.36611276254E+03  0.00000000000E+00 0.  1.
         -1    1    6    6    0  502 -0.21353370127E+02 -0.30313618632E+02 -0.13533029125E+02  0.39471822452E+02  0.00000000000E+00 0.  1.
<mgrwt>
<rscale>  0 0.15376501E+04</rscale>
<asrwt>0</asrwt>
<pdfrwt beam="1">  1        2 0.16115094E+00 0.15376501E+04</pdfrwt>
<pdfrwt beam="2">  1       -2 0.86815139E-01 0.15376501E+04</pdfrwt>
<totfact> 0.25994295E+01</totfact>
</mgrwt>
</event>
<event>
12    1  0.1536832E-007  0.1852758E+04  0.7818608E-02  0.8678736E-01
          1   -1    0    0  501    0  0.00000000000E+00  0.00000000000E+00  0.13792279728E+04  0.13792279728E+04  0.00000000000E+00 0. -1.
         -1   -1    0    0    0  501 -0.00000000000E+00 -0.00000000000E+00 -0.62221639343E+03  0.62221639343E+03  0.00000000000E+00 0.  1.
         23    2    1    2    0    0  0.46288397807E+03  0.64688277758E+02 -0.24369895841E+03  0.53490876537E+03  0.91060718758E+02 0.  0.
        254    2    1    2    0    0 -0.46288397807E+03 -0.64688277758E+02  0.10007105377E+04  0.14665356008E+04  0.96481031176E+03 0.  0.
        -24    2    4    4    0    0  0.21063982291E+03  0.23041244949E+03  0.39594478592E+03  0.51087086274E+03  0.82205431855E+02 0.  0.
         24    2    4    4    0    0 -0.67352380099E+03 -0.29510072724E+03  0.60476575182E+03  0.95566473807E+03  0.82672409586E+02 0.  0.
         13    1    3    3    0    0  0.41425403309E+03  0.28930834242E+02 -0.22110082686E+03  0.47045613264E+03  0.00000000000E+00 0.  1.
        -13    1    3    3    0    0  0.48629944980E+02  0.35757443516E+02 -0.22598131555E+02  0.64452632726E+02  0.00000000000E+00 0. -1.
          2    1    6    6  502    0 -0.66750873924E+03 -0.29619184606E+03  0.58721576450E+03  0.93708050919E+03  0.00000000000E+00 0. -1.
          3    1    5    5  503    0  0.21004398704E+03  0.23512347718E+03  0.39592704870E+03  0.50612227169E+03  0.00000000000E+00 0. -1.
         -4    1    5    5    0  503  0.59583587143E+00 -0.47110276964E+01  0.17737224413E-01  0.47485910490E+01  0.00000000000E+00 0.  1.
         -1    1    6    6    0  502 -0.60150617506E+01  0.10911188195E+01  0.17549987322E+02  0.18584228882E+02  0.00000000000E+00 0.  1.
<mgrwt>
<rscale>  0 0.18527582E+04</rscale>
<asrwt>0</asrwt>
<pdfrwt beam="1">  1        1 0.21218892E+00 0.18527582E+04</pdfrwt>
<pdfrwt beam="2">  1       -1 0.95725599E-01 0.18527582E+04</pdfrwt>
<totfact> 0.78568246E+00</totfact>
</mgrwt>
</event>
<event>
12    1  0.2632715E-007  0.1675131E+04  0.7818608E-02  0.8775676E-01
         -1   -1    0    0    0  501 -0.00000000000E+00  0.00000000000E+00  0.94052367238E+03  0.94052367238E+03  0.00000000000E+00 0.  1.
          1   -1    0    0  501    0  0.00000000000E+00 -0.00000000000E+00 -0.74587827295E+03  0.74587827295E+03  0.00000000000E+00 0. -1.
         23    2    1    2    0    0 -0.40517207177E+03 -0.23165633345E+03 -0.30604860521E+03  0.56528510393E+03  0.89735363137E+02 0.  0.
        254    2    1    2    0    0  0.40517207177E+03  0.23165633345E+03  0.50069400465E+03  0.11211168414E+04  0.88790732693E+03 0.  0.
        -24    2    4    4    0    0  0.28411186926E+02  0.23987616057E+03  0.65756435115E+03  0.70524524508E+03  0.81438393047E+02 0.  0.
         24    2    4    4    0    0  0.37676088485E+03 -0.82198271225E+01 -0.15687034650E+03  0.41587159632E+03  0.79527033810E+02 0.  0.
         11    1    3    3    0    0 -0.34931801595E+03 -0.23022918508E+03 -0.25743475971E+03  0.49122419468E+03  0.00000000000E+00 0. -1.
        -11    1    3    3    0    0 -0.55854055820E+02 -0.14271483687E+01 -0.48613845500E+02  0.74060909246E+02  0.00000000000E+00 0.  1.
          4    1    6    6  502    0  0.30192468074E+02 -0.29913434729E+00  0.90922561185E+01  0.31533216313E+02  0.00000000000E+00 0. -1.
          3    1    5    5  503    0  0.18315847887E+02  0.28922323755E+02  0.40448024284E+02  0.52990695067E+02  0.00000000000E+00 0. -1.
         -4    1    5    5    0  503  0.10095339039E+02  0.21095383682E+03  0.61711632686E+03  0.65225455002E+03  0.00000000000E+00 0.  1.
         -3    1    6    6    0  502  0.34656841677E+03 -0.79206927752E+01 -0.16596260262E+03  0.38433838001E+03  0.00000000000E+00 0.  1.
<mgrwt>
<rscale>  0 0.16751312E+04</rscale>
<asrwt>0</asrwt>
<pdfrwt beam="1">  1        1 0.11475050E+00 0.16751312E+04</pdfrwt>
<pdfrwt beam="2">  1       -1 0.14469595E+00 0.16751312E+04</pdfrwt>
<totfact> 0.90523790E+00</totfact>
</mgrwt>
</event>
<event>
12    1  0.1806296E-007  0.2076445E+04  0.7818608E-02  0.8571691E-01
         -2   -1    0    0    0  501 -0.00000000000E+00  0.00000000000E+00  0.13599262510E+04  0.13599262510E+04  0.00000000000E+00 0.  1.
          2   -1    0    0  501    0  0.00000000000E+00 -0.00000000000E+00 -0.79262104577E+03  0.79262104577E+03  0.00000000000E+00 0. -1.
         23    2    1    2    0    0 -0.33184695827E+03 -0.34976386522E+03 -0.48460113299E+03  0.68951209759E+03  0.90174882933E+02 0.  0.
        254    2    1    2    0    0  0.33184695827E+03  0.34976386522E+03  0.10519063382E+04  0.14630351991E+04  0.89526972722E+03 0.  0.
        -24    2    4    4    0    0 -0.82985001248E+02  0.43963754548E+03  0.17964890380E+03  0.48894611654E+03  0.81405739451E+02 0.  0.
         24    2    4    4    0    0  0.41483195952E+03 -0.89873680257E+02  0.87225743440E+03  0.97408908261E+03  0.88620967975E+02 0.  0.
         13    1    3    3    0    0 -0.33099858086E+03 -0.33998479354E+03 -0.45148582933E+03  0.65497265169E+03  0.00000000000E+00 0. -1.
        -13    1    3    3    0    0 -0.84837740247E+00 -0.97790716762E+01 -0.33115303660E+02  0.34539445907E+02  0.00000000000E+00 0.  1.
          2    1    6    6  502    0  0.30906976174E+03 -0.85032930513E+02  0.72517962523E+03  0.79286834073E+03  0.00000000000E+00 0. -1.
          3    1    5    5  503    0 -0.79282977879E+02  0.41393411580E+03  0.14512317629E+03  0.44574429789E+03  0.00000000000E+00 0. -1.
         -4    1    5    5    0  503 -0.37020233691E+01  0.25703429679E+02  0.34525727518E+02  0.43201818653E+02  0.00000000000E+00 0.  1.
         -1    1    6    6    0  502  0.10576219778E+03 -0.48407497447E+01  0.14707780917E+03  0.18122074188E+03  0.00000000000E+00 0.  1.
<mgrwt>
<rscale>  0 0.20764452E+04</rscale>
<asrwt>0</asrwt>
<pdfrwt beam="1">  1        2 0.12194170E+00 0.20764452E+04</pdfrwt>
<pdfrwt beam="2">  1       -2 0.20921942E+00 0.20764452E+04</pdfrwt>
<totfact> 0.37282565E+00</totfact>
</mgrwt>
</event>
<event>
12    1  0.1536832E-007  0.1687110E+04  0.7818608E-02  0.8768750E-01
         -1   -1    0    0    0  501 -0.00000000000E+00  0.00000000000E+00  0.98946482756E+03  0.98946482756E+03  0.00000000000E+00 0.  1.
          1   -1    0    0  501    0  0.00000000000E+00 -0.00000000000E+00 -0.71916147251E+03  0.71916147251E+03  0.00000000000E+00 0. -1.
         23    2    1    2    0    0 -0.27427552959E+03 -0.38352245205E+03 -0.27248944209E+03  0.55219038498E+03  0.91362945722E+02 0.  0.
        254    2    1    2    0    0  0.27427552959E+03  0.38352245205E+03  0.54279279715E+03  0.11564359151E+04  0.90576126420E+03 0.  0.
        -24    2    4    4    0    0  0.25046984373E+03 -0.25804076546E+03  0.25550328620E+03  0.44869424577E+03  0.82002546756E+02 0.  0.
         24    2    4    4    0    0  0.23805685865E+02  0.64156321751E+03  0.28728951095E+03  0.70774166932E+03  0.78695200930E+02 0.  0.
         11    1    3    3    0    0 -0.17453933923E+02 -0.35681308996E+02  0.24573908525E+01  0.39797416886E+02  0.00000000000E+00 0.  1.
        -11    1    3    3    0    0 -0.25682159567E+03 -0.34784114305E+03 -0.27494683295E+03  0.51239296809E+03  0.00000000000E+00 0. -1.
          4    1    6    6  502    0  0.43519686908E+01  0.19591483711E+01  0.84991575740E+01  0.97474906152E+01  0.00000000000E+00 0. -1.
          3    1    5    5  503    0  0.71823170478E+02 -0.33402996941E+02  0.78333370290E+02  0.11140217647E+03  0.00000000000E+00 0. -1.
         -2    1    5    5    0  503  0.17864667325E+03 -0.22463776852E+03  0.17716991591E+03  0.33729206930E+03  0.00000000000E+00 0.  1.
         -3    1    6    6    0  502  0.19453717175E+02  0.63960406914E+03  0.27879035338E+03  0.69799417871E+03  0.00000000000E+00 0.  1.
<mgrwt>
<rscale>  0 0.16871099E+04</rscale>
<asrwt>0</asrwt>
<pdfrwt beam="1">  1        1 0.11064023E+00 0.16871099E+04</pdfrwt>
<pdfrwt beam="2">  1       -1 0.15222536E+00 0.16871099E+04</pdfrwt>
<totfact> 0.83492414E+00</totfact>
</mgrwt>
</event>
<event>
12    1  0.1536832E-007  0.2192539E+04  0.7818608E-02  0.8521540E-01
          2   -1    0    0  501    0  0.00000000000E+00  0.00000000000E+00  0.12632937285E+04  0.12632937285E+04  0.00000000000E+00 0. -1.
         -2   -1    0    0    0  501 -0.00000000000E+00 -0.00000000000E+00 -0.95132791942E+03  0.95132791942E+03  0.00000000000E+00 0.  1.
         23    2    1    2    0    0 -0.36693707181E+03  0.69660438203E+03  0.58298998810E+03  0.98392488624E+03  0.91270892442E+02 0.  0.
        254    2    1    2    0    0  0.36693707181E+03 -0.69660438203E+03 -0.27102417905E+03  0.12306967617E+04  0.90623392886E+03 0.  0.
        -24    2    4    4    0    0  0.56104890928E+03 -0.73524665842E+03 -0.36478598805E+03  0.99722023737E+03  0.77561958601E+02 0.  0.
         24    2    4    4    0    0 -0.19411183747E+03  0.38642276396E+02  0.93761809002E+02  0.23347652429E+03  0.80915879740E+02 0.  0.
         11    1    3    3    0    0 -0.83482447635E+02  0.19519244151E+03  0.11285440966E+03  0.24042779803E+03  0.00000000000E+00 0.  1.
        -11    1    3    3    0    0 -0.28345462417E+03  0.50141194051E+03  0.47013557844E+03  0.74349708821E+03  0.00000000000E+00 0. -1.
          2    1    6    6  502    0 -0.19906642630E+03  0.35285188941E+02  0.78135372797E+02  0.21674321932E+03  0.00000000000E+00 0. -1.
          3    1    5    5  503    0  0.35544902921E+03 -0.48857601423E+03 -0.20105329423E+03  0.63676758803E+03  0.00000000000E+00 0. -1.
         -4    1    5    5    0  503  0.20559988007E+03 -0.24667064419E+03 -0.16373269382E+03  0.36045264934E+03  0.00000000000E+00 0.  1.
         -1    1    6    6    0  502  0.49545888294E+01  0.33570874544E+01  0.15626436205E+02  0.16733304967E+02  0.00000000000E+00 0.  1.
<mgrwt>
<rscale>  0 0.21925388E+04</rscale>
<asrwt>0</asrwt>
<pdfrwt beam="1">  1        2 0.19435288E+00 0.21925388E+04</pdfrwt>
<pdfrwt beam="2">  1       -2 0.14635814E+00 0.21925388E+04</pdfrwt>
<totfact> 0.50805634E+00</totfact>
</mgrwt>
</event>
<event>
12    1  0.1536832E-007  0.2101237E+04  0.7818608E-02  0.8560699E-01
          2   -1    0    0  501    0  0.00000000000E+00  0.00000000000E+00  0.12251864463E+04  0.12251864463E+04  0.00000000000E+00 0. -1.
         -2   -1    0    0    0  501 -0.00000000000E+00 -0.00000000000E+00 -0.90092355773E+03  0.90092355773E+03  0.00000000000E+00 0.  1.
         23    2    1    2    0    0 -0.36954940931E+03  0.31845227238E+03 -0.57810390408E+03  0.76183666105E+03  0.90622064169E+02 0.  0.
        254    2    1    2    0    0  0.36954940931E+03 -0.31845227238E+03  0.90236679265E+03  0.13642733430E+04  0.89944277761E+03 0.  0.
        -24    2    4    4    0    0  0.39649254981E+03  0.14074063660E+03  0.10606949921E+03  0.44114599592E+03  0.79654141217E+02 0.  0.
         24    2    4    4    0    0 -0.26943140501E+02 -0.45919290897E+03  0.79629729345E+03  0.92312734706E+03  0.80564625467E+02 0.  0.
         13    1    3    3    0    0 -0.11493913060E+02  0.37576293412E+02 -0.30002971602E+02  0.49439520315E+02  0.00000000000E+00 0. -1.
        -13    1    3    3    0    0 -0.35805549625E+03  0.28087597896E+03 -0.54810093248E+03  0.71239714074E+03  0.00000000000E+00 0.  1.
          2    1    6    6  502    0  0.26300931086E+01 -0.23470708122E+02  0.87117998012E+02  0.90262600822E+02  0.00000000000E+00 0. -1.
          3    1    5    5  503    0  0.12204057921E+03  0.32097493794E+02  0.68520977914E+02  0.14359413809E+03  0.00000000000E+00 0. -1.
         -4    1    5    5    0  503  0.27445197060E+03  0.10864314280E+03  0.37548521292E+02  0.29755185783E+03  0.00000000000E+00 0.  1.
         -1    1    6    6    0  502 -0.29573233610E+02 -0.43572220085E+03  0.70917929543E+03  0.83286474624E+03  0.00000000000E+00 0.  1.
<mgrwt>
<rscale>  0 0.21012371E+04</rscale>
<asrwt>0</asrwt>
<pdfrwt beam="1">  1        2 0.18849022E+00 0.21012371E+04</pdfrwt>
<pdfrwt beam="2">  1       -2 0.13860362E+00 0.21012371E+04</pdfrwt>
<totfact> 0.62158612E+00</totfact>
</mgrwt>
</event>
<event>
12    1  0.1536832E-007  0.1920494E+04  0.7818608E-02  0.8644722E-01
         -1   -1    0    0    0  501 -0.00000000000E+00  0.00000000000E+00  0.12213133946E+04  0.12213133946E+04  0.00000000000E+00 0.  1.
          1   -1    0    0  501    0  0.00000000000E+00 -0.00000000000E+00 -0.75498548552E+03  0.75498548552E+03  0.00000000000E+00 0. -1.
         23    2    1    2    0    0 -0.39709254664E+02 -0.73971224293E+03  0.64897288377E+02  0.74934763802E+03  0.92515930098E+02 0.  0.
        254    2    1    2    0    0  0.39709254664E+02  0.73971224293E+03  0.40143062073E+03  0.12269512421E+04  0.89191467082E+03 0.  0.
        -24    2    4    4    0    0  0.41335032258E+03  0.49963456078E+03  0.50663800122E+02  0.65531815909E+03  0.79886704089E+02 0.  0.
         24    2    4    4    0    0 -0.37364106791E+03  0.24007768215E+03  0.35076682061E+03  0.57163308303E+03  0.80511353700E+02 0.  0.
         13    1    3    3    0    0 -0.10216917486E+02 -0.60857171524E+03  0.80788276701E+02  0.61399565442E+03  0.00000000000E+00 0. -1.
        -13    1    3    3    0    0 -0.29492337179E+02 -0.13114052770E+03 -0.15890988324E+02  0.13535198361E+03  0.00000000000E+00 0.  1.
          4    1    6    6  502    0 -0.27236418417E+02  0.46320871727E+02  0.52701205467E+02  0.75265282191E+02  0.00000000000E+00 0. -1.
          1    1    5    5  503    0  0.25882418065E+02  0.70678306409E+02  0.33988369947E+01  0.75345037360E+02  0.00000000000E+00 0. -1.
         -2    1    5    5    0  503  0.38746790451E+03  0.42895625437E+03  0.47264963127E+02  0.57997312173E+03  0.00000000000E+00 0.  1.
         -3    1    6    6    0  502 -0.34640464950E+03  0.19375681043E+03  0.29806561514E+03  0.49636780084E+03  0.00000000000E+00 0.  1.
<mgrwt>
<rscale>  0 0.19204936E+04</rscale>
<asrwt>0</asrwt>
<pdfrwt beam="1">  1        1 0.11615161E+00 0.19204936E+04</pdfrwt>
<pdfrwt beam="2">  1       -1 0.18789437E+00 0.19204936E+04</pdfrwt>
<totfact> 0.41389166E+00</totfact>
</mgrwt>
</event>
<event>
12    1  0.1536832E-007  0.1298701E+04  0.7818608E-02  0.9030596E-01
         -2   -1    0    0    0  501 -0.00000000000E+00  0.00000000000E+00  0.36731991906E+03  0.36731991906E+03  0.00000000000E+00 0.  1.
          2   -1    0    0  501    0  0.00000000000E+00 -0.00000000000E+00 -0.11479268010E+04  0.11479268010E+04  0.00000000000E+00 0. -1.
         23    2    1    2    0    0  0.24182320397E+03  0.39971491330E+02  0.54282326818E+02  0.26688932979E+03  0.90593384167E+02 0.  0.
        254    2    1    2    0    0 -0.24182320397E+03 -0.39971491330E+02 -0.83488920872E+03  0.12483573902E+04  0.89514244722E+03 0.  0.
        -24    2    4    4    0    0  0.22281456603E+03 -0.80445367724E+02 -0.71884774402E+03  0.76105854724E+03  0.79688425963E+02 0.  0.
         24    2    4    4    0    0 -0.46463776999E+03  0.40473876394E+02 -0.11604146470E+03  0.48729884299E+03  0.80424802623E+02 0.  0.
         13    1    3    3    0    0  0.55077206472E+02 -0.12079764063E+00  0.52189604244E+02  0.75876663448E+02  0.00000000000E+00 0. -1.
        -13    1    3    3    0    0  0.18674599749E+03  0.40092288971E+02  0.20927225739E+01  0.19101266634E+03  0.00000000000E+00 0.  1.
          4    1    6    6  502    0  0.21830139910E+01 -0.53530273944E+00  0.30459068211E+01  0.37854520827E+01  0.00000000000E+00 0. -1.
          1    1    5    5  503    0  0.36903248254E+02 -0.33136802409E+02 -0.24275295686E+03  0.24776782574E+03  0.00000000000E+00 0. -1.
         -2    1    5    5    0  503  0.18591131777E+03 -0.47308565316E+02 -0.47609478716E+03  0.51329072151E+03  0.00000000000E+00 0.  1.
         -3    1    6    6    0  502 -0.46682078398E+03  0.41009179134E+02 -0.11908737152E+03  0.48351339091E+03  0.00000000000E+00 0.  1.
<mgrwt>
<rscale>  0 0.12987015E+04</rscale>
<asrwt>0</asrwt>
<pdfrwt beam="1">  1        2 0.17660412E+00 0.12987015E+04</pdfrwt>
<pdfrwt beam="2">  1       -2 0.56510757E-01 0.12987015E+04</pdfrwt>
<totfact> 0.58638103E+01</totfact>
</mgrwt>
</event>
<event>
12    1  0.1536832E-007  0.1912506E+04  0.7818608E-02  0.8648656E-01
          3   -1    0    0  501    0  0.00000000000E+00  0.00000000000E+00  0.14671443234E+04  0.14671443234E+04  0.00000000000E+00 0. -1.
         -3   -1    0    0    0  501 -0.00000000000E+00 -0.00000000000E+00 -0.62326528910E+03  0.62326528910E+03  0.00000000000E+00 0.  1.
         23    2    1    2    0    0  0.25762063452E+03  0.59085477994E+03  0.72351951514E+03  0.97354617332E+03  0.93988831737E+02 0.  0.
        254    2    1    2    0    0 -0.25762063452E+03 -0.59085477994E+03  0.12035951918E+03  0.11168634392E+04  0.90411269521E+03 0.  0.
        -24    2    4    4    0    0 -0.18739856251E+03  0.15055647269E+03 -0.17937535814E+03  0.31014711741E+03  0.78931886010E+02 0.  0.
         24    2    4    4    0    0 -0.70222072012E+02 -0.74141125262E+03  0.29973487733E+03  0.80671632179E+03  0.79551506834E+02 0.  0.
         11    1    3    3    0    0  0.14901024604E+03  0.29583525220E+03  0.30641162784E+03  0.45123235206E+03  0.00000000000E+00 0.  1.
        -11    1    3    3    0    0  0.10861038848E+03  0.29501952774E+03  0.41710788730E+03  0.52231382126E+03  0.00000000000E+00 0. -1.
          2    1    6    6  502    0 -0.55859214804E+02 -0.56223523671E+03  0.26315591955E+03  0.62328143825E+03  0.00000000000E+00 0. -1.
          3    1    5    5  503    0 -0.18298032687E+02 -0.64581135272E+01 -0.28476612227E+01  0.19612098434E+02  0.00000000000E+00 0. -1.
         -4    1    5    5    0  503 -0.16910052982E+03  0.15701458621E+03 -0.17652769692E+03  0.29053501897E+03  0.00000000000E+00 0.  1.
         -1    1    6    6    0  502 -0.14362857208E+02 -0.17917601591E+03  0.36578957780E+02  0.18343488354E+03  0.00000000000E+00 0.  1.
<mgrwt>
<rscale>  0 0.19125063E+04</rscale>
<asrwt>0</asrwt>
<pdfrwt beam="1">  1        3 0.22571451E+00 0.19125063E+04</pdfrwt>
<pdfrwt beam="2">  1       -3 0.95886968E-01 0.19125063E+04</pdfrwt>
<totfact> 0.24161364E-01</totfact>
</mgrwt>
</event>
<event>
12    1  0.1536832E-007  0.2571657E+04  0.7818608E-02  0.8377893E-01
         -1   -1    0    0    0  501 -0.00000000000E+00  0.00000000000E+00  0.49846013866E+03  0.49846013866E+03  0.00000000000E+00 0.  1.
          1   -1    0    0  501    0  0.00000000000E+00 -0.00000000000E+00 -0.33169247652E+04  0.33169247652E+04  0.00000000000E+00 0. -1.
         23    2    1    2    0    0 -0.55705185661E+03  0.64702696015E+02  0.21322160064E+03  0.60689757903E+03  0.91476831131E+02 0.  0.
        254    2    1    2    0    0  0.55705185661E+03 -0.64702696015E+02 -0.30316862272E+04  0.32084873248E+04  0.88813080323E+03 0.  0.
        -24    2    4    4    0    0  0.57868936783E+03  0.76518335147E+02 -0.93339179836E+03  0.11038206270E+04  0.80394572185E+02 0.  0.
         24    2    4    4    0    0 -0.21637511217E+02 -0.14122103116E+03 -0.20982944288E+04  0.21046666978E+04  0.79817526215E+02 0.  0.
         13    1    3    3    0    0 -0.12600593233E+03 -0.13071163120E+02  0.20346057973E+02  0.12830554299E+03  0.00000000000E+00 0. -1.
        -13    1    3    3    0    0 -0.43104592428E+03  0.77773859135E+02  0.19287554267E+03  0.47859203604E+03  0.00000000000E+00 0.  1.
          2    1    6    6  502    0 -0.94662674692E+01 -0.41585549369E+02 -0.12042871955E+04  0.12050421641E+04  0.00000000000E+00 0. -1.
          3    1    5    5  503    0  0.86424372966E+02 -0.16764383253E+02 -0.13007525261E+03  0.15706619028E+03  0.00000000000E+00 0. -1.
         -4    1    5    5    0  503  0.49226499486E+03  0.93282718400E+02 -0.80331654575E+03  0.94675443669E+03  0.00000000000E+00 0.  1.
         -1    1    6    6    0  502 -0.12171243748E+02 -0.99635481792E+02 -0.89400723332E+03  0.89962453370E+03  0.00000000000E+00 0.  1.
<mgrwt>
<rscale>  0 0.25716569E+04</rscale>
<asrwt>0</asrwt>
<pdfrwt beam="1">  1        1 0.51029613E+00 0.25716569E+04</pdfrwt>
<pdfrwt beam="2">  1       -1 0.76686173E-01 0.25716569E+04</pdfrwt>
<totfact> 0.52234802E-01</totfact>
</mgrwt>
</event>
<event>
12    1  0.1536832E-007  0.1678361E+04  0.7818608E-02  0.8773803E-01
          1   -1    0    0  501    0  0.00000000000E+00  0.00000000000E+00  0.11137766486E+04  0.11137766486E+04  0.00000000000E+00 0. -1.
         -1   -1    0    0    0  501 -0.00000000000E+00 -0.00000000000E+00 -0.63228457459E+03  0.63228457459E+03  0.00000000000E+00 0.  1.
         23    2    1    2    0    0  0.19976766538E+02  0.57636226376E+03  0.29589613046E+03  0.65462075996E+03  0.91549380437E+02 0.  0.
        254    2    1    2    0    0 -0.19976766538E+02 -0.57636226376E+03  0.18559594356E+03  0.10914404632E+04  0.90785676197E+03 0.  0.
        -24    2    4    4    0    0  0.37045067745E+03 -0.50813256214E+03 -0.27242715291E+02  0.63470531667E+03  0.81708435000E+02 0.  0.
         24    2    4    4    0    0 -0.39042744399E+03 -0.68229701619E+02  0.21283865885E+03  0.45673514657E+03  0.78853143333E+02 0.  0.
         13    1    3    3    0    0  0.39274577665E+02  0.50197058650E+03  0.23070925338E+03  0.55384449240E+03  0.00000000000E+00 0. -1.
        -13    1    3    3    0    0 -0.19297811127E+02  0.74391677254E+02  0.65186877085E+02  0.10077626756E+03  0.00000000000E+00 0.  1.
          2    1    6    6  502    0 -0.30653324282E+03 -0.21076526652E+02  0.17266919126E+03  0.35245070370E+03  0.00000000000E+00 0. -1.
          1    1    5    5  503    0  0.17402928837E+03 -0.17131288968E+03 -0.12249089798E+02  0.24450836301E+03  0.00000000000E+00 0. -1.
         -2    1    5    5    0  503  0.19642138907E+03 -0.33681967246E+03 -0.14993625493E+02  0.39019695366E+03  0.00000000000E+00 0.  1.
         -1    1    6    6    0  502 -0.83894201170E+02 -0.47153174966E+02  0.40169467596E+02  0.10428444288E+03  0.00000000000E+00 0.  1.
<mgrwt>
<rscale>  0 0.16783609E+04</rscale>
<asrwt>0</asrwt>
<pdfrwt beam="1">  1        1 0.17135025E+00 0.16783609E+04</pdfrwt>
<pdfrwt beam="2">  1       -1 0.97274550E-01 0.16783609E+04</pdfrwt>
<totfact> 0.11981532E+01</totfact>
</mgrwt>
</event>
<event>
12    1  0.1536832E-007  0.1395371E+04  0.7818608E-02  0.8957176E-01
         -1   -1    0    0    0  501 -0.00000000000E+00  0.00000000000E+00  0.12869160989E+04  0.12869160989E+04  0.00000000000E+00 0.  1.
          1   -1    0    0  501    0  0.00000000000E+00 -0.00000000000E+00 -0.37824124196E+03  0.37824124196E+03  0.00000000000E+00 0. -1.
         23    2    1    2    0    0  0.21260714534E+03 -0.32404310703E+03  0.38166363815E+03  0.55169896883E+03  0.92189403219E+02 0.  0.
        254    2    1    2    0    0 -0.21260714534E+03  0.32404310703E+03  0.52701121883E+03  0.11134583721E+04  0.90102330053E+03 0.  0.
        -24    2    4    4    0    0 -0.45698442562E+03  0.36249430834E+03  0.60270419348E+03  0.84249422994E+03  0.79418472757E+02 0.  0.
         24    2    4    4    0    0  0.24437728028E+03 -0.38451201317E+02 -0.75692974642E+02  0.27096414213E+03  0.80581573037E+02 0.  0.
         13    1    3    3    0    0  0.91167256261E+02 -0.12213287331E+03  0.90906374437E+02  0.17745950600E+03  0.00000000000E+00 0.  1.
        -13    1    3    3    0    0  0.12143988908E+03 -0.20191023371E+03  0.29075726371E+03  0.37423946283E+03  0.00000000000E+00 0. -1.
          4    1    6    6  502    0  0.20119791369E+03 -0.20638022292E+02 -0.91038732576E+02  0.22179851051E+03  0.00000000000E+00 0. -1.
          1    1    5    5  503    0 -0.37995120398E+03  0.31428923634E+03  0.54445360061E+03  0.73455453488E+03  0.00000000000E+00 0. -1.
         -2    1    5    5    0  503 -0.77033221635E+02  0.48205071999E+02  0.58250592867E+02  0.10793969507E+03  0.00000000000E+00 0.  1.
         -1    1    6    6    0  502  0.43179366589E+02 -0.17813179024E+02  0.15345757934E+02  0.49165631620E+02  0.00000000000E+00 0.  1.
<mgrwt>
<rscale>  0 0.13953706E+04</rscale>
<asrwt>0</asrwt>
<pdfrwt beam="1">  1        1 0.58190961E-01 0.13953706E+04</pdfrwt>
<pdfrwt beam="2">  1       -1 0.19798709E+00 0.13953706E+04</pdfrwt>
<totfact> 0.97966697E+00</totfact>
</mgrwt>
</event>
<event>
12    1  0.1536832E-007  0.2550032E+04  0.7818608E-02  0.8385375E-01
          1   -1    0    0  501    0  0.00000000000E+00  0.00000000000E+00  0.26814755464E+04  0.26814755464E+04  0.00000000000E+00 0. -1.
         -1   -1    0    0    0  501 -0.00000000000E+00 -0.00000000000E+00 -0.60625794097E+03  0.60625794097E+03  0.00000000000E+00 0.  1.
         23    2    1    2    0    0 -0.31949526719E+03 -0.10708046463E+04  0.95911904354E+03  0.14754307886E+04  0.91032170302E+02 0.  0.
        254    2    1    2    0    0  0.31949526719E+03  0.10708046463E+04  0.11160985619E+04  0.18123026987E+04  0.88885615010E+03 0.  0.
        -24    2    4    4    0    0 -0.79602951952E+02  0.22300645231E+03  0.77100245823E+03  0.81054819694E+03  0.80467889471E+02 0.  0.
         24    2    4    4    0    0  0.39909821914E+03  0.84779819402E+03  0.34509610365E+03  0.10017545018E+04  0.79872365438E+02 0.  0.
         11    1    3    3    0    0 -0.20631816533E+03 -0.62120915545E+03  0.61378967779E+03  0.89733258535E+03  0.00000000000E+00 0. -1.
        -11    1    3    3    0    0 -0.11317710186E+03 -0.44959549088E+03  0.34532936575E+03  0.57809820330E+03  0.00000000000E+00 0.  1.
          4    1    6    6  502    0  0.32038458764E+03  0.63672587625E+03  0.29220473994E+03  0.77035688841E+03  0.00000000000E+00 0. -1.
          1    1    5    5  503    0 -0.58489674286E+02  0.21961898614E+03  0.72562463438E+03  0.76038454159E+03  0.00000000000E+00 0. -1.
         -2    1    5    5    0  503 -0.21113277665E+02  0.33874661766E+01  0.45377823846E+02  0.50163655348E+02  0.00000000000E+00 0.  1.
         -3    1    6    6    0  502  0.78713631508E+02  0.21107231778E+03  0.52891363715E+02  0.23139761337E+03  0.00000000000E+00 0.  1.
<mgrwt>
<rscale>  0 0.25500320E+04</rscale>
<asrwt>0</asrwt>
<pdfrwt beam="1">  1        1 0.41253469E+00 0.25500320E+04</pdfrwt>
<pdfrwt beam="2">  1       -1 0.93270454E-01 0.25500320E+04</pdfrwt>
<totfact> 0.99788648E-01</totfact>
</mgrwt>
</event>
<event>
12    1  0.1536832E-007  0.1230598E+04  0.7818608E-02  0.9086488E-01
         -1   -1    0    0    0  501 -0.00000000000E+00  0.00000000000E+00  0.36254627879E+03  0.36254627879E+03  0.00000000000E+00 0.  1.
          1   -1    0    0  501    0  0.00000000000E+00 -0.00000000000E+00 -0.10442606329E+04  0.10442606329E+04  0.00000000000E+00 0. -1.
         23    2    1    2    0    0  0.13863401638E+03  0.88222475238E+02 -0.38990879669E+03  0.43309344811E+03  0.92403838819E+02 0.  0.
        254    2    1    2    0    0 -0.13863401638E+03 -0.88222475238E+02 -0.29180555740E+03  0.97371346355E+03  0.91431112327E+03 0.  0.
        -24    2    4    4    0    0 -0.12425169885E+03  0.35660676989E+03  0.70906485572E+02  0.39359734936E+03  0.85347939221E+02 0.  0.
         24    2    4    4    0    0 -0.14382317533E+02 -0.44482924513E+03 -0.36271204297E+03  0.58011611419E+03  0.83034760516E+02 0.  0.
         11    1    3    3    0    0  0.10300401529E+03  0.46625805527E+02 -0.34241422498E+03  0.36059852243E+03  0.00000000000E+00 0. -1.
        -11    1    3    3    0    0  0.35630001087E+02  0.41596669711E+02 -0.47494571709E+02  0.72494925687E+02  0.00000000000E+00 0.  1.
          4    1    6    6  502    0  0.20970871311E+02 -0.36256895338E+03 -0.28826200611E+03  0.46367122788E+03  0.00000000000E+00 0. -1.
          1    1    5    5  503    0 -0.45662303545E+02  0.22694087249E+03  0.70456015728E+02  0.24197366742E+03  0.00000000000E+00 0. -1.
         -2    1    5    5    0  503 -0.78589395302E+02  0.12966589740E+03  0.45046984447E+00  0.15162368194E+03  0.00000000000E+00 0.  1.
         -3    1    6    6    0  502 -0.35353188844E+02 -0.82260291742E+02 -0.74450036861E+02  0.11644488631E+03  0.00000000000E+00 0.  1.
<mgrwt>
<rscale>  0 0.12305979E+04</rscale>
<asrwt>0</asrwt>
<pdfrwt beam="1">  1        1 0.16065548E+00 0.12305979E+04</pdfrwt>
<pdfrwt beam="2">  1       -1 0.55776352E-01 0.12305979E+04</pdfrwt>
<totfact> 0.44881947E+01</totfact>
</mgrwt>
</event>
<event>
12    1  0.1536832E-007  0.3004482E+04  0.7818608E-02  0.8242452E-01
          2   -1    0    0  501    0  0.00000000000E+00  0.00000000000E+00  0.15202026599E+04  0.15202026599E+04  0.00000000000E+00 0. -1.
         -2   -1    0    0    0  501 -0.00000000000E+00 -0.00000000000E+00 -0.14844916558E+04  0.14844916558E+04  0.00000000000E+00 0.  1.
         23    2    1    2    0    0 -0.65955056275E+03 -0.35849123383E+03 -0.11278078378E+04  0.13574562127E+04  0.84934921888E+02 0.  0.
        254    2    1    2    0    0  0.65955056275E+03  0.35849123383E+03  0.11635188418E+04  0.16472381029E+04  0.89224120221E+03 0.  0.
        -24    2    4    4    0    0 -0.13156783681E+03  0.33609232471E+03  0.39367292066E+03  0.54023335382E+03  0.81274606817E+02 0.  0.
         24    2    4    4    0    0  0.79111839955E+03  0.22398909120E+02  0.76984592118E+03  0.11070047491E+04  0.80166944330E+02 0.  0.
         11    1    3    3    0    0 -0.62450549264E+03 -0.31498907806E+03 -0.10515637759E+04  0.12629376882E+04  0.00000000000E+00 0.  1.
        -11    1    3    3    0    0 -0.35045070101E+02 -0.43502155776E+02 -0.76244061891E+02  0.94518524476E+02  0.00000000000E+00 0. -1.
          2    1    6    6  502    0  0.17205804860E+03  0.29253455202E+02  0.20167251110E+03  0.26670496521E+03  0.00000000000E+00 0. -1.
          3    1    5    5  503    0 -0.48572705644E+02  0.46160499332E+02  0.54480975674E+02  0.86361311608E+02  0.00000000000E+00 0. -1.
         -4    1    5    5    0  503 -0.82995131165E+02  0.28993182538E+03  0.33919194498E+03  0.45387204222E+03  0.00000000000E+00 0.  1.
         -1    1    6    6    0  502  0.61906035095E+03 -0.68545460818E+01  0.56817341008E+03  0.84029978391E+03  0.00000000000E+00 0.  1.
<mgrwt>
<rscale>  0 0.30044821E+04</rscale>
<asrwt>0</asrwt>
<pdfrwt beam="1">  1        2 0.23387733E+00 0.30044821E+04</pdfrwt>
<pdfrwt beam="2">  1       -2 0.22838333E+00 0.30044821E+04</pdfrwt>
<totfact> 0.92603742E-01</totfact>
</mgrwt>
</event>
<event>
12    1  0.1536832E-007  0.2011407E+04  0.7818608E-02  0.8601306E-01
          1   -1    0    0  501    0  0.00000000000E+00  0.00000000000E+00  0.42902435185E+04  0.42902435185E+04  0.00000000000E+00 0. -1.
         -1   -1    0    0    0  501 -0.00000000000E+00 -0.00000000000E+00 -0.23575335089E+03  0.23575335089E+03  0.00000000000E+00 0.  1.
         23    2    1    2    0    0 -0.30199590212E+03  0.69324860032E+03  0.21333990303E+04  0.22654437192E+04  0.95124526487E+02 0.  0.
        254    2    1    2    0    0  0.30199590212E+03 -0.69324860032E+03  0.19210911373E+04  0.22605531502E+04  0.92071398401E+03 0.  0.
        -24    2    4    4    0    0  0.53610830739E+03 -0.16590750084E+03  0.64925133200E+03  0.86175428034E+03  0.78458469802E+02 0.  0.
         24    2    4    4    0    0 -0.23411240527E+03 -0.52734109948E+03  0.12718398053E+04  0.13987988699E+04  0.78514549587E+02 0.  0.
         13    1    3    3    0    0 -0.29562599944E+03  0.66872315138E+03  0.19953826181E+04  0.21251205089E+04  0.00000000000E+00 0. -1.
        -13    1    3    3    0    0 -0.63699026798E+01  0.24525448935E+02  0.13801641221E+03  0.14032321028E+03  0.00000000000E+00 0.  1.
          2    1    6    6  502    0 -0.22217624085E+03 -0.52503581565E+03  0.12434254406E+04  0.13678931669E+04  0.00000000000E+00 0. -1.
          1    1    5    5  503    0  0.37245189388E+03 -0.14929741996E+03  0.48201842858E+03  0.62717772469E+03  0.00000000000E+00 0. -1.
         -4    1    5    5    0  503  0.16365641351E+03 -0.16610080879E+02  0.16723290342E+03  0.23457655564E+03  0.00000000000E+00 0.  1.
         -1    1    6    6    0  502 -0.11936164427E+02 -0.23052838247E+01  0.28414364726E+02  0.30905702993E+02  0.00000000000E+00 0.  1.
<mgrwt>
<rscale>  0 0.20114068E+04</rscale>
<asrwt>0</asrwt>
<pdfrwt beam="1">  1        1 0.66003740E+00 0.20114068E+04</pdfrwt>
<pdfrwt beam="2">  1       -1 0.36269750E-01 0.20114068E+04</pdfrwt>
<totfact> 0.35449955E-01</totfact>
</mgrwt>
</event>
<event>
12    1  0.2081046E-007  0.1618539E+04  0.7818608E-02  0.8809239E-01
          1   -1    0    0  501    0  0.00000000000E+00  0.00000000000E+00  0.22786275630E+04  0.22786275630E+04  0.00000000000E+00 0. -1.
         -1   -1    0    0    0  501 -0.00000000000E+00 -0.00000000000E+00 -0.28741737566E+03  0.28741737566E+03  0.00000000000E+00 0.  1.
         23    2    1    2    0    0 -0.16055506030E+03  0.74174424399E+02  0.15233273698E+04  0.15364684868E+04  0.94495305530E+02 0.  0.
        254    2    1    2    0    0  0.16055506030E+03 -0.74174424399E+02  0.46788281758E+03  0.10295764519E+04  0.89990753230E+03 0.  0.
        -24    2    4    4    0    0 -0.26514436893E+03  0.52934288585E+02  0.50298340095E+03  0.57659374162E+03  0.79777603132E+02 0.  0.
         24    2    4    4    0    0  0.42569942923E+03 -0.12710871298E+03 -0.35100583368E+02  0.45298271028E+03  0.81145892668E+02 0.  0.
         13    1    3    3    0    0 -0.16940099240E+03  0.53700876131E+02  0.13850713242E+04  0.13964250977E+04  0.00000000000E+00 0. -1.
        -13    1    3    3    0    0  0.88459321058E+01  0.20473548268E+02  0.13825604556E+03  0.14004338909E+03  0.00000000000E+00 0.  1.
          4    1    6    6  502    0  0.35949999002E+03 -0.90354877876E+02 -0.54886578519E+02  0.37472227487E+03  0.00000000000E+00 0. -1.
          1    1    5    5  503    0 -0.24302646096E+03  0.22878000047E+02  0.42419401979E+03  0.48941376160E+03  0.00000000000E+00 0. -1.
         -2    1    5    5    0  503 -0.22117907967E+02  0.30056288538E+02  0.78789381151E+02  0.87179980017E+02  0.00000000000E+00 0.  1.
         -3    1    6    6    0  502  0.66199439208E+02 -0.36753835108E+02  0.19785995151E+02  0.78260435411E+02  0.00000000000E+00 0.  1.
<mgrwt>
<rscale>  0 0.16185390E+04</rscale>
<asrwt>0</asrwt>
<pdfrwt beam="1">  1        1 0.35055808E+00 0.16185390E+04</pdfrwt>
<pdfrwt beam="2">  1       -1 0.44218059E-01 0.16185390E+04</pdfrwt>
<totfact> 0.93430220E+00</totfact>
</mgrwt>
</event>
<event>
12    1  0.1536832E-007  0.1884528E+04  0.7818608E-02  0.8662596E-01
          1   -1    0    0  501    0  0.00000000000E+00  0.00000000000E+00  0.17050220646E+04  0.17050220646E+04  0.00000000000E+00 0. -1.
         -1   -1    0    0    0  501 -0.00000000000E+00 -0.00000000000E+00 -0.52073306041E+03  0.52073306041E+03  0.00000000000E+00 0.  1.
         23    2    1    2    0    0  0.38226844986E+03  0.41757198598E+03 -0.81984305677E+02  0.58053824623E+03  0.99033821113E+02 0.  0.
        254    2    1    2    0    0 -0.38226844986E+03 -0.41757198598E+03  0.12662733099E+04  0.16452168788E+04  0.88475700148E+03 0.  0.
        -24    2    4    4    0    0 -0.13164038230E+03 -0.35629250846E+03  0.40569982667E+02  0.39023862856E+03  0.79791740736E+02 0.  0.
         24    2    4    4    0    0 -0.25062806757E+03 -0.61279477522E+02  0.12257033272E+04  0.12549782502E+04  0.77795626967E+02 0.  0.
         13    1    3    3    0    0  0.34584787191E+03  0.32250609792E+03 -0.69750719150E+02  0.47800219301E+03  0.00000000000E+00 0.  1.
        -13    1    3    3    0    0  0.36420577954E+02  0.95065888060E+02 -0.12233586527E+02  0.10253605322E+03  0.00000000000E+00 0. -1.
          2    1    6    6  502    0 -0.37634061519E+02  0.17192124191E+02  0.23391434740E+03  0.23754539279E+03  0.00000000000E+00 0. -1.
          1    1    5    5  503    0 -0.43178016318E+02 -0.91830506149E+02  0.45782456653E+02  0.11132482333E+03  0.00000000000E+00 0. -1.
         -2    1    5    5    0  503 -0.88462365981E+02 -0.26446200231E+03 -0.52124739856E+01  0.27891380523E+03  0.00000000000E+00 0.  1.
         -1    1    6    6    0  502 -0.21299400605E+03 -0.78471601713E+02  0.99178897979E+03  0.10174328574E+04  0.00000000000E+00 0.  1.
<mgrwt>
<rscale>  0 0.18845279E+04</rscale>
<asrwt>0</asrwt>
<pdfrwt beam="1">  1        1 0.26231108E+00 0.18845279E+04</pdfrwt>
<pdfrwt beam="2">  1       -1 0.80112780E-01 0.18845279E+04</pdfrwt>
<totfact> 0.68888360E+00</totfact>
</mgrwt>
</event>
<event>
12    1  0.1536832E-007  0.1422986E+04  0.7818608E-02  0.8937346E-01
         -1   -1    0    0    0  501 -0.00000000000E+00  0.00000000000E+00  0.96327558092E+03  0.96327558092E+03  0.00000000000E+00 0.  1.
          1   -1    0    0  501    0  0.00000000000E+00 -0.00000000000E+00 -0.52552212977E+03  0.52552212977E+03  0.00000000000E+00 0. -1.
         23    2    1    2    0    0  0.23667296414E+02  0.13865572863E+03  0.56110873575E+03  0.58588493707E+03  0.92911754594E+02 0.  0.
        254    2    1    2    0    0 -0.23667296414E+02 -0.13865572863E+03 -0.12335528461E+03  0.90291277363E+03  0.88331726947E+03 0.  0.
        -24    2    4    4    0    0 -0.21763397002E+03  0.10712169969E+03 -0.40224337613E+03  0.47646752194E+03  0.79887185303E+02 0.  0.
         24    2    4    4    0    0  0.19396667361E+03 -0.24577742831E+03  0.27888809152E+03  0.42644525169E+03  0.77764840110E+02 0.  0.
         11    1    3    3    0    0 -0.26500263390E+01  0.62122434666E+02  0.40791828264E+03  0.41263003385E+03  0.00000000000E+00 0.  1.
        -11    1    3    3    0    0  0.26317322753E+02  0.76533293960E+02  0.15319045312E+03  0.17325490321E+03  0.00000000000E+00 0. -1.
          2    1    6    6  502    0  0.14057899117E+02 -0.25025655218E+02  0.12592165466E+01  0.28731403951E+02  0.00000000000E+00 0. -1.
          1    1    5    5  503    0 -0.13308543200E+03  0.21865724057E+02 -0.19873054268E+03  0.24017425069E+03  0.00000000000E+00 0. -1.
         -4    1    5    5    0  503 -0.84548538020E+02  0.85255975629E+02 -0.20351283345E+03  0.23629327126E+03  0.00000000000E+00 0.  1.
         -1    1    6    6    0  502  0.17990877449E+03 -0.22075177309E+03  0.27762887497E+03  0.39771384774E+03  0.00000000000E+00 0.  1.
<mgrwt>
<rscale>  0 0.14229865E+04</rscale>
<asrwt>0</asrwt>
<pdfrwt beam="1">  1        1 0.80849559E-01 0.14229865E+04</pdfrwt>
<pdfrwt beam="2">  1       -1 0.14819624E+00 0.14229865E+04</pdfrwt>
<totfact> 0.14510541E+01</totfact>
</mgrwt>
</event>
<event>
12    1  0.1536832E-007  0.1662999E+04  0.7818608E-02  0.8782753E-01
          1   -1    0    0  501    0  0.00000000000E+00  0.00000000000E+00  0.12654778813E+04  0.12654778813E+04  0.00000000000E+00 0. -1.
         -1   -1    0    0    0  501 -0.00000000000E+00 -0.00000000000E+00 -0.54634805545E+03  0.54634805545E+03  0.00000000000E+00 0.  1.
         23    2    1    2    0    0 -0.13355929661E+03 -0.36961096211E+03 -0.22030620245E+03  0.45984640110E+03  0.92051837273E+02 0.  0.
        254    2    1    2    0    0  0.13355929661E+03  0.36961096211E+03  0.93943602832E+03  0.13519795357E+04  0.88930212220E+03 0.  0.
        -24    2    4    4    0    0  0.70544654850E+02 -0.28695553665E+03  0.33440170144E+03  0.45348851657E+03  0.80667889446E+02 0.  0.
         24    2    4    4    0    0  0.63014641758E+02  0.65656649877E+03  0.60503432688E+03  0.89849101911E+03  0.78544015230E+02 0.  0.
         13    1    3    3    0    0 -0.73420895079E+02 -0.31006823697E+03 -0.18195084334E+03  0.36693194029E+03  0.00000000000E+00 0.  1.
        -13    1    3    3    0    0 -0.60138401529E+02 -0.59542725140E+02 -0.38355359112E+02  0.92914460813E+02  0.00000000000E+00 0. -1.
          2    1    6    6  502    0  0.41484681402E+02  0.20937118291E+03  0.23681183350E+03  0.31880576455E+03  0.00000000000E+00 0. -1.
          1    1    5    5  503    0  0.17589627316E+01 -0.16151393495E+03  0.15322886133E+03  0.22264080731E+03  0.00000000000E+00 0. -1.
         -2    1    5    5    0  503  0.68785692119E+02 -0.12544160171E+03  0.18117284011E+03  0.23084770926E+03  0.00000000000E+00 0.  1.
         -1    1    6    6    0  502  0.21529960356E+02  0.44719531586E+03  0.36822249338E+03  0.57968525456E+03  0.00000000000E+00 0.  1.
<mgrwt>
<rscale>  0 0.16629990E+04</rscale>
<asrwt>0</asrwt>
<pdfrwt beam="1">  1        1 0.19468890E+00 0.16629990E+04</pdfrwt>
<pdfrwt beam="2">  1       -1 0.84053548E-01 0.16629990E+04</pdfrwt>
<totfact> 0.12824454E+01</totfact>
</mgrwt>
</event>
<event>
12    1  0.1536832E-007  0.1538391E+04  0.7818608E-02  0.8859317E-01
         -2   -1    0    0    0  501 -0.00000000000E+00  0.00000000000E+00  0.15797202717E+04  0.15797202717E+04  0.00000000000E+00 0.  1.
          2   -1    0    0  501    0  0.00000000000E+00 -0.00000000000E+00 -0.37453585397E+03  0.37453585397E+03  0.00000000000E+00 0. -1.
         23    2    1    2    0    0 -0.24440599568E+02  0.25307696089E+02 -0.22665470032E+03  0.26073871462E+03  0.12399395846E+03 0.  0.
        254    2    1    2    0    0  0.24440599568E+02 -0.25307696089E+02  0.14318391181E+04  0.16935174111E+04  0.90365930481E+03 0.  0.
        -24    2    4    4    0    0 -0.42578192958E+03 -0.56102265657E+02  0.57817915595E+03  0.72461880221E+03  0.79646446159E+02 0.  0.
         24    2    4    4    0    0  0.45022252915E+03  0.30794569568E+02  0.85365996214E+03  0.96889860887E+03  0.79878357780E+02 0.  0.
         13    1    3    3    0    0  0.59488751316E+01  0.13552195227E+02 -0.22765873903E+03  0.22813932710E+03  0.00000000000E+00 0. -1.
        -13    1    3    3    0    0 -0.30389474700E+02  0.11755500862E+02  0.10040387111E+01  0.32599387522E+02  0.00000000000E+00 0.  1.
          4    1    6    6  502    0  0.10321728178E+03 -0.23510990012E+02  0.16932053880E+03  0.19968980637E+03  0.00000000000E+00 0. -1.
          3    1    5    5  503    0 -0.46771085478E+02  0.18837512957E+02  0.64872109877E+02  0.82163111985E+02  0.00000000000E+00 0. -1.
         -4    1    5    5    0  503 -0.37901084410E+03 -0.74939778614E+02  0.51330704607E+03  0.64245569023E+03  0.00000000000E+00 0.  1.
         -3    1    6    6    0  502  0.34700524737E+03  0.54305559581E+02  0.68433942335E+03  0.76920880250E+03  0.00000000000E+00 0.  1.
<mgrwt>
<rscale>  0 0.15383912E+04</rscale>
<asrwt>0</asrwt>
<pdfrwt beam="1">  1        2 0.57620902E-01 0.15383912E+04</pdfrwt>
<pdfrwt beam="2">  1       -2 0.24303388E+00 0.15383912E+04</pdfrwt>
<totfact> 0.58540501E+00</totfact>
</mgrwt>
</event>
<event>
12    1  0.1536832E-007  0.1695471E+04  0.7818608E-02  0.8763952E-01
          2   -1    0    0  501    0  0.00000000000E+00  0.00000000000E+00  0.54999515376E+03  0.54999515376E+03  0.00000000000E+00 0. -1.
         -2   -1    0    0    0  501 -0.00000000000E+00 -0.00000000000E+00 -0.13066579936E+04  0.13066579936E+04  0.00000000000E+00 0.  1.
         23    2    1    2    0    0  0.59583122666E+03 -0.79548405160E+02 -0.33377929001E+03  0.69325680259E+03  0.88620429178E+02 0.  0.
        254    2    1    2    0    0 -0.59583122666E+03  0.79548405160E+02 -0.42288354987E+03  0.11633963448E+04  0.90184131583E+03 0.  0.
        -24    2    4    4    0    0 -0.35750689291E+02 -0.30994190266E+03  0.54380138425E+02  0.32701972130E+03  0.81502170882E+02 0.  0.
         24    2    4    4    0    0 -0.56008053737E+03  0.38949030782E+03 -0.47726368829E+03  0.83637662351E+03  0.79701442684E+02 0.  0.
         13    1    3    3    0    0  0.15366266109E+03 -0.14386722781E+02 -0.13111691787E+03  0.20251132649E+03  0.00000000000E+00 0.  1.
        -13    1    3    3    0    0  0.44216856557E+03 -0.65161682378E+02 -0.20266237214E+03  0.49074547610E+03  0.00000000000E+00 0. -1.
          2    1    6    6  502    0 -0.15407751868E+03  0.11593057001E+03 -0.17907235678E+03  0.26314765397E+03  0.00000000000E+00 0. -1.
          3    1    5    5  503    0 -0.43272407643E+02 -0.17354994623E+03  0.64277788308E+02  0.19006240862E+03  0.00000000000E+00 0. -1.
         -4    1    5    5    0  503  0.75217183519E+01 -0.13639195642E+03 -0.98976498827E+01  0.13695731268E+03  0.00000000000E+00 0.  1.
         -3    1    6    6    0  502 -0.40600301869E+03  0.27355973781E+03 -0.29819133152E+03  0.57322896955E+03  0.00000000000E+00 0.  1.
<mgrwt>
<rscale>  0 0.16954711E+04</rscale>
<asrwt>0</asrwt>
<pdfrwt beam="1">  1        2 0.84614640E-01 0.16954711E+04</pdfrwt>
<pdfrwt beam="2">  1       -2 0.20102430E+00 0.16954711E+04</pdfrwt>
<totfact> 0.68563156E+00</totfact>
</mgrwt>
</event>
<event>
12    1  0.1536832E-007  0.1150843E+04  0.7818608E-02  0.9157006E-01
         -1   -1    0    0    0  501 -0.00000000000E+00  0.00000000000E+00  0.34726859971E+03  0.34726859971E+03  0.00000000000E+00 0.  1.
          1   -1    0    0  501    0  0.00000000000E+00 -0.00000000000E+00 -0.95346943076E+03  0.95346943076E+03  0.00000000000E+00 0. -1.
         23    2    1    2    0    0 -0.20194520980E+03 -0.55183015727E+02 -0.14964187340E+03  0.27442321350E+03  0.95332978805E+02 0.  0.
        254    2    1    2    0    0  0.20194520980E+03  0.55183015727E+02 -0.45655895765E+03  0.10263148170E+04  0.89501340142E+03 0.  0.
        -24    2    4    4    0    0  0.17014574681E+03 -0.17276965038E+03  0.20102834227E+03  0.32491559037E+03  0.79742204747E+02 0.  0.
         24    2    4    4    0    0  0.31799462989E+02  0.22795266611E+03 -0.65758729992E+03  0.70139922659E+03  0.81032056744E+02 0.  0.
         13    1    3    3    0    0 -0.11309417626E+03  0.17174783417E+02 -0.61626630896E+02  0.12993501270E+03  0.00000000000E+00 0.  1.
        -13    1    3    3    0    0 -0.88851033541E+02 -0.72357799144E+02 -0.88015242506E+02  0.14448820080E+03  0.00000000000E+00 0. -1.
          4    1    6    6  502    0 -0.14709859121E+02  0.21789787595E+02 -0.34048134286E+02  0.43016860034E+02  0.00000000000E+00 0. -1.
          1    1    5    5  503    0  0.86440385509E+02 -0.40518863329E+02  0.51578674072E+02  0.10850842433E+03  0.00000000000E+00 0. -1.
         -2    1    5    5    0  503  0.83705361305E+02 -0.13225078705E+03  0.14944966820E+03  0.21640716604E+03  0.00000000000E+00 0.  1.
         -3    1    6    6    0  502  0.46509322110E+02  0.20616287852E+03 -0.62353916563E+03  0.65838236656E+03  0.00000000000E+00 0.  1.
<mgrwt>
<rscale>  0 0.11508432E+04</rscale>
<asrwt>0</asrwt>
<pdfrwt beam="1">  1        1 0.14668761E+00 0.11508432E+04</pdfrwt>
<pdfrwt beam="2">  1       -1 0.53425938E-01 0.11508432E+04</pdfrwt>
<totfact> 0.57797666E+01</totfact>
</mgrwt>
</event>
<event>
12    1  0.1536832E-007  0.2242325E+04  0.7818608E-02  0.8501015E-01
          2   -1    0    0  501    0  0.00000000000E+00  0.00000000000E+00  0.11027644772E+04  0.11027644772E+04  0.00000000000E+00 0. -1.
         -2   -1    0    0    0  501 -0.00000000000E+00 -0.00000000000E+00 -0.11398676394E+04  0.11398676394E+04  0.00000000000E+00 0.  1.
         23    2    1    2    0    0  0.76333376314E+03 -0.53152253814E+03  0.92566936313E+02  0.93914490603E+03  0.90718654774E+02 0.  0.
        254    2    1    2    0    0 -0.76333376314E+03  0.53152253814E+03 -0.12967009851E+03  0.13034872106E+04  0.90391920618E+03 0.  0.
        -24    2    4    4    0    0 -0.41859683358E+03  0.50925300746E+03  0.31493524435E+03  0.73480997572E+03  0.78737269464E+02 0.  0.
         24    2    4    4    0    0 -0.34473692956E+03  0.22269530678E+02 -0.44460534286E+03  0.56867723489E+03  0.79877431026E+02 0.  0.
         11    1    3    3    0    0  0.70790196734E+03 -0.47554389903E+03  0.10553436916E+03  0.85930477617E+03  0.00000000000E+00 0. -1.
        -11    1    3    3    0    0  0.55431795798E+02 -0.55978639102E+02 -0.12967432846E+02  0.79840129858E+02  0.00000000000E+00 0.  1.
          2    1    6    6  502    0 -0.10510841744E+03  0.41566129134E+02 -0.12146574551E+03  0.16592001037E+03  0.00000000000E+00 0. -1.
          3    1    5    5  503    0 -0.24039122782E+03  0.27644125923E+03  0.21652561476E+03  0.42554794567E+03  0.00000000000E+00 0. -1.
         -4    1    5    5    0  503 -0.17820560576E+03  0.23281174822E+03  0.98409629590E+02  0.30926203005E+03  0.00000000000E+00 0.  1.
         -1    1    6    6    0  502 -0.23962851213E+03 -0.19296598455E+02 -0.32313959735E+03  0.40275722453E+03  0.00000000000E+00 0.  1.
<mgrwt>
<rscale>  0 0.22423252E+04</rscale>
<asrwt>0</asrwt>
<pdfrwt beam="1">  1        2 0.16965607E+00 0.22423252E+04</pdfrwt>
<pdfrwt beam="2">  1       -2 0.17536425E+00 0.22423252E+04</pdfrwt>
<totfact> 0.38606604E+00</totfact>
</mgrwt>
</event>
<event>
12    1  0.1536832E-007  0.3465840E+04  0.7818608E-02  0.8121933E-01
          3   -1    0    0  501    0  0.00000000000E+00  0.00000000000E+00  0.10448721354E+04  0.10448721354E+04  0.00000000000E+00 0. -1.
         -3   -1    0    0    0  501 -0.00000000000E+00 -0.00000000000E+00 -0.28740477184E+04  0.28740477184E+04  0.00000000000E+00 0.  1.
         23    2    1    2    0    0  0.99677200979E+03  0.71614238700E+03  0.33593315591E+03  0.12743173401E+04  0.67964991669E+02 0.  0.
        254    2    1    2    0    0 -0.99677200979E+03 -0.71614238700E+03 -0.21651087390E+04  0.26446025137E+04  0.89432222717E+03 0.  0.
        -24    2    4    4    0    0 -0.11301084264E+04 -0.63797822661E+03 -0.16472252658E+04  0.20987228593E+04  0.84411438747E+02 0.  0.
         24    2    4    4    0    0  0.13333641659E+03 -0.78164160394E+02 -0.51788347319E+03  0.54587965439E+03  0.76766329349E+02 0.  0.
         13    1    3    3    0    0  0.11486253673E+03  0.10199256919E+03  0.58775483269E+02  0.16447019167E+03  0.00000000000E+00 0.  1.
        -13    1    3    3    0    0  0.88190947305E+03  0.61414981782E+03  0.27715767264E+03  0.11098471484E+04  0.00000000000E+00 0. -1.
          4    1    6    6  502    0  0.38381167281E+02 -0.27560175166E+02 -0.64816159081E+02  0.80211044969E+02  0.00000000000E+00 0. -1.
          1    1    5    5  503    0 -0.38191824217E+03 -0.18031625637E+03 -0.49573404076E+03  0.65125090033E+03  0.00000000000E+00 0. -1.
         -2    1    5    5    0  503 -0.74819018421E+03 -0.45766197024E+03 -0.11514912250E+04  0.14474719590E+04  0.00000000000E+00 0.  1.
         -3    1    6    6    0  502  0.94955249313E+02 -0.50603985228E+02 -0.45306731411E+03  0.46566860943E+03  0.00000000000E+00 0.  1.
<mgrwt>
<rscale>  0 0.34658404E+04</rscale>
<asrwt>0</asrwt>
<pdfrwt beam="1">  1        3 0.16074956E+00 0.34658404E+04</pdfrwt>
<pdfrwt beam="2">  1       -3 0.44216119E+00 0.34658404E+04</pdfrwt>
<totfact> 0.35698547E-03</totfact>
</mgrwt>
</event>
<event>
12    1  0.1536832E-007  0.1904362E+04  0.7818608E-02  0.8652688E-01
          2   -1    0    0  501    0  0.00000000000E+00  0.00000000000E+00  0.22426416510E+04  0.22426416510E+04  0.00000000000E+00 0. -1.
         -2   -1    0    0    0  501 -0.00000000000E+00 -0.00000000000E+00 -0.40427719301E+03  0.40427719301E+03  0.00000000000E+00 0.  1.
         23    2    1    2    0    0 -0.50684518479E+03  0.58430218723E+02  0.14151569185E+04  0.15079831388E+04  0.10506146330E+03 0.  0.
        254    2    1    2    0    0  0.50684518479E+03 -0.58430218723E+02  0.42320753953E+03  0.11389357053E+04  0.92615537973E+03 0.  0.
        -24    2    4    4    0    0 -0.15335318100E+03 -0.29734422359E+03  0.79132169049E+02  0.35305554207E+03  0.80346314067E+02 0.  0.
         24    2    4    4    0    0  0.66019836579E+03  0.23891400487E+03  0.34407537048E+03  0.78588016319E+03  0.79233745409E+02 0.  0.
         11    1    3    3    0    0 -0.18479055429E+03 -0.28600949764E+02  0.48361585058E+03  0.51850733284E+03  0.00000000000E+00 0.  1.
        -11    1    3    3    0    0 -0.32205463050E+03  0.87031168486E+02  0.93154106791E+03  0.98947580593E+03  0.00000000000E+00 0. -1.
          2    1    6    6  502    0  0.32717680025E+03  0.16049557316E+03  0.17633798908E+03  0.40484388845E+03  0.00000000000E+00 0. -1.
          3    1    5    5  503    0 -0.15874907521E+03 -0.29835881189E+03  0.80455150679E+02  0.34740794577E+03  0.00000000000E+00 0. -1.
         -4    1    5    5    0  503  0.53958942050E+01  0.10145882951E+01 -0.13229816305E+01  0.56475963095E+01  0.00000000000E+00 0.  1.
         -1    1    6    6    0  502  0.33302156554E+03  0.78418431711E+02  0.16773738140E+03  0.38103627474E+03  0.00000000000E+00 0.  1.
<mgrwt>
<rscale>  0 0.19043622E+04</rscale>
<asrwt>0</asrwt>
<pdfrwt beam="1">  1        2 0.34502179E+00 0.19043622E+04</pdfrwt>
<pdfrwt beam="2">  1       -2 0.62196493E-01 0.19043622E+04</pdfrwt>
<totfact> 0.10977580E+01</totfact>
</mgrwt>
</event>
<event>
12    1  0.1536832E-007  0.3254414E+04  0.7818608E-02  0.8174593E-01
         -2   -1    0    0    0  501 -0.00000000000E+00  0.00000000000E+00  0.14750669916E+04  0.14750669916E+04  0.00000000000E+00 0.  1.
          2   -1    0    0  501    0  0.00000000000E+00 -0.00000000000E+00 -0.17950384883E+04  0.17950384883E+04  0.00000000000E+00 0. -1.
         23    2    1    2    0    0  0.44177705940E+02  0.33268115551E+03 -0.16206029205E+04  0.16575543291E+04  0.92217716329E+02 0.  0.
        254    2    1    2    0    0 -0.44177705940E+02 -0.33268115551E+03  0.13006314238E+04  0.16125511507E+04  0.89221672938E+03 0.  0.
        -24    2    4    4    0    0 -0.94357541387E+02 -0.80539413593E+01  0.12668618026E+04  0.12728991721E+04  0.79782602553E+02 0.  0.
         24    2    4    4    0    0  0.50179835448E+02 -0.32462721415E+03  0.33769621172E+02  0.33965197867E+03  0.79512484864E+02 0.  0.
         11    1    3    3    0    0  0.24989698766E+02  0.32477193213E+03 -0.14794679791E+04  0.15149015791E+04  0.00000000000E+00 0. -1.
        -11    1    3    3    0    0  0.19188007174E+02  0.79092233736E+01 -0.14113494132E+03  0.14265275005E+03  0.00000000000E+00 0.  1.
          2    1    6    6  502    0  0.28305266750E+01 -0.61961716613E+02  0.37959628583E+02  0.72720008312E+02  0.00000000000E+00 0. -1.
          3    1    5    5  503    0 -0.63487676607E+02 -0.45339799351E+01  0.36540333296E+03  0.37090542972E+03  0.00000000000E+00 0. -1.
         -4    1    5    5    0  503 -0.30869864781E+02 -0.35199614242E+01  0.90145846967E+03  0.90199374234E+03  0.00000000000E+00 0.  1.
         -1    1    6    6    0  502  0.47349308773E+02 -0.26266549753E+03 -0.41900074105E+01  0.26693197036E+03  0.00000000000E+00 0.  1.
<mgrwt>
<rscale>  0 0.32544136E+04</rscale>
<asrwt>0</asrwt>
<pdfrwt beam="1">  1        2 0.27615977E+00 0.32544136E+04</pdfrwt>
<pdfrwt beam="2">  1       -2 0.22693338E+00 0.32544136E+04</pdfrwt>
<totfact> 0.65062148E-01</totfact>
</mgrwt>
</event>
<event>
12    1  0.1536832E-007  0.1039237E+04  0.7818608E-02  0.9266527E-01
         -2   -1    0    0    0  501 -0.00000000000E+00  0.00000000000E+00  0.11980096965E+04  0.11980096965E+04  0.00000000000E+00 0.  1.
          2   -1    0    0  501    0  0.00000000000E+00 -0.00000000000E+00 -0.22537675355E+03  0.22537675355E+03  0.00000000000E+00 0. -1.
         23    2    1    2    0    0 -0.24959653845E+02  0.86970692665E+02  0.87572892862E+02  0.15140327856E+03  0.84065780737E+02 0.  0.
        254    2    1    2    0    0  0.24959653845E+02 -0.86970692665E+02  0.88506005006E+03  0.12719831715E+04  0.90907811028E+03 0.  0.
        -24    2    4    4    0    0  0.18285735269E+03  0.36629538205E+03  0.50436714664E+03  0.65446958040E+03  0.79593308262E+02 0.  0.
         24    2    4    4    0    0 -0.15789769884E+03 -0.45326607471E+03  0.38069290342E+03  0.61751359107E+03  0.77550826296E+02 0.  0.
         11    1    3    3    0    0 -0.16945046427E+02  0.60906840900E+02  0.10241591946E+03  0.12035696252E+03  0.00000000000E+00 0.  1.
        -11    1    3    3    0    0 -0.80146074182E+01  0.26063851765E+02 -0.14843026602E+02  0.31046316039E+02  0.00000000000E+00 0. -1.
          4    1    6    6  502    0 -0.52300942666E+02 -0.92814598393E+02  0.52690203301E+02  0.11885367391E+03  0.00000000000E+00 0. -1.
          1    1    5    5  503    0  0.74643814458E+02  0.23691835788E+03  0.30073071078E+03  0.39005251921E+03  0.00000000000E+00 0. -1.
         -2    1    5    5    0  503  0.10821353823E+03  0.12937702417E+03  0.20363643586E+03  0.26441706119E+03  0.00000000000E+00 0.  1.
         -3    1    6    6    0  502 -0.10559675618E+03 -0.36045147632E+03  0.32800270012E+03  0.49865991716E+03  0.00000000000E+00 0.  1.
<mgrwt>
<rscale>  0 0.10392373E+04</rscale>
<asrwt>0</asrwt>
<pdfrwt beam="1">  1        2 0.34673348E-01 0.10392373E+04</pdfrwt>
<pdfrwt beam="2">  1       -2 0.18430918E+00 0.10392373E+04</pdfrwt>
<totfact> 0.25507541E+01</totfact>
</mgrwt>
</event>
<event>
12    1  0.1536832E-007  0.1552113E+04  0.7818608E-02  0.8850519E-01
         -1   -1    0    0    0  501 -0.00000000000E+00  0.00000000000E+00  0.40775291807E+03  0.40775291807E+03  0.00000000000E+00 0.  1.
          1   -1    0    0  501    0  0.00000000000E+00 -0.00000000000E+00 -0.14770304893E+04  0.14770304893E+04  0.00000000000E+00 0. -1.
         23    2    1    2    0    0  0.44293498150E+03  0.21188682377E+03 -0.28953086867E+03  0.57737679604E+03  0.91915269501E+02 0.  0.
        254    2    1    2    0    0 -0.44293498150E+03 -0.21188682377E+03 -0.77974670252E+03  0.13074066113E+04  0.92748029804E+03 0.  0.
        -24    2    4    4    0    0 -0.36830137695E+03 -0.47128777403E+03 -0.82468947373E+03  0.10218946789E+04  0.79987102122E+02 0.  0.
         24    2    4    4    0    0 -0.74633604549E+02  0.25940095026E+03  0.44942771217E+02  0.28551193238E+03  0.81475044766E+02 0.  0.
         13    1    3    3    0    0  0.13964280824E+03  0.62447378556E+02 -0.14114572592E+03  0.20813914799E+03  0.00000000000E+00 0. -1.
        -13    1    3    3    0    0  0.30329217325E+03  0.14943944522E+03 -0.14838514275E+03  0.36923764804E+03  0.00000000000E+00 0.  1.
          4    1    6    6  502    0 -0.53359712920E+02  0.22795072084E+03  0.10660108304E+02  0.23435534559E+03  0.00000000000E+00 0. -1.
          1    1    5    5  503    0 -0.28673819728E+03 -0.39674083772E+03 -0.71226402010E+03  0.86425813298E+03  0.00000000000E+00 0. -1.
         -2    1    5    5    0  503 -0.81563179668E+02 -0.74546936318E+02 -0.11242545363E+03  0.15763654594E+03  0.00000000000E+00 0.  1.
         -3    1    6    6    0  502 -0.21273891629E+02  0.31450229419E+02  0.34282662914E+02  0.51156586790E+02  0.00000000000E+00 0.  1.
<mgrwt>
<rscale>  0 0.15521127E+04</rscale>
<asrwt>0</asrwt>
<pdfrwt beam="1">  1        1 0.22723545E+00 0.15521127E+04</pdfrwt>
<pdfrwt beam="2">  1       -1 0.62731220E-01 0.15521127E+04</pdfrwt>
<totfact> 0.16848821E+01</totfact>
</mgrwt>
</event>
<event>
12    1  0.1536832E-007  0.1371992E+04  0.7818608E-02  0.8974346E-01
         -2   -1    0    0    0  501 -0.00000000000E+00  0.00000000000E+00  0.18723915565E+03  0.18723915565E+03  0.00000000000E+00 0. -1.
          2   -1    0    0  501    0  0.00000000000E+00 -0.00000000000E+00 -0.25133113938E+04  0.25133113938E+04  0.00000000000E+00 0.  1.
         23    2    1    2    0    0  0.93341008616E+02  0.10560830503E+03  0.29746383327E+02  0.17309181081E+03  0.95970149878E+02 0.  0.
        254    2    1    2    0    0 -0.93341008616E+02 -0.10560830503E+03 -0.23558186215E+04  0.25274587386E+04  0.90459971274E+03 0.  0.
        -24    2    4    4    0    0  0.11192569092E+03 -0.38089657009E+03 -0.52515382568E+03  0.66317758516E+03  0.80052554254E+02 0.  0.
         24    2    4    4    0    0 -0.20526669953E+03  0.27528826506E+03 -0.18306647958E+04  0.18642811535E+04  0.79325770476E+02 0.  0.
         13    1    3    3    0    0  0.94242076273E+02  0.41895370452E+02  0.87933982966E+00  0.10313856817E+03  0.00000000000E+00 0. -1.
        -13    1    3    3    0    0 -0.90106765724E+00  0.63712934580E+02  0.28867043497E+02  0.69953242641E+02  0.00000000000E+00 0.  1.
          2    1    6    6  502    0 -0.36989291606E+02  0.18051170908E+02 -0.14104897005E+03  0.14693149566E+03  0.00000000000E+00 0. -1.
          3    1    5    5  503    0  0.26595481511E+02 -0.67746875348E+02 -0.15263228320E+03  0.16909634127E+03  0.00000000000E+00 0. -1.
         -4    1    5    5    0  503  0.85330209406E+02 -0.31314969474E+03 -0.37252154248E+03  0.49408124389E+03  0.00000000000E+00 0.  1.
         -1    1    6    6    0  502 -0.16827740793E+03  0.25723709415E+03 -0.16896158257E+04  0.17173496578E+04  0.00000000000E+00 0.  1.
<mgrwt>
<rscale>  0 0.13719917E+04</rscale>
<asrwt>0</asrwt>
<pdfrwt beam="1">  1        2 0.38666325E+00 0.13719917E+04</pdfrwt>
<pdfrwt beam="2">  1       -2 0.28806027E-01 0.13719917E+04</pdfrwt>
<totfact> 0.37037444E+01</totfact>
</mgrwt>
</event>
<event>
12    1  0.1536832E-007  0.1449700E+04  0.7818608E-02  0.8918608E-01
         -2   -1    0    0    0  501 -0.00000000000E+00  0.00000000000E+00  0.27701900497E+04  0.27701900497E+04  0.00000000000E+00 0.  1.
          2   -1    0    0  501    0  0.00000000000E+00 -0.00000000000E+00 -0.18966489571E+03  0.18966489571E+03  0.00000000000E+00 0. -1.
         23    2    1    2    0    0 -0.31761819638E+03 -0.16168038773E+03  0.28418581933E+03  0.46490890179E+03  0.91415756873E+02 0.  0.
        254    2    1    2    0    0  0.31761819638E+03  0.16168038773E+03  0.22963393347E+04  0.24949460436E+04  0.90805261646E+03 0.  0.
        -24    2    4    4    0    0  0.57369164071E+03  0.20171952623E+03  0.10207883589E+04  0.11908485591E+04  0.79363412341E+02 0.  0.
         24    2    4    4    0    0 -0.25607344433E+03 -0.40039138500E+02  0.12755509758E+04  0.13040974845E+04  0.80394128093E+02 0.  0.
         11    1    3    3    0    0 -0.24098256923E+03 -0.11923852538E+03  0.26002099564E+03  0.37403387919E+03  0.00000000000E+00 0. -1.
        -11    1    3    3    0    0 -0.76635627151E+02 -0.42441862347E+02  0.24164823691E+02  0.90875022599E+02  0.00000000000E+00 0.  1.
          4    1    6    6  502    0 -0.15083519802E+03 -0.52396420637E+02  0.89199161206E+03  0.90617088777E+03  0.00000000000E+00 0. -1.
          1    1    5    5  503    0  0.65374993287E+02  0.45049822252E+02  0.10279472092E+03  0.12988506797E+03  0.00000000000E+00 0. -1.
         -2    1    5    5    0  503  0.50831664742E+03  0.15666970398E+03  0.91799363799E+03  0.10609634912E+04  0.00000000000E+00 0.  1.
         -1    1    6    6    0  502 -0.10523824631E+03  0.12357282137E+02  0.38355936370E+03  0.39792659674E+03  0.00000000000E+00 0.  1.
<mgrwt>
<rscale>  0 0.14497004E+04</rscale>
<asrwt>0</asrwt>
<pdfrwt beam="1">  1        2 0.29179217E-01 0.14497004E+04</pdfrwt>
<pdfrwt beam="2">  1       -2 0.42618305E+00 0.14497004E+04</pdfrwt>
<totfact> 0.89928358E-01</totfact>
</mgrwt>
</event>
<event>
12    1  0.1536832E-007  0.1909517E+04  0.7818608E-02  0.8650134E-01
         -2   -1    0    0    0  501 -0.00000000000E+00  0.00000000000E+00  0.97572461319E+03  0.97572461319E+03  0.00000000000E+00 0.  1.
          2   -1    0    0  501    0  0.00000000000E+00 -0.00000000000E+00 -0.93424309569E+03  0.93424309569E+03  0.00000000000E+00 0. -1.
         23    2    1    2    0    0  0.66956307158E+02 -0.66618193044E+03  0.33120504971E+03  0.75246712397E+03  0.90710948563E+02 0.  0.
        254    2    1    2    0    0 -0.66956307158E+02  0.66618193044E+03 -0.28972353221E+03  0.11575005849E+04  0.89865809262E+03 0.  0.
        -24    2    4    4    0    0 -0.28807182130E+03  0.66807024689E+03  0.61797587564E+02  0.73445239434E+03  0.79360876449E+02 0.  0.
         24    2    4    4    0    0  0.22111551415E+03 -0.18883164474E+01 -0.35152111977E+03  0.42304819057E+03  0.80666210809E+02 0.  0.
         13    1    3    3    0    0 -0.20837383232E+02 -0.75652435229E+02  0.33197315175E+02  0.85202988391E+02  0.00000000000E+00 0. -1.
        -13    1    3    3    0    0  0.87793690390E+02 -0.59052949521E+03  0.29800773453E+03  0.66726413558E+03  0.00000000000E+00 0.  1.
          2    1    6    6  502    0  0.61777357991E+01  0.18252426243E+02 -0.34218084522E+02  0.39270762555E+02  0.00000000000E+00 0. -1.
          3    1    5    5  503    0 -0.82085989798E+02  0.22518138772E+03 -0.14348170559E+02  0.24010547077E+03  0.00000000000E+00 0. -1.
         -4    1    5    5    0  503 -0.20598583151E+03  0.44288885917E+03  0.76145758123E+02  0.49434692356E+03  0.00000000000E+00 0.  1.
         -1    1    6    6    0  502  0.21493777835E+03 -0.20140742690E+02 -0.31730303525E+03  0.38377742802E+03  0.00000000000E+00 0.  1.
<mgrwt>
<rscale>  0 0.19095172E+04</rscale>
<asrwt>0</asrwt>
<pdfrwt beam="1">  1        2 0.14372971E+00 0.19095172E+04</pdfrwt>
<pdfrwt beam="2">  1       -2 0.15011148E+00 0.19095172E+04</pdfrwt>
<totfact> 0.77810477E+00</totfact>
</mgrwt>
</event>
<event>
12    1  0.1536832E-007  0.2441113E+04  0.7818608E-02  0.8424270E-01
          1   -1    0    0  501    0  0.00000000000E+00  0.00000000000E+00  0.58380105869E+03  0.58380105869E+03  0.00000000000E+00 0. -1.
         -1   -1    0    0    0  501 -0.00000000000E+00 -0.00000000000E+00 -0.25518243240E+04  0.25518243240E+04  0.00000000000E+00 0.  1.
         23    2    1    2    0    0  0.83327306379E+03 -0.19685851975E+03 -0.16361016939E+04  0.18488381928E+04  0.90976011795E+02 0.  0.
        254    2    1    2    0    0 -0.83327306379E+03  0.19685851975E+03 -0.33192157137E+03  0.12867871899E+04  0.90141669986E+03 0.  0.
        -24    2    4    4    0    0 -0.46876982789E+03  0.79500006104E+02  0.28212252708E+03  0.55858226415E+03  0.79722161413E+02 0.  0.
         24    2    4    4    0    0 -0.36450323590E+03  0.11735851365E+03 -0.61404409845E+03  0.72820492570E+03  0.81219636006E+02 0.  0.
         13    1    3    3    0    0  0.39795273588E+03 -0.57392956419E+02 -0.70549972495E+03  0.81202844368E+03  0.00000000000E+00 0. -1.
        -13    1    3    3    0    0  0.43532032791E+03 -0.13946556333E+03 -0.93060196898E+03  0.10368097491E+04  0.00000000000E+00 0.  1.
          4    1    6    6  502    0 -0.55231434057E+00 -0.52142115578E+01 -0.21224958352E+02  0.21863026103E+02  0.00000000000E+00 0. -1.
          3    1    5    5  503    0 -0.12952633907E+03  0.54552448812E+02  0.63494096752E+02  0.15422238005E+03  0.00000000000E+00 0. -1.
         -4    1    5    5    0  503 -0.33924348882E+03  0.24947557291E+02  0.21862843033E+03  0.40435988410E+03  0.00000000000E+00 0.  1.
         -3    1    6    6    0  502 -0.36395092156E+03  0.12257272521E+03 -0.59281914010E+03  0.70634189960E+03  0.00000000000E+00 0.  1.
<mgrwt>
<rscale>  0 0.24411126E+04</rscale>
<asrwt>0</asrwt>
<pdfrwt beam="1">  1        1 0.89815548E-01 0.24411126E+04</pdfrwt>
<pdfrwt beam="2">  1       -1 0.39258835E+00 0.24411126E+04</pdfrwt>
<totfact> 0.25576947E-01</totfact>
</mgrwt>
</event>
<event>
12    1  0.1536832E-007  0.2168769E+04  0.7818608E-02  0.8531541E-01
          2   -1    0    0  501    0  0.00000000000E+00  0.00000000000E+00  0.11103234825E+04  0.11103234825E+04  0.00000000000E+00 0. -1.
         -2   -1    0    0    0  501 -0.00000000000E+00 -0.00000000000E+00 -0.10590513852E+04  0.10590513852E+04  0.00000000000E+00 0.  1.
         23    2    1    2    0    0  0.50307727680E+02 -0.45740876322E+03 -0.74338614345E+03  0.87894209738E+03  0.90347153466E+02 0.  0.
        254    2    1    2    0    0 -0.50307727680E+02  0.45740876322E+03  0.79465824077E+03  0.12904327703E+04  0.90663188277E+03 0.  0.
        -24    2    4    4    0    0 -0.40097511398E+03  0.41449992602E+03  0.71200434974E+03  0.92029964302E+03  0.86081404468E+02 0.  0.
         24    2    4    4    0    0  0.35066738630E+03  0.42908837196E+02  0.82653891033E+02  0.37013312726E+03  0.73198921237E+02 0.  0.
         13    1    3    3    0    0  0.62332154298E+02 -0.16842468139E+03 -0.27478010747E+03  0.32826251419E+03  0.00000000000E+00 0. -1.
        -13    1    3    3    0    0 -0.12024426618E+02 -0.28898408183E+03 -0.46860603598E+03  0.55067958319E+03  0.00000000000E+00 0.  1.
          2    1    6    6  502    0  0.23741650374E+03  0.61028395046E+02  0.43647296890E+02  0.24899025639E+03  0.00000000000E+00 0. -1.
          3    1    5    5  503    0 -0.40619033239E+02  0.19637490501E+02  0.85887454991E+02  0.97016451282E+02  0.00000000000E+00 0. -1.
         -4    1    5    5    0  503 -0.36035608074E+03  0.39486243552E+03  0.62611689474E+03  0.82328319174E+03  0.00000000000E+00 0.  1.
         -1    1    6    6    0  502  0.11325088256E+03 -0.18119557850E+02  0.39006594143E+02  0.12114287087E+03  0.00000000000E+00 0.  1.
<mgrwt>
<rscale>  0 0.21687689E+04</rscale>
<asrwt>0</asrwt>
<pdfrwt beam="1">  1        2 0.17081900E+00 0.21687689E+04</pdfrwt>
<pdfrwt beam="2">  1       -2 0.16293098E+00 0.21687689E+04</pdfrwt>
<totfact> 0.47155410E+00</totfact>
</mgrwt>
</event>
<event>
12    1  0.1536832E-007  0.1397206E+04  0.7818608E-02  0.8955843E-01
         -2   -1    0    0    0  501 -0.00000000000E+00  0.00000000000E+00  0.49469207872E+03  0.49469207872E+03  0.00000000000E+00 0.  1.
          2   -1    0    0  501    0  0.00000000000E+00 -0.00000000000E+00 -0.98656591978E+03  0.98656591978E+03  0.00000000000E+00 0. -1.
         23    2    1    2    0    0  0.60367252321E+02 -0.95672121191E+02 -0.55714476956E+03  0.57669500721E+03  0.96796059642E+02 0.  0.
        254    2    1    2    0    0 -0.60367252321E+02  0.95672121191E+02  0.65270928499E+02  0.90456299129E+03  0.89508466146E+03 0.  0.
        -24    2    4    4    0    0 -0.45357205743E+03  0.15472445469E+03 -0.33479250968E+02  0.48695064451E+03  0.79578902845E+02 0.  0.
         24    2    4    4    0    0  0.39320480511E+03 -0.59052333503E+02  0.98750179467E+02  0.41761234679E+03  0.80939961656E+02 0.  0.
         13    1    3    3    0    0  0.40159280636E+01  0.11437068511E+02 -0.83648232393E+01  0.14727677419E+02  0.00000000000E+00 0.  1.
        -13    1    3    3    0    0  0.56351324258E+02 -0.10710918970E+03 -0.54877994632E+03  0.56196732979E+03  0.00000000000E+00 0. -1.
          4    1    6    6  502    0  0.14392174733E+03 -0.55747789280E+02  0.17142917936E+02  0.15529058245E+03  0.00000000000E+00 0. -1.
          1    1    5    5  503    0 -0.36172999189E+03  0.15548672491E+03 -0.21379047430E+02  0.39431177046E+03  0.00000000000E+00 0. -1.
         -2    1    5    5    0  503 -0.91842065538E+02 -0.76227021573E+00 -0.12100203538E+02  0.92638874042E+02  0.00000000000E+00 0.  1.
         -3    1    6    6    0  502  0.24928305778E+03 -0.33045442228E+01  0.81607261531E+02  0.26232176434E+03  0.00000000000E+00 0.  1.
<mgrwt>
<rscale>  0 0.13972063E+04</rscale>
<asrwt>0</asrwt>
<pdfrwt beam="1">  1        2 0.15177937E+00 0.13972063E+04</pdfrwt>
<pdfrwt beam="2">  1       -2 0.76106475E-01 0.13972063E+04</pdfrwt>
<totfact> 0.38675979E+01</totfact>
</mgrwt>
</event>
<event>
12    1  0.1536832E-007  0.1409839E+04  0.7818608E-02  0.8946727E-01
          2   -1    0    0  501    0  0.00000000000E+00  0.00000000000E+00  0.32732011272E+04  0.32732011272E+04  0.00000000000E+00 0. -1.
         -2   -1    0    0    0  501 -0.00000000000E+00 -0.00000000000E+00 -0.15181203962E+03  0.15181203962E+03  0.00000000000E+00 0.  1.
         23    2    1    2    0    0 -0.12378626429E+03 -0.39816251414E+03  0.82621632492E+03  0.92999515555E+03  0.91657770525E+02 0.  0.
        254    2    1    2    0    0  0.12378626429E+03  0.39816251414E+03  0.22951727627E+04  0.24950180113E+04  0.88512170869E+03 0.  0.
        -24    2    4    4    0    0  0.21304575852E+03 -0.23802231713E+03  0.71490542821E+03  0.78717311924E+03  0.80676078793E+02 0.  0.
         24    2    4    4    0    0 -0.89259494228E+02  0.63618483127E+03  0.15802673345E+04  0.17078448920E+04  0.82407099495E+02 0.  0.
         13    1    3    3    0    0 -0.70889334275E+02 -0.23381206234E+03  0.38249884294E+03  0.45387084403E+03  0.00000000000E+00 0. -1.
        -13    1    3    3    0    0 -0.52896930020E+02 -0.16435045181E+03  0.44371748198E+03  0.47612431153E+03  0.00000000000E+00 0.  1.
          4    1    6    6  502    0 -0.98486013098E+02  0.51629649113E+03  0.12332099563E+04  0.13405477827E+04  0.00000000000E+00 0. -1.
          3    1    5    5  503    0  0.21372985999E+03 -0.20531382821E+03  0.65460971253E+03  0.71857365444E+03  0.00000000000E+00 0. -1.
         -4    1    5    5    0  503 -0.68410146878E+00 -0.32708488915E+02  0.60295715678E+02  0.68599464801E+02  0.00000000000E+00 0.  1.
         -3    1    6    6    0  502  0.92265188694E+01  0.11988834014E+03  0.34705737817E+03  0.36729710930E+03  0.00000000000E+00 0.  1.
<mgrwt>
<rscale>  0 0.14098388E+04</rscale>
<asrwt>0</asrwt>
<pdfrwt beam="1">  1        2 0.50356935E+00 0.14098388E+04</pdfrwt>
<pdfrwt beam="2">  1       -2 0.23355701E-01 0.14098388E+04</pdfrwt>
<totfact> 0.18550696E+01</totfact>
</mgrwt>
</event>
<event>
12    1  0.1536832E-007  0.1652507E+04  0.7818608E-02  0.8788925E-01
          2   -1    0    0  501    0  0.00000000000E+00  0.00000000000E+00  0.52213004362E+03  0.52213004362E+03  0.00000000000E+00 0. -1.
         -2   -1    0    0    0  501 -0.00000000000E+00 -0.00000000000E+00 -0.13075188737E+04  0.13075188737E+04  0.00000000000E+00 0.  1.
         23    2    1    2    0    0  0.40724824186E+02 -0.44460590669E+03 -0.70139611044E+03  0.83689210297E+03  0.95388493494E+02 0.  0.
        254    2    1    2    0    0 -0.40724824186E+02  0.44460590669E+03 -0.83992719613E+02  0.99275681433E+03  0.88271082008E+03 0.  0.
        -24    2    4    4    0    0 -0.34709003228E+03  0.53807775699E+03  0.22792954978E+02  0.64551750172E+03  0.78575843322E+02 0.  0.
         24    2    4    4    0    0  0.30636520809E+03 -0.93471850292E+02 -0.10678567459E+03  0.34723931262E+03  0.81088423367E+02 0.  0.
         11    1    3    3    0    0 -0.14417348790E+02 -0.15496286918E+03 -0.18043308441E+03  0.23828018952E+03  0.00000000000E+00 0. -1.
        -11    1    3    3    0    0  0.55142172977E+02 -0.28964303752E+03 -0.52096302603E+03  0.59861191344E+03  0.00000000000E+00 0.  1.
          2    1    6    6  502    0  0.17290994717E+03 -0.55704415980E+02 -0.17981458922E+02  0.18254907465E+03  0.00000000000E+00 0. -1.
          1    1    5    5  503    0 -0.12764957158E+03  0.17252781973E+03 -0.26807759299E+02  0.21628434447E+03  0.00000000000E+00 0. -1.
         -2    1    5    5    0  503 -0.21944046070E+03  0.36554993726E+03  0.49600714277E+02  0.42923315725E+03  0.00000000000E+00 0.  1.
         -1    1    6    6    0  502  0.13345526092E+03 -0.37767434312E+02 -0.88804215669E+02  0.16469023797E+03  0.00000000000E+00 0.  1.
<mgrwt>
<rscale>  0 0.16525070E+04</rscale>
<asrwt>0</asrwt>
<pdfrwt beam="1">  1        2 0.80327700E-01 0.16525070E+04</pdfrwt>
<pdfrwt beam="2">  1       -2 0.20115675E+00 0.16525070E+04</pdfrwt>
<totfact> 0.72999729E+00</totfact>
</mgrwt>
</event>
<event>
12    1  0.1536832E-007  0.3012138E+04  0.7818608E-02  0.8240273E-01
          2   -1    0    0  501    0  0.00000000000E+00  0.00000000000E+00  0.26276866738E+04  0.26276866738E+04  0.00000000000E+00 0. -1.
         -2   -1    0    0    0  501 -0.00000000000E+00 -0.00000000000E+00 -0.86320917497E+03  0.86320917497E+03  0.00000000000E+00 0.  1.
         23    2    1    2    0    0  0.24267729855E+03 -0.13451863592E+04  0.93082752652E+03  0.16562527968E+04  0.91185692194E+02 0.  0.
        254    2    1    2    0    0 -0.24267729855E+03  0.13451863592E+04  0.83364997234E+03  0.18346430520E+04  0.89583717260E+03 0.  0.
        -24    2    4    4    0    0 -0.37293110585E+03  0.11581562510E+04  0.96862124615E+03  0.15572360100E+04  0.79707971989E+02 0.  0.
         24    2    4    4    0    0  0.13025380730E+03  0.18703010821E+03 -0.13497127380E+03  0.27740704208E+03  0.82408170422E+02 0.  0.
         11    1    3    3    0    0  0.58263605903E+02 -0.30435243812E+03  0.16610724085E+03  0.35159162365E+03  0.00000000000E+00 0.  1.
        -11    1    3    3    0    0  0.18441369265E+03 -0.10408339211E+04  0.76472028567E+03  0.13046611731E+04  0.00000000000E+00 0. -1.
          4    1    6    6  502    0  0.31996290492E+02  0.73143267469E+02 -0.73989040434E+01  0.80177577678E+02  0.00000000000E+00 0. -1.
          3    1    5    5  503    0 -0.15403339916E+02  0.17068676042E+02  0.25076773103E+02  0.34021274692E+02  0.00000000000E+00 0. -1.
         -4    1    5    5    0  503 -0.35752776593E+03  0.11410875749E+04  0.94354447305E+03  0.15232147353E+04  0.00000000000E+00 0.  1.
         -3    1    6    6    0  502  0.98257516808E+02  0.11388684074E+03 -0.12757236976E+03  0.19722946440E+03  0.00000000000E+00 0.  1.
<mgrwt>
<rscale>  0 0.30121376E+04</rscale>
<asrwt>0</asrwt>
<pdfrwt beam="1">  1        2 0.40425948E+00 0.30121376E+04</pdfrwt>
<pdfrwt beam="2">  1       -2 0.13280141E+00 0.30121376E+04</pdfrwt>
<totfact> 0.10308879E+00</totfact>
</mgrwt>
</event>
<event>
12    1  0.1536832E-007  0.1705793E+04  0.7818608E-02  0.8758067E-01
         -2   -1    0    0    0  501 -0.00000000000E+00  0.00000000000E+00  0.12686472656E+04  0.12686472656E+04  0.00000000000E+00 0.  1.
          2   -1    0    0  501    0  0.00000000000E+00 -0.00000000000E+00 -0.57339196067E+03  0.57339196067E+03  0.00000000000E+00 0. -1.
         23    2    1    2    0    0 -0.41024929027E+03 -0.24035219215E+03 -0.16319785274E+03  0.51129638016E+03  0.93363765950E+02 0.  0.
        254    2    1    2    0    0  0.41024929027E+03  0.24035219215E+03  0.85845315770E+03  0.13307428461E+04  0.89881090454E+03 0.  0.
        -24    2    4    4    0    0  0.16344732117E+03  0.16522023315E+03  0.99725543531E+03  0.10270913455E+04  0.79909176103E+02 0.  0.
         24    2    4    4    0    0  0.24680196909E+03  0.75131958996E+02 -0.13880227761E+03  0.30365150067E+03  0.79888286880E+02 0.  0.
         13    1    3    3    0    0 -0.36519328306E+03 -0.24189725796E+03 -0.15905241425E+03  0.46602369884E+03  0.00000000000E+00 0. -1.
        -13    1    3    3    0    0 -0.45056007207E+02  0.15450658161E+01 -0.41454384964E+01  0.45272681323E+02  0.00000000000E+00 0.  1.
          2    1    6    6  502    0  0.54042852591E+02  0.52656376628E+02 -0.30270764731E+02  0.81299711642E+02  0.00000000000E+00 0. -1.
          3    1    5    5  503    0  0.10379861989E+03  0.63567524291E+02  0.62070518257E+03  0.63252660601E+03  0.00000000000E+00 0. -1.
         -4    1    5    5    0  503  0.59648701283E+02  0.10165270886E+03  0.37655025274E+03  0.39456473945E+03  0.00000000000E+00 0.  1.
         -3    1    6    6    0  502  0.19275911650E+03  0.22475582368E+02 -0.10853151287E+03  0.22235178903E+03  0.00000000000E+00 0.  1.
<mgrwt>
<rscale>  0 0.17057927E+04</rscale>
<asrwt>0</asrwt>
<pdfrwt beam="1">  1        2 0.88214148E-01 0.17057927E+04</pdfrwt>
<pdfrwt beam="2">  1       -2 0.19517650E+00 0.17057927E+04</pdfrwt>
<totfact> 0.71245947E+00</totfact>
</mgrwt>
</event>
<event>
12    1  0.1905905E-007  0.2826993E+04  0.7818608E-02  0.8294937E-01
          1   -1    0    0  501    0  0.00000000000E+00  0.00000000000E+00  0.19470771887E+04  0.19470771887E+04  0.00000000000E+00 0. -1.
         -1   -1    0    0    0  501 -0.00000000000E+00 -0.00000000000E+00 -0.10261391398E+04  0.10261391398E+04  0.00000000000E+00 0.  1.
         23    2    1    2    0    0 -0.84171428225E+03  0.49094967481E+03  0.11656186024E+04  0.15220111021E+04  0.91304722697E+02 0.  0.
        254    2    1    2    0    0  0.84171428225E+03 -0.49094967481E+03 -0.24468055359E+03  0.14512052264E+04  0.10471931626E+04 0.  0.
        -24    2    4    4    0    0  0.99457326546E+03 -0.17201766603E+03  0.21104892868E+01  0.10125032913E+04  0.79952504652E+02 0.  0.
         24    2    4    4    0    0 -0.15285898321E+03 -0.31893200878E+03 -0.24679104288E+03  0.43870193511E+03  0.80436770520E+02 0.  0.
         11    1    3    3    0    0 -0.78608583608E+03  0.46985891833E+03  0.10602705460E+04  0.14010253301E+04  0.00000000000E+00 0. -1.
        -11    1    3    3    0    0 -0.55628446166E+02  0.21090756482E+02  0.10534805643E+03  0.12098577200E+03  0.00000000000E+00 0.  1.
          2    1    6    6  502    0 -0.15725955124E+03 -0.31548172978E+03 -0.22974880039E+03  0.42076573002E+03  0.00000000000E+00 0. -1.
          1    1    5    5  503    0  0.82359217151E+03 -0.12354173651E+03  0.25831948510E+02  0.83320700621E+03  0.00000000000E+00 0. -1.
         -2    1    5    5    0  503  0.17098109395E+03 -0.48475929523E+02 -0.23721459223E+02  0.17929628512E+03  0.00000000000E+00 0.  1.
         -1    1    6    6    0  502  0.44005680220E+01 -0.34502790036E+01 -0.17042242486E+02  0.17936205091E+02  0.00000000000E+00 0.  1.
<mgrwt>
<rscale>  0 0.28269928E+04</rscale>
<asrwt>0</asrwt>
<pdfrwt beam="1">  1        1 0.29955034E+00 0.28269928E+04</pdfrwt>
<pdfrwt beam="2">  1       -1 0.15786756E+00 0.28269928E+04</pdfrwt>
<totfact> 0.84812654E-01</totfact>
</mgrwt>
</event>
<event>
12    1  0.1536832E-007  0.1910143E+04  0.7818608E-02  0.8649824E-01
         -2   -1    0    0    0  501 -0.00000000000E+00  0.00000000000E+00  0.36480297289E+03  0.36480297289E+03  0.00000000000E+00 0.  1.
          2   -1    0    0  501    0  0.00000000000E+00 -0.00000000000E+00 -0.25004224360E+04  0.25004224360E+04  0.00000000000E+00 0. -1.
         23    2    1    2    0    0  0.48642551347E+03 -0.22748686597E+03 -0.82908189092E+02  0.55093885265E+03  0.91103222738E+02 0.  0.
        254    2    1    2    0    0 -0.48642551347E+03  0.22748686597E+03 -0.20527112740E+04  0.23142865562E+04  0.92408800207E+03 0.  0.
        -24    2    4    4    0    0 -0.42328323906E+03 -0.30085628802E+03 -0.89116005821E+03  0.10342186597E+04  0.75886626950E+02 0.  0.
         24    2    4    4    0    0 -0.63142274412E+02  0.52834315398E+03 -0.11615512158E+04  0.12800678966E+04  0.78988339066E+02 0.  0.
         13    1    3    3    0    0  0.84107594326E+02 -0.70993468050E+02 -0.40088484299E+02  0.11713772451E+03  0.00000000000E+00 0. -1.
        -13    1    3    3    0    0  0.40231791914E+03 -0.15649339792E+03 -0.42819704792E+02  0.43380112814E+03  0.00000000000E+00 0.  1.
          2    1    6    6  502    0 -0.42836200516E+02  0.50532340027E+03 -0.11008447852E+04  0.12120420455E+04  0.00000000000E+00 0. -1.
          1    1    5    5  503    0 -0.22624853138E+03 -0.12465814023E+03 -0.39340336878E+03  0.47063176735E+03  0.00000000000E+00 0. -1.
         -2    1    5    5    0  503 -0.19703470768E+03 -0.17619814779E+03 -0.49775668943E+03  0.56358689232E+03  0.00000000000E+00 0.  1.
         -1    1    6    6    0  502 -0.20306073896E+02  0.23019753717E+02 -0.60706430593E+02  0.68025851068E+02  0.00000000000E+00 0.  1.
<mgrwt>
<rscale>  0 0.19101430E+04</rscale>
<asrwt>0</asrwt>
<pdfrwt beam="1">  1        2 0.38468036E+00 0.19101430E+04</pdfrwt>
<pdfrwt beam="2">  1       -2 0.56123537E-01 0.19101430E+04</pdfrwt>
<totfact> 0.97119348E+00</totfact>
</mgrwt>
</event>
<event>
12    1  0.1717467E-007  0.2514444E+04  0.7818608E-02  0.8397858E-01
         -2   -1    0    0    0  501 -0.00000000000E+00  0.00000000000E+00  0.91140869853E+03  0.91140869853E+03  0.00000000000E+00 0.  1.
          2   -1    0    0  501    0  0.00000000000E+00 -0.00000000000E+00 -0.17342464252E+04  0.17342464252E+04  0.00000000000E+00 0. -1.
         23    2    1    2    0    0 -0.89632935651E+03 -0.23800254643E+03  0.25418744545E+03  0.96592529878E+03  0.91372304154E+02 0.  0.
        254    2    1    2    0    0  0.89632935651E+03  0.23800254643E+03 -0.10770251721E+04  0.16797298249E+04  0.89524160760E+03 0.  0.
        -24    2    4    4    0    0  0.25706951780E+03  0.47850761546E+03 -0.71627555534E+03  0.90251490339E+03  0.80176085169E+02 0.  0.
         24    2    4    4    0    0  0.63925983870E+03 -0.24050506903E+03 -0.36074961677E+03  0.77721492155E+03  0.86179572222E+02 0.  0.
         11    1    3    3    0    0 -0.87068215542E+03 -0.21394159359E+03  0.24146362095E+03  0.92852738326E+03  0.00000000000E+00 0.  1.
        -11    1    3    3    0    0 -0.25647201089E+02 -0.24060952844E+02  0.12723824494E+02  0.37397915520E+02  0.00000000000E+00 0. -1.
          4    1    6    6  502    0  0.63815212515E+02 -0.21548284452E+02 -0.67119054272E+02  0.95087735053E+02  0.00000000000E+00 0. -1.
          3    1    5    5  503    0  0.58915299604E+02  0.55972017994E+02 -0.86752853446E+02  0.11886941115E+03  0.00000000000E+00 0. -1.
         -4    1    5    5    0  503  0.19815421820E+03  0.42253559746E+03 -0.62952270189E+03  0.78364549224E+03  0.00000000000E+00 0.  1.
         -3    1    6    6    0  502  0.57544462619E+03 -0.21895678457E+03 -0.29363056250E+03  0.68212718649E+03  0.00000000000E+00 0.  1.
<mgrwt>
<rscale>  0 0.25144441E+04</rscale>
<asrwt>0</asrwt>
<pdfrwt beam="1">  1        2 0.26680714E+00 0.25144441E+04</pdfrwt>
<pdfrwt beam="2">  1       -2 0.14021672E+00 0.25144441E+04</pdfrwt>
<totfact> 0.29913866E+00</totfact>
</mgrwt>
</event>
<event>
12    1  0.1536832E-007  0.1886783E+04  0.7818608E-02  0.8661463E-01
         -1   -1    0    0    0  501 -0.00000000000E+00  0.00000000000E+00  0.46696602760E+03  0.46696602760E+03  0.00000000000E+00 0.  1.
          1   -1    0    0  501    0  0.00000000000E+00 -0.00000000000E+00 -0.19058937201E+04  0.19058937201E+04  0.00000000000E+00 0. -1.
         23    2    1    2    0    0  0.17420950418E+03 -0.70103731895E+03 -0.53102256877E+03  0.90218406694E+03  0.10074149188E+03 0.  0.
        254    2    1    2    0    0 -0.17420950418E+03  0.70103731895E+03 -0.90790512377E+03  0.14706756808E+04  0.90376599318E+03 0.  0.
        -24    2    4    4    0    0  0.22090711305E+03  0.69122129683E+03 -0.71845548668E+03  0.10243681508E+04  0.81024615574E+02 0.  0.
         24    2    4    4    0    0 -0.39511661723E+03  0.98160221203E+01 -0.18944963709E+03  0.44630752997E+03  0.84176901848E+02 0.  0.
         11    1    3    3    0    0  0.85410724061E+02 -0.18178092444E+03 -0.11952392144E+03  0.23372048278E+03  0.00000000000E+00 0.  1.
        -11    1    3    3    0    0  0.88798780119E+02 -0.51925639451E+03 -0.41149864733E+03  0.66846358416E+03  0.00000000000E+00 0. -1.
          4    1    6    6  502    0 -0.18907171998E+03 -0.22221237315E+02 -0.12620518269E+03  0.22840675739E+03  0.00000000000E+00 0. -1.
          3    1    5    5  503    0  0.14333540008E+03  0.50976344930E+03 -0.47861935066E+03  0.71377888312E+03  0.00000000000E+00 0. -1.
         -4    1    5    5    0  503  0.77571712977E+02  0.18145784752E+03 -0.23983613602E+03  0.31058926772E+03  0.00000000000E+00 0.  1.
         -3    1    6    6    0  502 -0.20604489725E+03  0.32037259436E+02 -0.63244454406E+02  0.21790077257E+03  0.00000000000E+00 0.  1.
<mgrwt>
<rscale>  0 0.18867831E+04</rscale>
<asrwt>0</asrwt>
<pdfrwt beam="1">  1        1 0.29321442E+00 0.18867831E+04</pdfrwt>
<pdfrwt beam="2">  1       -1 0.71840927E-01 0.18867831E+04</pdfrwt>
<totfact> 0.63231401E+00</totfact>
</mgrwt>
</event>
<event>
12    1  0.1536832E-007  0.3063589E+04  0.7818608E-02  0.8225802E-01
          1   -1    0    0  501    0  0.00000000000E+00  0.00000000000E+00  0.27429743046E+04  0.27429743046E+04  0.00000000000E+00 0. -1.
         -1   -1    0    0    0  501 -0.00000000000E+00 -0.00000000000E+00 -0.85541987576E+03  0.85541987576E+03  0.00000000000E+00 0.  1.
         23    2    1    2    0    0  0.61894745575E+03  0.59836878934E+03 -0.43092910761E+03  0.96682732816E+03  0.88960809640E+02 0.  0.
        254    2    1    2    0    0 -0.61894745575E+03 -0.59836878934E+03  0.23184835365E+04  0.26315668522E+04  0.89924247440E+03 0.  0.
        -24    2    4    4    0    0  0.21082133046E+03 -0.24395818909E+03  0.74992484193E+03  0.82022296151E+03  0.80107469373E+02 0.  0.
         24    2    4    4    0    0 -0.82976878622E+03 -0.35441060025E+03  0.15685586945E+04  0.18113438907E+04  0.80418903317E+02 0.  0.
         13    1    3    3    0    0  0.32666639670E+03  0.33973112447E+03 -0.28113026534E+03  0.54878265075E+03  0.00000000000E+00 0.  1.
        -13    1    3    3    0    0  0.29228105905E+03  0.25863766487E+03 -0.14979884226E+03  0.41804467741E+03  0.00000000000E+00 0. -1.
          4    1    6    6  502    0 -0.78588398519E+03 -0.33441987733E+03  0.14425797719E+04  0.16764506228E+04  0.00000000000E+00 0. -1.
          1    1    5    5  503    0  0.18140932768E+03 -0.15630197834E+03  0.52465974176E+03  0.57672133411E+03  0.00000000000E+00 0. -1.
         -2    1    5    5    0  503  0.29412002786E+02 -0.87656210747E+02  0.22526510017E+03  0.24350162740E+03  0.00000000000E+00 0.  1.
         -3    1    6    6    0  502 -0.43884801033E+02 -0.19990722923E+02  0.12597892265E+03  0.13489326787E+03  0.00000000000E+00 0.  1.
<mgrwt>
<rscale>  0 0.30635892E+04</rscale>
<asrwt>0</asrwt>
<pdfrwt beam="1">  1        1 0.42199604E+00 0.30635892E+04</pdfrwt>
<pdfrwt beam="2">  1       -1 0.13160306E+00 0.30635892E+04</pdfrwt>
<totfact> 0.38053905E-01</totfact>
</mgrwt>
</event>
<event>
12    1  0.1536832E-007  0.2421955E+04  0.7818608E-02  0.8431329E-01
          2   -1    0    0  501    0  0.00000000000E+00  0.00000000000E+00  0.13984729609E+04  0.13984729609E+04  0.00000000000E+00 0. -1.
         -2   -1    0    0    0  501 -0.00000000000E+00 -0.00000000000E+00 -0.10486200560E+04  0.10486200560E+04  0.00000000000E+00 0.  1.
         23    2    1    2    0    0  0.44281209835E+03  0.78335239296E+03 -0.33333763379E+03  0.96363290025E+03  0.88038981906E+02 0.  0.
        254    2    1    2    0    0 -0.44281209835E+03 -0.78335239296E+03  0.68319053871E+03  0.14834601167E+04  0.96134337237E+03 0.  0.
        -24    2    4    4    0    0 -0.30644596981E+03  0.14296820888E+03  0.33282222070E+03  0.48057691192E+03  0.76383876048E+02 0.  0.
         24    2    4    4    0    0 -0.13636612855E+03 -0.92632060183E+03  0.35036831802E+03  0.10028832048E+04  0.79694326783E+02 0.  0.
         11    1    3    3    0    0  0.68783592081E+02  0.68902672780E+02 -0.44326546845E+02  0.10697478026E+03  0.00000000000E+00 0. -1.
        -11    1    3    3    0    0  0.37402850627E+03  0.71444972018E+03 -0.28901108695E+03  0.85665811999E+03  0.00000000000E+00 0.  1.
          4    1    6    6  502    0 -0.43649249326E+02 -0.55831163483E+03  0.19959425943E+03  0.59452082130E+03  0.00000000000E+00 0. -1.
          1    1    5    5  503    0 -0.39692291348E+02  0.68511927921E+01  0.12750662910E+02  0.42249215848E+02  0.00000000000E+00 0. -1.
         -2    1    5    5    0  503 -0.26675367846E+03  0.13611701609E+03  0.32007155779E+03  0.43832769607E+03  0.00000000000E+00 0.  1.
         -3    1    6    6    0  502 -0.92716879219E+02 -0.36800896700E+03  0.15077405859E+03  0.40836238346E+03  0.00000000000E+00 0.  1.
<mgrwt>
<rscale>  0 0.24219552E+04</rscale>
<asrwt>0</asrwt>
<pdfrwt beam="1">  1        2 0.21514969E+00 0.24219552E+04</pdfrwt>
<pdfrwt beam="2">  1       -2 0.16132616E+00 0.24219552E+04</pdfrwt>
<totfact> 0.32058374E+00</totfact>
</mgrwt>
</event>
<event>
12    1  0.1536832E-007  0.1335453E+04  0.7818608E-02  0.9001914E-01
          1   -1    0    0  501    0  0.00000000000E+00  0.00000000000E+00  0.10390850521E+04  0.10390850521E+04  0.00000000000E+00 0. -1.
         -1   -1    0    0    0  501 -0.00000000000E+00 -0.00000000000E+00 -0.42908751654E+03  0.42908751654E+03  0.00000000000E+00 0.  1.
         23    2    1    2    0    0  0.33056508832E+03  0.12711378237E+03  0.19106878708E+03  0.41327008626E+03  0.94094056751E+02 0.  0.
        254    2    1    2    0    0 -0.33056508832E+03 -0.12711378237E+03  0.41892874850E+03  0.10549024824E+04  0.90104759019E+03 0.  0.
        -24    2    4    4    0    0 -0.81390490802E+02 -0.25533792925E+03 -0.21744656925E+03  0.35494447342E+03  0.82949976630E+02 0.  0.
         24    2    4    4    0    0 -0.24917459751E+03  0.12822414689E+03  0.63637531775E+03  0.69995800899E+03  0.80238752583E+02 0.  0.
         11    1    3    3    0    0  0.20122513689E+03  0.94154252016E+02  0.69630857159E+02  0.23281974822E+03  0.00000000000E+00 0.  1.
        -11    1    3    3    0    0  0.12933995142E+03  0.32959530349E+02  0.12143792992E+03  0.18045033804E+03  0.00000000000E+00 0. -1.
          2    1    6    6  502    0  0.28441452132E+01  0.10530161974E+02  0.46955391962E+02  0.48205625268E+02  0.00000000000E+00 0. -1.
          3    1    5    5  503    0 -0.52325962974E+02 -0.57474135009E+02 -0.39199095234E+02  0.87050856764E+02  0.00000000000E+00 0. -1.
         -4    1    5    5    0  503 -0.29064527828E+02 -0.19786379425E+03 -0.17824747402E+03  0.26789361666E+03  0.00000000000E+00 0.  1.
         -1    1    6    6    0  502 -0.25201874273E+03  0.11769398492E+03  0.58941992579E+03  0.65175238372E+03  0.00000000000E+00 0.  1.
<mgrwt>
<rscale>  0 0.13354526E+04</rscale>
<asrwt>0</asrwt>
<pdfrwt beam="1">  1        1 0.15985924E+00 0.13354526E+04</pdfrwt>
<pdfrwt beam="2">  1       -1 0.66013464E-01 0.13354526E+04</pdfrwt>
<totfact> 0.32158317E+01</totfact>
</mgrwt>
</event>
<event>
12    1  0.1536832E-007  0.2444044E+04  0.7818608E-02  0.8423196E-01
         -1   -1    0    0    0  501 -0.00000000000E+00  0.00000000000E+00  0.16698808333E+04  0.16698808333E+04  0.00000000000E+00 0.  1.
          1   -1    0    0  501    0  0.00000000000E+00 -0.00000000000E+00 -0.89427831281E+03  0.89427831281E+03  0.00000000000E+00 0. -1.
         23    2    1    2    0    0  0.54504121165E+03  0.53028366678E+03 -0.43307039556E+03  0.87996150649E+03  0.92258309829E+02 0.  0.
        254    2    1    2    0    0 -0.54504121165E+03 -0.53028366678E+03  0.12086729161E+04  0.16841976397E+04  0.89295060428E+03 0.  0.
        -24    2    4    4    0    0 -0.50658834415E+03 -0.56397568020E+03  0.13288157256E+04  0.15319735947E+04  0.80570117820E+02 0.  0.
         24    2    4    4    0    0 -0.38452867499E+02  0.33692013425E+02 -0.12014280949E+03  0.15222404500E+03  0.78256567867E+02 0.  0.
         13    1    3    3    0    0  0.45931922646E+03  0.48832377174E+03 -0.38529291982E+03  0.77323016749E+03  0.00000000000E+00 0. -1.
        -13    1    3    3    0    0  0.85721985189E+02  0.41959895035E+02 -0.47777475740E+02  0.10673133900E+03  0.00000000000E+00 0.  1.
          4    1    6    6  502    0 -0.26048370637E+02  0.41901401430E+02 -0.12670036909E+03  0.13596774832E+03  0.00000000000E+00 0. -1.
          3    1    5    5  503    0 -0.47787073579E+03 -0.50152002636E+03  0.11864362430E+04  0.13738681653E+04  0.00000000000E+00 0. -1.
         -4    1    5    5    0  503 -0.28717608366E+02 -0.62455653848E+02  0.14237948262E+03  0.15810542938E+03  0.00000000000E+00 0.  1.
         -3    1    6    6    0  502 -0.12404496861E+02 -0.82093880054E+01  0.65575595977E+01  0.16256296678E+02  0.00000000000E+00 0.  1.
<mgrwt>
<rscale>  0 0.24440444E+04</rscale>
<asrwt>0</asrwt>
<pdfrwt beam="1">  1        1 0.13758128E+00 0.24440444E+04</pdfrwt>
<pdfrwt beam="2">  1       -1 0.25690474E+00 0.24440444E+04</pdfrwt>
<totfact> 0.10320421E+00</totfact>
</mgrwt>
</event>
<event>
12    1  0.1536832E-007  0.4361744E+04  0.7818608E-02  0.7935299E-01
          1   -1    0    0  501    0  0.00000000000E+00  0.00000000000E+00  0.37105458199E+04  0.37105458199E+04  0.00000000000E+00 0.  1.
         -1   -1    0    0    0  501 -0.00000000000E+00 -0.00000000000E+00 -0.12818065213E+04  0.12818065213E+04  0.00000000000E+00 0. -1.
         23    2    1    2    0    0  0.11984132038E+04  0.63241045570E+03 -0.64027280502E+03  0.15005571730E+04  0.74735352355E+02 0.  0.
        254    2    1    2    0    0 -0.11984132038E+04 -0.63241045570E+03  0.30690121036E+04  0.34917951682E+04  0.96832897990E+03 0.  0.
        -24    2    4    4    0    0  0.14433489229E+03  0.25425213679E+02  0.23392009349E+03  0.28559333173E+03  0.73252565611E+02 0.  0.
         24    2    4    4    0    0 -0.13427480961E+04 -0.65783566938E+03  0.28350920101E+04  0.32062018365E+04  0.79140969707E+02 0.  0.
         13    1    3    3    0    0  0.11372821350E+04  0.58032379996E+03 -0.60190798673E+03  0.14115521924E+04  0.00000000000E+00 0. -1.
        -13    1    3    3    0    0  0.61131068859E+02  0.52086655746E+02 -0.38364818289E+02  0.89004980586E+02  0.00000000000E+00 0.  1.
          2    1    6    6  502    0 -0.10324703104E+04 -0.46927450725E+03  0.21292423112E+04  0.24124440563E+04  0.00000000000E+00 0. -1.
          1    1    5    5  503    0  0.93169745498E+02  0.32267390573E+02  0.93089945133E+02  0.13560060419E+03  0.00000000000E+00 0. -1.
         -2    1    5    5    0  503  0.51165146792E+02 -0.68421768940E+01  0.14083014835E+03  0.14999272754E+03  0.00000000000E+00 0.  1.
         -1    1    6    6    0  502 -0.31027778575E+03 -0.18856116214E+03  0.70584969893E+03  0.79375778023E+03  0.00000000000E+00 0.  1.
<mgrwt>
<rscale>  0 0.43617436E+04</rscale>
<asrwt>0</asrwt>
<pdfrwt beam="1">  1        1 0.57085320E+00 0.43617436E+04</pdfrwt>
<pdfrwt beam="2">  1       -1 0.19720100E+00 0.43617436E+04</pdfrwt>
<totfact> 0.20181807E-02</totfact>
</mgrwt>
</event>
<event>
12    1  0.1536832E-007  0.1426042E+04  0.7818608E-02  0.8935181E-01
          2   -1    0    0  501    0  0.00000000000E+00  0.00000000000E+00  0.89272695336E+03  0.89272695336E+03  0.00000000000E+00 0. -1.
         -2   -1    0    0    0  501 -0.00000000000E+00 -0.00000000000E+00 -0.56948965264E+03  0.56948965264E+03  0.00000000000E+00 0.  1.
         23    2    1    2    0    0  0.27270662449E+03  0.32605882404E+03  0.29439049652E+02  0.43581239354E+03  0.91556129996E+02 0.  0.
        254    2    1    2    0    0 -0.27270662449E+03 -0.32605882404E+03  0.29379825107E+03  0.10264042125E+04  0.88685113477E+03 0.  0.
        -24    2    4    4    0    0 -0.15794839336E+03 -0.50865801104E+03  0.48695894269E+03  0.72608010484E+03  0.79891423861E+02 0.  0.
         24    2    4    4    0    0 -0.11475823113E+03  0.18259918700E+03 -0.19316069162E+03  0.30032410762E+03  0.79822315948E+02 0.  0.
         11    1    3    3    0    0  0.12936977828E+03  0.21945206125E+03 -0.13146429326E+00  0.25474647005E+03  0.00000000000E+00 0. -1.
        -11    1    3    3    0    0  0.14333684621E+03  0.10660676280E+03  0.29570513945E+02  0.18106592349E+03  0.00000000000E+00 0.  1.
          2    1    6    6  502    0 -0.27082684694E+02  0.11678405540E+03 -0.91483445614E+02  0.15080188403E+03  0.00000000000E+00 0. -1.
          3    1    5    5  503    0 -0.35265052695E+02 -0.16111615047E+03  0.10621748287E+03  0.19617388091E+03  0.00000000000E+00 0. -1.
         -4    1    5    5    0  503 -0.12268334067E+03 -0.34754186057E+03  0.38074145982E+03  0.52990622393E+03  0.00000000000E+00 0.  1.
         -1    1    6    6    0  502 -0.87675546439E+02  0.65815131601E+02 -0.10167724601E+03  0.14952222359E+03  0.00000000000E+00 0.  1.
<mgrwt>
<rscale>  0 0.14260417E+04</rscale>
<asrwt>0</asrwt>
<pdfrwt beam="1">  1        2 0.13734261E+00 0.14260417E+04</pdfrwt>
<pdfrwt beam="2">  1       -2 0.87613793E-01 0.14260417E+04</pdfrwt>
<totfact> 0.32400895E+01</totfact>
</mgrwt>
</event>
<event>
12    1  0.1536832E-007  0.1453531E+04  0.7818608E-02  0.8915956E-01
          2   -1    0    0  501    0  0.00000000000E+00  0.00000000000E+00  0.13885777051E+04  0.13885777051E+04  0.00000000000E+00 0. -1.
         -2   -1    0    0    0  501 -0.00000000000E+00 -0.00000000000E+00 -0.38038052556E+03  0.38038052556E+03  0.00000000000E+00 0.  1.
         23    2    1    2    0    0  0.21758361267E+03  0.23578753129E+03 -0.54944734089E+02  0.33817077670E+03  0.91663307799E+02 0.  0.
        254    2    1    2    0    0 -0.21758361267E+03 -0.23578753129E+03  0.10631419137E+04  0.14307874540E+04  0.90218824059E+03 0.  0.
        -24    2    4    4    0    0 -0.94995745230E+02 -0.26327382041E+02  0.11520624070E+04  0.11597000450E+04  0.89101526698E+02 0.  0.
         24    2    4    4    0    0 -0.12258786744E+03 -0.20946014925E+03 -0.88920493380E+02  0.27108740895E+03  0.81732427972E+02 0.  0.
         11    1    3    3    0    0  0.16369410203E+00  0.29039461880E+02 -0.21813494055E+02  0.36320044947E+02  0.00000000000E+00 0. -1.
        -11    1    3    3    0    0  0.21741991857E+03  0.20674806941E+03 -0.33131240034E+02  0.30185073176E+03  0.00000000000E+00 0.  1.
          4    1    6    6  502    0 -0.75074514266E+02 -0.10480121227E+03 -0.88101566437E+02  0.15614532588E+03  0.00000000000E+00 0. -1.
          3    1    5    5  503    0 -0.65778314696E+02 -0.47706726642E+02  0.49364498533E+03  0.50028800704E+03  0.00000000000E+00 0. -1.
         -4    1    5    5    0  503 -0.29217430534E+02  0.21379344601E+02  0.65841742171E+03  0.65941203798E+03  0.00000000000E+00 0.  1.
         -3    1    6    6    0  502 -0.47513353175E+02 -0.10465893698E+03 -0.81892694275E+00  0.11494208307E+03  0.00000000000E+00 0.  1.
<mgrwt>
<rscale>  0 0.14535308E+04</rscale>
<asrwt>0</asrwt>
<pdfrwt beam="1">  1        2 0.21362734E+00 0.14535308E+04</pdfrwt>
<pdfrwt beam="2">  1       -2 0.58520081E-01 0.14535308E+04</pdfrwt>
<totfact> 0.38881549E+01</totfact>
</mgrwt>
</event>
<event>
12    1  0.1536832E-007  0.2305338E+04  0.7818608E-02  0.8475819E-01
          1   -1    0    0  501    0  0.00000000000E+00  0.00000000000E+00  0.14422173635E+04  0.14422173635E+04  0.00000000000E+00 0. -1.
         -1   -1    0    0    0  501 -0.00000000000E+00 -0.00000000000E+00 -0.92125203355E+03  0.92125203355E+03  0.00000000000E+00 0.  1.
         23    2    1    2    0    0 -0.69134294384E+03  0.12316266256E+03 -0.47277525484E+03  0.85079637019E+03  0.84934766104E+02 0.  0.
        254    2    1    2    0    0  0.69134294384E+03 -0.12316266256E+03  0.99374058481E+03  0.15126730269E+04  0.89862963945E+03 0.  0.
        -24    2    4    4    0    0  0.72859773500E+03  0.22649565003E+03  0.77497786542E+03  0.10906825542E+04  0.82721238287E+02 0.  0.
         24    2    4    4    0    0 -0.37254791163E+02 -0.34965831259E+03  0.21876271939E+03  0.42199047266E+03  0.81055392110E+02 0.  0.
         11    1    3    3    0    0 -0.30323059298E+03  0.37366712463E+02 -0.15919661646E+03  0.34451215713E+03  0.00000000000E+00 0. -1.
        -11    1    3    3    0    0 -0.38811235086E+03  0.85795950097E+02 -0.31357863839E+03  0.50628421306E+03  0.00000000000E+00 0.  1.
          4    1    6    6  502    0 -0.14745556609E+02 -0.92487272498E+02  0.18977745933E+02  0.95558787427E+02  0.00000000000E+00 0. -1.
          3    1    5    5  503    0  0.68383035654E+03  0.21366083638E+03  0.75238190628E+03  0.10389193628E+04  0.00000000000E+00 0. -1.
         -4    1    5    5    0  503  0.44767378458E+02  0.12834813648E+02  0.22595959142E+02  0.51763191409E+02  0.00000000000E+00 0.  1.
         -3    1    6    6    0  502 -0.22509234554E+02 -0.25717104009E+03  0.19978497346E+03  0.32643168523E+03  0.00000000000E+00 0.  1.
<mgrwt>
<rscale>  0 0.23053379E+04</rscale>
<asrwt>0</asrwt>
<pdfrwt beam="1">  1        1 0.22187959E+00 0.23053379E+04</pdfrwt>
<pdfrwt beam="2">  1       -1 0.14173108E+00 0.23053379E+04</pdfrwt>
<totfact> 0.26316183E+00</totfact>
</mgrwt>
</event>
<event>
12    1  0.1536832E-007  0.2419802E+04  0.7818608E-02  0.8432127E-01
          2   -1    0    0  501    0  0.00000000000E+00  0.00000000000E+00  0.80048027721E+03  0.80048027721E+03  0.00000000000E+00 0. -1.
         -2   -1    0    0    0  501 -0.00000000000E+00 -0.00000000000E+00 -0.18287269622E+04  0.18287269622E+04  0.00000000000E+00 0.  1.
         23    2    1    2    0    0 -0.89519898414E+02  0.46262911860E+03 -0.14514195749E+04  0.15286862561E+04  0.90682819702E+02 0.  0.
        254    2    1    2    0    0  0.89519898414E+02 -0.46262911860E+03  0.42317288983E+03  0.11005209833E+04  0.90001757009E+03 0.  0.
        -24    2    4    4    0    0 -0.91513981466E+02  0.10032974696E+03  0.47641905435E+03  0.50178566868E+03  0.79830288840E+02 0.  0.
         24    2    4    4    0    0  0.18103387988E+03 -0.56295886557E+03 -0.53246164515E+02  0.59873531465E+03  0.77154863665E+02 0.  0.
         11    1    3    3    0    0  0.22009852056E+01  0.12004888374E+03 -0.27739815542E+03  0.30226861474E+03  0.00000000000E+00 0. -1.
        -11    1    3    3    0    0 -0.91720883620E+02  0.34258023486E+03 -0.11740214194E+04  0.12264176414E+04  0.00000000000E+00 0.  1.
          4    1    6    6  502    0  0.15295940715E+03 -0.52693130223E+03 -0.62180291871E+02  0.55219522472E+03  0.00000000000E+00 0. -1.
          3    1    5    5  503    0 -0.95388797634E+01 -0.18981958651E+01  0.14612505992E+03  0.14644837490E+03  0.00000000000E+00 0. -1.
         -4    1    5    5    0  503 -0.81975101703E+02  0.10222794283E+03  0.33029399443E+03  0.35533729378E+03  0.00000000000E+00 0.  1.
         -3    1    6    6    0  502  0.28074472732E+02 -0.36027563341E+02  0.89341273559E+01  0.46540089935E+02  0.00000000000E+00 0.  1.
<mgrwt>
<rscale>  0 0.24198015E+04</rscale>
<asrwt>0</asrwt>
<pdfrwt beam="1">  1        2 0.12315081E+00 0.24198015E+04</pdfrwt>
<pdfrwt beam="2">  1       -2 0.28134261E+00 0.24198015E+04</pdfrwt>
<totfact> 0.12770609E+00</totfact>
</mgrwt>
</event>
<event>
12    1  0.1536832E-007  0.1646863E+04  0.7818608E-02  0.8792264E-01
          2   -1    0    0  501    0  0.00000000000E+00  0.00000000000E+00  0.14774352881E+04  0.14774352881E+04  0.00000000000E+00 0. -1.
         -2   -1    0    0    0  501 -0.00000000000E+00 -0.00000000000E+00 -0.45893001534E+03  0.45893001534E+03  0.00000000000E+00 0.  1.
         23    2    1    2    0    0  0.30565480044E+03  0.34913475084E+03 -0.16446437251E+02  0.47332785464E+03  0.91917579404E+02 0.  0.
        254    2    1    2    0    0 -0.30565480044E+03 -0.34913475084E+03  0.10349517100E+04  0.14630374488E+04  0.92413938517E+03 0.  0.
        -24    2    4    4    0    0  0.21077418093E+03 -0.14320211535E+03  0.82000007505E+03  0.86201230414E+03  0.75713197147E+02 0.  0.
         24    2    4    4    0    0 -0.51642898137E+03 -0.20593263549E+03  0.21495163494E+03  0.60102514463E+03  0.76940730146E+02 0.  0.
         11    1    3    3    0    0  0.26888208715E+03  0.28400907279E+03  0.16846558304E+02  0.39146205020E+03  0.00000000000E+00 0.  1.
        -11    1    3    3    0    0  0.36772713292E+02  0.65125678050E+02 -0.33292995555E+02  0.81865804445E+02  0.00000000000E+00 0. -1.
          2    1    6    6  502    0 -0.43715495390E+03 -0.17367024600E+03  0.21044709223E+03  0.51531911152E+03  0.00000000000E+00 0. -1.
          1    1    5    5  503    0  0.19105293672E+03 -0.12695003315E+03  0.78987381318E+03  0.82250724999E+03  0.00000000000E+00 0. -1.
         -2    1    5    5    0  503  0.19721244205E+02 -0.16252082197E+02  0.30126261868E+02  0.39505054143E+02  0.00000000000E+00 0.  1.
         -1    1    6    6    0  502 -0.79274027476E+02 -0.32262389492E+02  0.45045427067E+01  0.85706033119E+02  0.00000000000E+00 0.  1.
<mgrwt>
<rscale>  0 0.16468630E+04</rscale>
<asrwt>0</asrwt>
<pdfrwt beam="1">  1        2 0.22729773E+00 0.16468630E+04</pdfrwt>
<pdfrwt beam="2">  1       -2 0.70604618E-01 0.16468630E+04</pdfrwt>
<totfact> 0.22785117E+01</totfact>
</mgrwt>
</event>
<event>
12    1  0.1536832E-007  0.2609836E+04  0.7818608E-02  0.8364868E-01
          2   -1    0    0  501    0  0.00000000000E+00  0.00000000000E+00  0.81691496352E+03  0.81691496352E+03  0.00000000000E+00 0.  1.
         -2   -1    0    0    0  501 -0.00000000000E+00 -0.00000000000E+00 -0.20844413431E+04  0.20844413431E+04  0.00000000000E+00 0. -1.
         23    2    1    2    0    0  0.75783640279E+03 -0.13628414625E+03 -0.15044473239E+04  0.16924273930E+04  0.89773872361E+02 0.  0.
        254    2    1    2    0    0 -0.75783640279E+03  0.13628414625E+03  0.23692094436E+03  0.12089289136E+04  0.90138127471E+03 0.  0.
        -24    2    4    4    0    0 -0.89461206904E+03  0.15485339263E+03 -0.12548062654E+02  0.91174339254E+03  0.82512015350E+02 0.  0.
         24    2    4    4    0    0  0.13677566625E+03 -0.18569246374E+02  0.24946900702E+03  0.29718552108E+03  0.83857311486E+02 0.  0.
         11    1    3    3    0    0  0.63053392358E+03 -0.93563400303E+02 -0.12992923294E+04  0.14472344993E+04  0.00000000000E+00 0. -1.
        -11    1    3    3    0    0  0.12730247921E+03 -0.42720745951E+02 -0.20515499452E+03  0.24519289371E+03  0.00000000000E+00 0.  1.
          2    1    6    6  502    0  0.16591132243E+02  0.28044144520E+02  0.51975478794E+02  0.61344845805E+02  0.00000000000E+00 0. -1.
          1    1    5    5  503    0 -0.71388895022E+02  0.26321877815E+02 -0.19389568168E+02  0.78518602495E+02  0.00000000000E+00 0. -1.
         -2    1    5    5    0  503 -0.82322317402E+03  0.12853151481E+03  0.68415055133E+01  0.83322479004E+03  0.00000000000E+00 0.  1.
         -1    1    6    6    0  502  0.12018453401E+03 -0.46613390894E+02  0.19749352822E+03  0.23584067528E+03  0.00000000000E+00 0.  1.
<mgrwt>
<rscale>  0 0.26098363E+04</rscale>
<asrwt>0</asrwt>
<pdfrwt beam="1">  1        2 0.12567923E+00 0.26098363E+04</pdfrwt>
<pdfrwt beam="2">  1       -2 0.32068328E+00 0.26098363E+04</pdfrwt>
<totfact> 0.70210916E-01</totfact>
</mgrwt>
</event>
<event>
12    1  0.1536832E-007  0.1296953E+04  0.7818608E-02  0.9031985E-01
         -2   -1    0    0    0  501 -0.00000000000E+00  0.00000000000E+00  0.23551083206E+03  0.23551083206E+03  0.00000000000E+00 0.  1.
          2   -1    0    0  501    0  0.00000000000E+00 -0.00000000000E+00 -0.17855739369E+04  0.17855739369E+04  0.00000000000E+00 0. -1.
         23    2    1    2    0    0  0.30909249620E+03 -0.40768884619E+02 -0.24799937233E+03  0.40910664108E+03  0.93082124689E+02 0.  0.
        254    2    1    2    0    0 -0.30909249620E+03  0.40768884619E+02 -0.13020637325E+04  0.16119781279E+04  0.89772114163E+03 0.  0.
        -24    2    4    4    0    0 -0.36611860369E+03  0.19427882327E+03 -0.13573353533E+04  0.14213305794E+04  0.77680510036E+02 0.  0.
         24    2    4    4    0    0  0.57026107489E+02 -0.15350993866E+03  0.55271620771E+02  0.19064754845E+03  0.80462770686E+02 0.  0.
         13    1    3    3    0    0  0.73619341275E+02 -0.13041091721E+02 -0.14160720223E+02  0.76094700737E+02  0.00000000000E+00 0.  1.
        -13    1    3    3    0    0  0.23547315493E+03 -0.27727792898E+02 -0.23383865211E+03  0.33301194034E+03  0.00000000000E+00 0. -1.
          4    1    6    6  502    0  0.62729957351E+01 -0.11449741777E+03  0.16614967277E+02  0.11586658832E+03  0.00000000000E+00 0. -1.
          3    1    5    5  503    0 -0.32956818137E+03  0.19847993972E+03 -0.12500436384E+04  0.13079061780E+04  0.00000000000E+00 0. -1.
         -4    1    5    5    0  503 -0.36550422318E+02 -0.42011164485E+01 -0.10729171491E+03  0.11342440143E+03  0.00000000000E+00 0.  1.
         -3    1    6    6    0  502  0.50753111754E+02 -0.39012520884E+02  0.38656653494E+02  0.74780960129E+02  0.00000000000E+00 0.  1.
<mgrwt>
<rscale>  0 0.12969534E+04</rscale>
<asrwt>0</asrwt>
<pdfrwt beam="1">  1        2 0.27470370E+00 0.12969534E+04</pdfrwt>
<pdfrwt beam="2">  1       -2 0.36232434E-01 0.12969534E+04</pdfrwt>
<totfact> 0.61769692E+01</totfact>
</mgrwt>
</event>
<event>
12    1  0.1536832E-007  0.1991756E+04  0.7818608E-02  0.8610485E-01
          1   -1    0    0  501    0  0.00000000000E+00  0.00000000000E+00  0.22634716612E+04  0.22634716612E+04  0.00000000000E+00 0. -1.
         -1   -1    0    0    0  501 -0.00000000000E+00 -0.00000000000E+00 -0.43816447948E+03  0.43816447948E+03  0.00000000000E+00 0.  1.
         23    2    1    2    0    0 -0.29532723896E+03 -0.58871739719E+03  0.14824919833E+03  0.68139663737E+03  0.92288681756E+02 0.  0.
        254    2    1    2    0    0  0.29532723896E+03  0.58871739719E+03  0.16770579834E+04  0.20202395033E+04  0.91380403767E+03 0.  0.
        -24    2    4    4    0    0 -0.66165722595E+02 -0.18618559240E+03  0.12836485134E+03  0.24937285190E+03  0.81647452785E+02 0.  0.
         24    2    4    4    0    0  0.36149296156E+03  0.77490298959E+03  0.15486931321E+04  0.17708666514E+04  0.79790195258E+02 0.  0.
         11    1    3    3    0    0 -0.28739107755E+03 -0.52277399841E+03  0.11671744273E+03  0.60787272213E+03  0.00000000000E+00 0.  1.
        -11    1    3    3    0    0 -0.79361614105E+01 -0.65943398780E+02  0.31531755601E+02  0.73523915238E+02  0.00000000000E+00 0. -1.
          2    1    6    6  502    0  0.12257490191E+03  0.23919905511E+03  0.41534152072E+03  0.49472151093E+03  0.00000000000E+00 0. -1.
          1    1    5    5  503    0 -0.72189891723E+00 -0.44007756613E+02  0.69273082253E+02  0.82072917000E+02  0.00000000000E+00 0. -1.
         -2    1    5    5    0  503 -0.65443823678E+02 -0.14217783578E+03  0.59091769082E+02  0.16729993490E+03  0.00000000000E+00 0.  1.
         -1    1    6    6    0  502  0.23891805964E+03  0.53570393448E+03  0.11333516114E+04  0.12761451405E+04  0.00000000000E+00 0.  1.
<mgrwt>
<rscale>  0 0.19917559E+04</rscale>
<asrwt>0</asrwt>
<pdfrwt beam="1">  1        1 0.34822640E+00 0.19917559E+04</pdfrwt>
<pdfrwt beam="2">  1       -1 0.67409921E-01 0.19917559E+04</pdfrwt>
<totfact> 0.40797053E+00</totfact>
</mgrwt>
</event>
<event>
12    1  0.1536832E-007  0.1952196E+04  0.7818608E-02  0.8629303E-01
         -2   -1    0    0    0  501 -0.00000000000E+00  0.00000000000E+00  0.54603449101E+03  0.54603449101E+03  0.00000000000E+00 0. -1.
          2   -1    0    0  501    0  0.00000000000E+00 -0.00000000000E+00 -0.17448845307E+04  0.17448845307E+04  0.00000000000E+00 0.  1.
         23    2    1    2    0    0 -0.10801358643E+03 -0.71330138841E+03 -0.73847993253E+03  0.10366354420E+04  0.93779652871E+02 0.  0.
        254    2    1    2    0    0  0.10801358643E+03  0.71330138841E+03 -0.46037010714E+03  0.12542835797E+04  0.91696284396E+03 0.  0.
        -24    2    4    4    0    0  0.31678290758E+03  0.91367173847E+02 -0.48640877443E+03  0.59287362192E+03  0.78779849746E+02 0.  0.
         24    2    4    4    0    0 -0.20876932116E+03  0.62193421456E+03  0.26038667299E+02  0.66140995778E+03  0.79989520349E+02 0.  0.
         11    1    3    3    0    0 -0.30778306303E+01 -0.33223626113E+03 -0.33581133994E+03  0.47239777972E+03  0.00000000000E+00 0. -1.
        -11    1    3    3    0    0 -0.10493575580E+03 -0.38106512727E+03 -0.40266859259E+03  0.56423766227E+03  0.00000000000E+00 0.  1.
          4    1    6    6  502    0 -0.32975900150E+01 -0.15424606351E+01 -0.23529609664E+01  0.43347099127E+01  0.00000000000E+00 0. -1.
          1    1    5    5  503    0  0.23429590865E+03  0.10194520969E+03 -0.35599861360E+03  0.43820361874E+03  0.00000000000E+00 0. -1.
         -2    1    5    5    0  503  0.82486998935E+02 -0.10578035843E+02 -0.13041016083E+03  0.15467000318E+03  0.00000000000E+00 0.  1.
         -3    1    6    6    0  502 -0.20547173114E+03  0.62347667519E+03  0.28391628265E+02  0.65707524787E+03  0.00000000000E+00 0.  1.
<mgrwt>
<rscale>  0 0.19521958E+04</rscale>
<asrwt>0</asrwt>
<pdfrwt beam="1">  1        2 0.26844377E+00 0.19521958E+04</pdfrwt>
<pdfrwt beam="2">  1       -2 0.84005307E-01 0.19521958E+04</pdfrwt>
<totfact> 0.10686957E+01</totfact>
</mgrwt>
</event>
<event>
12    1  0.1536832E-007  0.1602776E+04  0.7818608E-02  0.8818844E-01
         -1   -1    0    0    0  501 -0.00000000000E+00  0.00000000000E+00  0.37048583415E+03  0.37048583415E+03  0.00000000000E+00 0.  1.
          1   -1    0    0  501    0  0.00000000000E+00 -0.00000000000E+00 -0.17334615756E+04  0.17334615756E+04  0.00000000000E+00 0. -1.
         23    2    1    2    0    0  0.23353529257E+01  0.17899069926E+03  0.20319375318E+03  0.28653773503E+03  0.93664550221E+02 0.  0.
        254    2    1    2    0    0 -0.23353529257E+01 -0.17899069926E+03 -0.15661694947E+04  0.18174096748E+04  0.90446001328E+03 0.  0.
        -24    2    4    4    0    0 -0.36883466549E+03  0.16136862969E+03 -0.80069531968E+03  0.89977196829E+03  0.79985966601E+02 0.  0.
         24    2    4    4    0    0  0.36649931256E+03 -0.34035932895E+03 -0.76547417497E+03  0.91763770647E+03  0.77084556591E+02 0.  0.
         11    1    3    3    0    0  0.25402650729E+02  0.12212213122E+03  0.18389078593E+03  0.22220470460E+03  0.00000000000E+00 0.  1.
        -11    1    3    3    0    0 -0.23067297803E+02  0.56868568045E+02  0.19302967252E+02  0.64333030429E+02  0.00000000000E+00 0. -1.
          4    1    6    6  502    0  0.28362517943E+03 -0.30302883403E+03 -0.63562579143E+03  0.75913757870E+03  0.00000000000E+00 0. -1.
          1    1    5    5  503    0 -0.36739601154E+03  0.15958912761E+03 -0.76074914012E+03  0.85976029981E+03  0.00000000000E+00 0. -1.
         -2    1    5    5    0  503 -0.14386539502E+01  0.17795020806E+01 -0.39946179563E+02  0.40011668480E+02  0.00000000000E+00 0.  1.
         -3    1    6    6    0  502  0.82874133134E+02 -0.37330494918E+02 -0.12984838354E+03  0.15850012777E+03  0.00000000000E+00 0.  1.
<mgrwt>
<rscale>  0 0.16027763E+04</rscale>
<asrwt>0</asrwt>
<pdfrwt beam="1">  1        1 0.26668640E+00 0.16027763E+04</pdfrwt>
<pdfrwt beam="2">  1       -1 0.56997820E-01 0.16027763E+04</pdfrwt>
<totfact> 0.13519506E+01</totfact>
</mgrwt>
</event>
<event>
12    1  0.1536832E-007  0.1274590E+04  0.7818608E-02  0.9049961E-01
          1   -1    0    0  501    0  0.00000000000E+00  0.00000000000E+00  0.66116684461E+03  0.66116684461E+03  0.00000000000E+00 0. -1.
         -1   -1    0    0    0  501 -0.00000000000E+00 -0.00000000000E+00 -0.61428554510E+03  0.61428554510E+03  0.00000000000E+00 0.  1.
         23    2    1    2    0    0  0.16846913133E+03 -0.22447732955E+03 -0.12670430310E+03  0.32120472039E+03  0.91359576850E+02 0.  0.
        254    2    1    2    0    0 -0.16846913133E+03  0.22447732955E+03  0.17358560261E+03  0.95424766933E+03  0.89536849023E+03 0.  0.
        -24    2    4    4    0    0 -0.18162141505E+03  0.51369194570E+03 -0.86043531277E+02  0.55748958479E+03  0.80779913347E+02 0.  0.
         24    2    4    4    0    0  0.13152283719E+02 -0.28921461614E+03  0.25962913388E+03  0.39675808454E+03  0.78686807837E+02 0.  0.
         11    1    3    3    0    0  0.22837993794E+02 -0.95440247967E+02 -0.23308436541E+02  0.10086475156E+03  0.00000000000E+00 0. -1.
        -11    1    3    3    0    0  0.14563113753E+03 -0.12903708159E+03 -0.10339586655E+03  0.22033996883E+03  0.00000000000E+00 0.  1.
          2    1    6    6  502    0  0.40137019192E+02 -0.14641674318E+03  0.10521773448E+03  0.18471495511E+03  0.00000000000E+00 0. -1.
          3    1    5    5  503    0 -0.61964037296E+02  0.22012838579E+03 -0.73588059910E+02  0.24023166051E+03  0.00000000000E+00 0. -1.
         -4    1    5    5    0  503 -0.11965737775E+03  0.29356355990E+03 -0.12455471367E+02  0.31725792428E+03  0.00000000000E+00 0.  1.
         -1    1    6    6    0  502 -0.26984735473E+02 -0.14279787297E+03  0.15441139940E+03  0.21204312943E+03  0.00000000000E+00 0.  1.
<mgrwt>
<rscale>  0 0.12745905E+04</rscale>
<asrwt>0</asrwt>
<pdfrwt beam="1">  1        1 0.10171798E+00 0.12745905E+04</pdfrwt>
<pdfrwt beam="2">  1       -1 0.94505469E-01 0.12745905E+04</pdfrwt>
<totfact> 0.31683827E+01</totfact>
</mgrwt>
</event>
<event>
12    1  0.3526861E-007  0.1801715E+04  0.7818608E-02  0.8705388E-01
         -1   -1    0    0    0  501 -0.00000000000E+00  0.00000000000E+00  0.46035579197E+03  0.46035579197E+03  0.00000000000E+00 0.  1.
          1   -1    0    0  501    0  0.00000000000E+00 -0.00000000000E+00 -0.17628639787E+04  0.17628639787E+04  0.00000000000E+00 0. -1.
         23    2    1    2    0    0  0.48107069007E+03 -0.12185556717E+03 -0.10434080744E+04  0.11593143544E+04  0.95034595858E+02 0.  0.
        254    2    1    2    0    0 -0.48107069007E+03  0.12185556717E+03 -0.25910011228E+03  0.10639054162E+04  0.90470109895E+03 0.  0.
        -24    2    4    4    0    0 -0.25238957571E+03  0.43231668437E+03  0.11697451618E+03  0.52025050726E+03  0.79870766579E+02 0.  0.
         24    2    4    4    0    0 -0.22868111437E+03 -0.31046111720E+03 -0.37607462846E+03  0.54365490899E+03  0.73806344837E+02 0.  0.
         11    1    3    3    0    0  0.42831423730E+03 -0.12837667788E+03 -0.87362739193E+03  0.98140637721E+03  0.00000000000E+00 0. -1.
        -11    1    3    3    0    0  0.52756452774E+02  0.65211107103E+01 -0.16978068250E+03  0.17790797718E+03  0.00000000000E+00 0.  1.
          2    1    6    6  502    0 -0.19822593067E+03 -0.29264229269E+03 -0.31669504205E+03  0.47458274381E+03  0.00000000000E+00 0. -1.
          3    1    5    5  503    0 -0.22322471633E+03  0.40890124205E+03  0.90880291667E+02  0.47464589659E+03  0.00000000000E+00 0. -1.
         -4    1    5    5    0  503 -0.29164859376E+02  0.23415442320E+02  0.26094224515E+02  0.45604610671E+02  0.00000000000E+00 0.  1.
         -1    1    6    6    0  502 -0.30455183692E+02 -0.17818824506E+02 -0.59379586405E+02  0.69072165176E+02  0.00000000000E+00 0.  1.
<mgrwt>
<rscale>  0 0.18017155E+04</rscale>
<asrwt>0</asrwt>
<pdfrwt beam="1">  1        1 0.27120984E+00 0.18017155E+04</pdfrwt>
<pdfrwt beam="2">  1       -1 0.70823969E-01 0.18017155E+04</pdfrwt>
<totfact> 0.82049266E+00</totfact>
</mgrwt>
</event>
<event>
12    1  0.1536832E-007  0.1817885E+04  0.7818608E-02  0.8696846E-01
          1   -1    0    0  501    0  0.00000000000E+00  0.00000000000E+00  0.45115637100E+03  0.45115637100E+03  0.00000000000E+00 0. -1.
         -1   -1    0    0    0  501 -0.00000000000E+00 -0.00000000000E+00 -0.18312426921E+04  0.18312426921E+04  0.00000000000E+00 0.  1.
         23    2    1    2    0    0  0.37107683004E+01  0.23218603462E+02 -0.13882489067E+04  0.13915581752E+04  0.92985238247E+02 0.  0.
        254    2    1    2    0    0 -0.37107683004E+01 -0.23218603462E+02  0.81625856107E+01  0.89084088794E+03  0.89049311422E+03 0.  0.
        -24    2    4    4    0    0  0.33823351436E+03  0.26052388009E+03  0.51252399524E+02  0.43729684752E+03  0.79543208771E+02 0.  0.
         24    2    4    4    0    0 -0.34194428266E+03 -0.28374248355E+03 -0.43089813913E+02  0.45354404042E+03  0.80061071247E+02 0.  0.
         13    1    3    3    0    0  0.43691416416E+02  0.28716515464E+02 -0.59871986863E+03  0.60099838537E+03  0.00000000000E+00 0. -1.
        -13    1    3    3    0    0 -0.39980648115E+02 -0.54979120019E+01 -0.78952903809E+03  0.79055978980E+03  0.00000000000E+00 0.  1.
          4    1    6    6  502    0 -0.61552687307E+01 -0.24244863389E+02  0.76252522891E+01  0.26150434152E+02  0.00000000000E+00 0. -1.
          3    1    5    5  503    0  0.62807886932E+02  0.90947130350E+02  0.58403888134E+01  0.11068116968E+03  0.00000000000E+00 0. -1.
         -4    1    5    5    0  503  0.27542562742E+03  0.16957674974E+03  0.45412010710E+02  0.32661567784E+03  0.00000000000E+00 0.  1.
         -3    1    6    6    0  502 -0.33578901393E+03 -0.25949762016E+03 -0.50715066202E+02  0.42739360627E+03  0.00000000000E+00 0.  1.
<mgrwt>
<rscale>  0 0.18178854E+04</rscale>
<asrwt>0</asrwt>
<pdfrwt beam="1">  1        1 0.69408672E-01 0.18178854E+04</pdfrwt>
<pdfrwt beam="2">  1       -1 0.28172965E+00 0.18178854E+04</pdfrwt>
<totfact> 0.20865913E+00</totfact>
</mgrwt>
</event>
<event>
12    1  0.1536832E-007  0.1778405E+04  0.7818608E-02  0.8717869E-01
          2   -1    0    0  501    0  0.00000000000E+00  0.00000000000E+00  0.13872215364E+04  0.13872215364E+04  0.00000000000E+00 0. -1.
         -2   -1    0    0    0  501 -0.00000000000E+00 -0.00000000000E+00 -0.56997457885E+03  0.56997457885E+03  0.00000000000E+00 0.  1.
         23    2    1    2    0    0 -0.15725081628E+03  0.83209765922E+02  0.96852412856E+03  0.98886803838E+03  0.90384320265E+02 0.  0.
        254    2    1    2    0    0  0.15725081628E+03 -0.83209765922E+02 -0.15127717103E+03  0.96832807686E+03  0.93974613465E+03 0.  0.
        -24    2    4    4    0    0  0.12433761010E+03  0.39750323793E+03  0.74013770386E+02  0.43042053783E+03  0.79467828279E+02 0.  0.
         24    2    4    4    0    0  0.32913206183E+02 -0.48071300385E+03 -0.22529094142E+03  0.53790753902E+03  0.80126406618E+02 0.  0.
         13    1    3    3    0    0 -0.12170855924E+03  0.10221540398E+03  0.79387051128E+03  0.80962420349E+03  0.00000000000E+00 0. -1.
        -13    1    3    3    0    0 -0.35542257045E+02 -0.19005638059E+02  0.17465361729E+03  0.17924383489E+03  0.00000000000E+00 0.  1.
          4    1    6    6  502    0  0.46029033728E+02 -0.37249057991E+03 -0.20275513435E+03  0.42658826587E+03  0.00000000000E+00 0. -1.
          3    1    5    5  503    0  0.24794469019E+02  0.20692510806E+03  0.47826425553E+02  0.21382266723E+03  0.00000000000E+00 0. -1.
         -4    1    5    5    0  503  0.99543141079E+02  0.19057812987E+03  0.26187344833E+02  0.21659787060E+03  0.00000000000E+00 0.  1.
         -3    1    6    6    0  502 -0.13115827545E+02 -0.10822242394E+03 -0.22535807066E+02  0.11131927315E+03  0.00000000000E+00 0.  1.
<mgrwt>
<rscale>  0 0.17784049E+04</rscale>
<asrwt>0</asrwt>
<pdfrwt beam="1">  1        2 0.21341870E+00 0.17784049E+04</pdfrwt>
<pdfrwt beam="2">  1       -2 0.87688397E-01 0.17784049E+04</pdfrwt>
<totfact> 0.15617787E+01</totfact>
</mgrwt>
</event>
<event>
12    1  0.1536832E-007  0.2752470E+04  0.7818608E-02  0.8318178E-01
         -2   -1    0    0    0  501 -0.00000000000E+00  0.00000000000E+00  0.96245545210E+03  0.96245545210E+03  0.00000000000E+00 0.  1.
          2   -1    0    0  501    0  0.00000000000E+00 -0.00000000000E+00 -0.19679074591E+04  0.19679074591E+04  0.00000000000E+00 0. -1.
         23    2    1    2    0    0  0.53544313991E+03 -0.94109555379E+03  0.16795505900E+03  0.10988567589E+04  0.83168968662E+02 0.  0.
        254    2    1    2    0    0 -0.53544313991E+03  0.94109555379E+03 -0.11734070660E+04  0.18315061523E+04  0.89731290300E+03 0.  0.
        -24    2    4    4    0    0 -0.10038892713E+03  0.13234896211E+02 -0.67834528456E+03  0.69058995500E+03  0.80678756089E+02 0.  0.
         24    2    4    4    0    0 -0.43505421278E+03  0.92786065757E+03 -0.49506178148E+03  0.11409161973E+04  0.80037702923E+02 0.  0.
         11    1    3    3    0    0  0.70228398400E+02 -0.14653618139E+03  0.53291826213E+02  0.17101140061E+03  0.00000000000E+00 0. -1.
        -11    1    3    3    0    0  0.46521474151E+03 -0.79455937240E+03  0.11466323279E+03  0.92784535831E+03  0.00000000000E+00 0.  1.
          4    1    6    6  502    0 -0.38852568235E+03  0.82219302306E+03 -0.46618799121E+03  0.10219025473E+04  0.00000000000E+00 0. -1.
          1    1    5    5  503    0 -0.98887740751E+02 -0.15566763896E+02 -0.49923969349E+03  0.50917716068E+03  0.00000000000E+00 0. -1.
         -2    1    5    5    0  503 -0.15011863813E+01  0.28801660107E+02 -0.17910559108E+03  0.18141279431E+03  0.00000000000E+00 0.  1.
         -1    1    6    6    0  502 -0.46528530428E+02  0.10566763452E+03 -0.28873790268E+02  0.11901365003E+03  0.00000000000E+00 0.  1.
<mgrwt>
<rscale>  0 0.27524704E+04</rscale>
<asrwt>0</asrwt>
<pdfrwt beam="1">  1        2 0.30275499E+00 0.27524704E+04</pdfrwt>
<pdfrwt beam="2">  1       -2 0.14807007E+00 0.27524704E+04</pdfrwt>
<totfact> 0.18857918E+00</totfact>
</mgrwt>
</event>
<event>
12    1  0.1642216E-007  0.1776372E+04  0.7818608E-02  0.8718967E-01
         -2   -1    0    0    0  501 -0.00000000000E+00  0.00000000000E+00  0.38727277938E+03  0.38727277938E+03  0.00000000000E+00 0.  1.
          2   -1    0    0  501    0  0.00000000000E+00 -0.00000000000E+00 -0.20369986935E+04  0.20369986935E+04  0.00000000000E+00 0. -1.
         23    2    1    2    0    0 -0.19787256781E+03  0.10228142902E+03 -0.14560883783E+04  0.14759751333E+04  0.93242613471E+02 0.  0.
        254    2    1    2    0    0  0.19787256781E+03 -0.10228142902E+03 -0.19363753582E+03  0.94829633955E+03  0.90119665363E+03 0.  0.
        -24    2    4    4    0    0  0.28767865763E+03 -0.39477355823E+03  0.11316348391E+03  0.50786436274E+03  0.80715949583E+02 0.  0.
         24    2    4    4    0    0 -0.89806089816E+02  0.29249212921E+03 -0.30680101973E+03  0.44043197682E+03  0.78972660356E+02 0.  0.
         11    1    3    3    0    0 -0.17527195513E+03  0.48335889399E+02 -0.10356978572E+04  0.10515353859E+04  0.00000000000E+00 0. -1.
        -11    1    3    3    0    0 -0.22600612685E+02  0.53945539623E+02 -0.42039052113E+03  0.42443974742E+03  0.00000000000E+00 0.  1.
          2    1    6    6  502    0 -0.66834879235E+02  0.28128216361E+03 -0.26970513435E+03  0.39538261993E+03  0.00000000000E+00 0. -1.
          1    1    5    5  503    0  0.16421393974E+03 -0.28903184958E+03  0.70847146402E+02  0.33988960889E+03  0.00000000000E+00 0. -1.
         -2    1    5    5    0  503  0.12346471788E+03 -0.10574170865E+03  0.42316337505E+02  0.16797475385E+03  0.00000000000E+00 0.  1.
         -1    1    6    6    0  502 -0.22971210581E+02  0.11209965593E+02 -0.37095885372E+02  0.45049356885E+02  0.00000000000E+00 0.  1.
<mgrwt>
<rscale>  0 0.17763717E+04</rscale>
<asrwt>0</asrwt>
<pdfrwt beam="1">  1        2 0.31338441E+00 0.17763717E+04</pdfrwt>
<pdfrwt beam="2">  1       -2 0.59580428E-01 0.17763717E+04</pdfrwt>
<totfact> 0.15842781E+01</totfact>
</mgrwt>
</event>
<event>
12    1  0.1536832E-007  0.1957185E+04  0.7818608E-02  0.8626904E-01
          2   -1    0    0  501    0  0.00000000000E+00  0.00000000000E+00  0.97335441472E+03  0.97335441472E+03  0.00000000000E+00 0. -1.
         -2   -1    0    0    0  501 -0.00000000000E+00 -0.00000000000E+00 -0.98385919920E+03  0.98385919920E+03  0.00000000000E+00 0.  1.
         23    2    1    2    0    0  0.74739998104E+02  0.30013487785E+03 -0.70620324601E+03  0.77664834533E+03  0.93768946914E+02 0.  0.
        254    2    1    2    0    0 -0.74739998104E+02 -0.30013487785E+03  0.69569846153E+03  0.11805652686E+04  0.90225882750E+03 0.  0.
        -24    2    4    4    0    0  0.40321211052E+03 -0.79574646480E+02  0.28251814281E+03  0.50559736624E+03  0.83066631706E+02 0.  0.
         24    2    4    4    0    0 -0.47795210862E+03 -0.22056023137E+03  0.41318031872E+03  0.67496790234E+03  0.88196709817E+02 0.  0.
         13    1    3    3    0    0  0.26201299652E+02  0.88085216028E+01 -0.68815892198E+02  0.74160131980E+02  0.00000000000E+00 0. -1.
        -13    1    3    3    0    0  0.48538698452E+02  0.29132635625E+03 -0.63738735382E+03  0.70248821335E+03  0.00000000000E+00 0.  1.
          4    1    6    6  502    0 -0.41413982752E+03 -0.21847221478E+03  0.34534319438E+03  0.58181081743E+03  0.00000000000E+00 0. -1.
          3    1    5    5  503    0  0.25436699583E+03 -0.10413881298E+02  0.18479378289E+03  0.31457870190E+03  0.00000000000E+00 0. -1.
         -4    1    5    5    0  503  0.14884511468E+03 -0.69160765182E+02  0.97724359926E+02  0.19101866435E+03  0.00000000000E+00 0.  1.
         -3    1    6    6    0  502 -0.63812281103E+02 -0.20880165956E+01  0.67837124333E+02  0.93157084920E+02  0.00000000000E+00 0.  1.
<mgrwt>
<rscale>  0 0.19571854E+04</rscale>
<asrwt>0</asrwt>
<pdfrwt beam="1">  1        2 0.14974683E+00 0.19571854E+04</pdfrwt>
<pdfrwt beam="2">  1       -2 0.15136295E+00 0.19571854E+04</pdfrwt>
<totfact> 0.71460664E+00</totfact>
</mgrwt>
</event>
<event>
12    1  0.1536832E-007  0.1937942E+04  0.7818608E-02  0.8636197E-01
         -1   -1    0    0    0  501 -0.00000000000E+00  0.00000000000E+00  0.30231798360E+03  0.30231798360E+03  0.00000000000E+00 0.  1.
          1   -1    0    0  501    0  0.00000000000E+00 -0.00000000000E+00 -0.31056870058E+04  0.31056870058E+04  0.00000000000E+00 0. -1.
         23    2    1    2    0    0 -0.30657872179E+03  0.40495259061E+03 -0.20615339875E+04  0.21245973559E+04  0.77552753858E+02 0.  0.
        254    2    1    2    0    0  0.30657872179E+03 -0.40495259061E+03 -0.74183503465E+03  0.12834076335E+04  0.91588144526E+03 0.  0.
        -24    2    4    4    0    0  0.47706734848E+03 -0.59113050844E+03 -0.65199459908E+03  0.10042751299E+04  0.80268588682E+02 0.  0.
         24    2    4    4    0    0 -0.17048862670E+03  0.18617791783E+03 -0.89840435565E+02  0.27913250358E+03  0.78198860420E+02 0.  0.
         11    1    3    3    0    0 -0.20148575160E+03  0.20780777219E+03 -0.12268954634E+04  0.12605764778E+04  0.00000000000E+00 0. -1.
        -11    1    3    3    0    0 -0.10509297018E+03  0.19714481842E+03 -0.83463852418E+03  0.86402087814E+03  0.00000000000E+00 0.  1.
          4    1    6    6  502    0 -0.15586771557E+03  0.18625453423E+03 -0.66875879167E+02  0.25190847443E+03  0.00000000000E+00 0. -1.
          1    1    5    5  503    0  0.35541229272E+03 -0.44251933913E+03 -0.43945955395E+03  0.71782028592E+03  0.00000000000E+00 0. -1.
         -2    1    5    5    0  503  0.12165505577E+03 -0.14861116931E+03 -0.21253504514E+03  0.28645484399E+03  0.00000000000E+00 0.  1.
         -3    1    6    6    0  502 -0.14620911128E+02 -0.76616399295E-01 -0.22964556398E+02  0.27224029144E+02  0.00000000000E+00 0.  1.
<mgrwt>
<rscale>  0 0.19379422E+04</rscale>
<asrwt>0</asrwt>
<pdfrwt beam="1">  1        1 0.47779799E+00 0.19379422E+04</pdfrwt>
<pdfrwt beam="2">  1       -1 0.46510460E-01 0.19379422E+04</pdfrwt>
<totfact> 0.21514771E+00</totfact>
</mgrwt>
</event>
<event>
12    1  0.1536832E-007  0.1698379E+04  0.7818608E-02  0.8762289E-01
          2   -1    0    0  501    0  0.00000000000E+00  0.00000000000E+00  0.21159652655E+04  0.21159652655E+04  0.00000000000E+00 0. -1.
         -2   -1    0    0    0  501 -0.00000000000E+00 -0.00000000000E+00 -0.34080081356E+03  0.34080081356E+03  0.00000000000E+00 0.  1.
         23    2    1    2    0    0  0.17856179855E+02 -0.29908683797E+03  0.14238126184E+04  0.14577742524E+04  0.89953425301E+02 0.  0.
        254    2    1    2    0    0 -0.17856179855E+02  0.29908683797E+03  0.35135183351E+03  0.99899182666E+03  0.88586950451E+03 0.  0.
        -24    2    4    4    0    0  0.30107441587E+03 -0.11439762979E+03  0.33431258587E+03  0.47082483004E+03  0.78603396383E+02 0.  0.
         24    2    4    4    0    0 -0.31893059572E+03  0.41348446776E+03  0.17039247642E+02  0.52816699662E+03  0.77355739174E+02 0.  0.
         11    1    3    3    0    0 -0.35959377717E+02 -0.13709807256E+03  0.68285506737E+03  0.69740949332E+03  0.00000000000E+00 0. -1.
        -11    1    3    3    0    0  0.53815557571E+02 -0.16198876542E+03  0.74095755102E+03  0.76036475903E+03  0.00000000000E+00 0.  1.
          2    1    6    6  502    0 -0.69334046029E+02  0.44547050824E+02  0.51528890156E+01  0.82572404235E+02  0.00000000000E+00 0. -1.
          1    1    5    5  503    0  0.16685704804E+01 -0.57901461562E+01  0.29027609251E+02  0.29646450357E+02  0.00000000000E+00 0. -1.
         -2    1    5    5    0  503  0.29940584539E+03 -0.10860748363E+03  0.30528497662E+03  0.44117837969E+03  0.00000000000E+00 0.  1.
         -1    1    6    6    0  502 -0.24959654969E+03  0.36893741694E+03  0.11886358627E+02  0.44559459238E+03  0.00000000000E+00 0.  1.
<mgrwt>
<rscale>  0 0.16983789E+04</rscale>
<asrwt>0</asrwt>
<pdfrwt beam="1">  1        2 0.32553311E+00 0.16983789E+04</pdfrwt>
<pdfrwt beam="2">  1       -2 0.52430896E-01 0.16983789E+04</pdfrwt>
<totfact> 0.18811544E+01</totfact>
</mgrwt>
</event>
<event>
12    1  0.1536832E-007  0.1693368E+04  0.7818608E-02  0.8765156E-01
          2   -1    0    0  501    0  0.00000000000E+00  0.00000000000E+00  0.24096325117E+04  0.24096325117E+04  0.00000000000E+00 0.  1.
         -2   -1    0    0    0  501 -0.00000000000E+00 -0.00000000000E+00 -0.29750336311E+03  0.29750336311E+03  0.00000000000E+00 0. -1.
         23    2    1    2    0    0  0.48998460370E+03  0.35481031699E+03  0.83434180174E+03  0.10348379079E+04  0.93744229073E+02 0.  0.
        254    2    1    2    0    0 -0.48998460370E+03 -0.35481031699E+03  0.12777873468E+04  0.16722979670E+04  0.89323273207E+03 0.  0.
        -24    2    4    4    0    0 -0.43277822107E+03 -0.28067586601E+03  0.15737233979E+03  0.54501941836E+03  0.78766634208E+02 0.  0.
         24    2    4    4    0    0 -0.57206382631E+02 -0.74134450981E+02  0.11204150071E+04  0.11272785486E+04  0.81600558016E+02 0.  0.
         13    1    3    3    0    0  0.24052667600E+03  0.16267103085E+03  0.47824897065E+03  0.55949711713E+03  0.00000000000E+00 0.  1.
        -13    1    3    3    0    0  0.24945792770E+03  0.19213928614E+03  0.35609283109E+03  0.47534079072E+03  0.00000000000E+00 0. -1.
          4    1    6    6  502    0 -0.17178053643E+02  0.78935874918E+01  0.59191952996E+02  0.62137601740E+02  0.00000000000E+00 0. -1.
          1    1    5    5  503    0 -0.45961349991E+02 -0.40980407330E+01  0.10399840509E+02  0.47301123807E+02  0.00000000000E+00 0. -1.
         -2    1    5    5    0  503 -0.38681687108E+03 -0.27657782528E+03  0.14697249928E+03  0.49771829455E+03  0.00000000000E+00 0.  1.
         -3    1    6    6    0  502 -0.40028328988E+02 -0.82028038473E+02  0.10612230541E+04  0.10651409469E+04  0.00000000000E+00 0.  1.
<mgrwt>
<rscale>  0 0.16933680E+04</rscale>
<asrwt>0</asrwt>
<pdfrwt beam="1">  1        2 0.37071268E+00 0.16933680E+04</pdfrwt>
<pdfrwt beam="2">  1       -2 0.45769750E-01 0.16933680E+04</pdfrwt>
<totfact> 0.16936850E+01</totfact>
</mgrwt>
</event>
<event>
12    1  0.1536832E-007  0.2476929E+04  0.7818608E-02  0.8411251E-01
          1   -1    0    0  501    0  0.00000000000E+00  0.00000000000E+00  0.20076545845E+04  0.20076545845E+04  0.00000000000E+00 0.  1.
         -1   -1    0    0    0  501 -0.00000000000E+00 -0.00000000000E+00 -0.76397342445E+03  0.76397342445E+03  0.00000000000E+00 0. -1.
         23    2    1    2    0    0  0.71914703938E+03 -0.79545686829E+03  0.45198587467E+03  0.11673201554E+04  0.91766120045E+02 0.  0.
        254    2    1    2    0    0 -0.71914703938E+03  0.79545686829E+03  0.79169528535E+03  0.16043078535E+04  0.89280354524E+03 0.  0.
        -24    2    4    4    0    0 -0.85012438461E+03  0.75305523485E+03  0.86735820181E+03  0.14312679916E+04  0.80088434620E+02 0.  0.
         24    2    4    4    0    0  0.13097734524E+03  0.42401633436E+02 -0.75662916465E+02  0.17303986194E+03  0.72559998678E+02 0.  0.
         11    1    3    3    0    0  0.11907665322E+02 -0.23324480396E+02 -0.15564385493E+01  0.26234450254E+02  0.00000000000E+00 0.  1.
        -11    1    3    3    0    0  0.70723937405E+03 -0.77213238789E+03  0.45354231321E+03  0.11410857052E+04  0.00000000000E+00 0. -1.
          4    1    6    6  502    0  0.14885618845E+02  0.40186524427E+01  0.14463704272E+02  0.21140717990E+02  0.00000000000E+00 0. -1.
          1    1    5    5  503    0 -0.27455956364E+03  0.26494594912E+03  0.24890345748E+03  0.45555706677E+03  0.00000000000E+00 0. -1.
         -2    1    5    5    0  503 -0.57556482097E+03  0.48810928573E+03  0.61845474434E+03  0.97571092479E+03  0.00000000000E+00 0.  1.
         -3    1    6    6    0  502  0.11609172639E+03  0.38382980993E+02 -0.90126620738E+02  0.15189914395E+03  0.00000000000E+00 0.  1.
<mgrwt>
<rscale>  0 0.24769293E+04</rscale>
<asrwt>0</asrwt>
<pdfrwt beam="1">  1        1 0.30886993E+00 0.24769293E+04</pdfrwt>
<pdfrwt beam="2">  1       -1 0.11753437E+00 0.24769293E+04</pdfrwt>
<totfact> 0.17067316E+00</totfact>
</mgrwt>
</event>
<event>
12    1  0.1536832E-007  0.1269666E+04  0.7818608E-02  0.9053972E-01
         -2   -1    0    0    0  501 -0.00000000000E+00  0.00000000000E+00  0.20957147697E+03  0.20957147697E+03  0.00000000000E+00 0. -1.
          2   -1    0    0  501    0  0.00000000000E+00 -0.00000000000E+00 -0.19230336973E+04  0.19230336973E+04  0.00000000000E+00 0.  1.
         23    2    1    2    0    0 -0.15360571969E+03  0.30168435651E+03 -0.41413809584E+03  0.54240030288E+03  0.89886361888E+02 0.  0.
        254    2    1    2    0    0  0.15360571969E+03 -0.30168435651E+03 -0.12993241245E+04  0.15902048714E+04  0.85199776084E+03 0.  0.
        -24    2    4    4    0    0  0.19521609620E+03 -0.51086265769E+03 -0.12358653185E+04  0.13538180165E+04  0.79813262631E+02 0.  0.
         24    2    4    4    0    0 -0.41610376508E+02  0.20917830118E+03 -0.63458805986E+02  0.23638685497E+03  0.79779320798E+02 0.  0.
         13    1    3    3    0    0 -0.93335860950E+01  0.22193867831E+02 -0.79862176048E+02  0.83412533601E+02  0.00000000000E+00 0.  1.
        -13    1    3    3    0    0 -0.14427213360E+03  0.27949048868E+03 -0.33427591980E+03  0.45898776928E+03  0.00000000000E+00 0. -1.
          2    1    6    6  502    0  0.34922654881E+01 -0.64277100033E+01 -0.34387595422E+01  0.80830960229E+01  0.00000000000E+00 0. -1.
          1    1    5    5  503    0  0.87560634086E+01 -0.25580052028E+00 -0.14364621204E+02  0.16824875116E+02  0.00000000000E+00 0. -1.
         -2    1    5    5    0  503  0.18646003279E+03 -0.51060685717E+03 -0.12215006973E+04  0.13369931414E+04  0.00000000000E+00 0.  1.
         -1    1    6    6    0  502 -0.45102641996E+02  0.21560601119E+03 -0.60020046444E+02  0.22830375895E+03  0.00000000000E+00 0.  1.
<mgrwt>
<rscale>  0 0.12696661E+04</rscale>
<asrwt>0</asrwt>
<pdfrwt beam="1">  1        2 0.29585134E+00 0.12696661E+04</pdfrwt>
<pdfrwt beam="2">  1       -2 0.32241766E-01 0.12696661E+04</pdfrwt>
<totfact> 0.64895514E+01</totfact>
</mgrwt>
</event>
<event>
12    1  0.1536832E-007  0.2097224E+04  0.7818608E-02  0.8562467E-01
         -2   -1    0    0    0  501 -0.00000000000E+00  0.00000000000E+00  0.10894055383E+04  0.10894055383E+04  0.00000000000E+00 0.  1.
          2   -1    0    0  501    0  0.00000000000E+00 -0.00000000000E+00 -0.10093456266E+04  0.10093456266E+04  0.00000000000E+00 0. -1.
         23    2    1    2    0    0  0.35649412300E+03 -0.47020313932E+03  0.65186442040E+03  0.88383258127E+03  0.89742727593E+02 0.  0.
        254    2    1    2    0    0 -0.35649412300E+03  0.47020313932E+03 -0.57180450871E+03  0.12149185837E+04  0.89492330217E+03 0.  0.
        -24    2    4    4    0    0  0.15305626838E+03  0.52283414465E+03 -0.26458498058E+03  0.61119196944E+03  0.82271790149E+02 0.  0.
         24    2    4    4    0    0 -0.50955039138E+03 -0.52631005330E+02 -0.30721952812E+03  0.60372661422E+03  0.87694710056E+02 0.  0.
         13    1    3    3    0    0  0.29079442845E+03 -0.41344509150E+03  0.51392903380E+03  0.72084762265E+03  0.00000000000E+00 0.  1.
        -13    1    3    3    0    0  0.65699694555E+02 -0.56758047827E+02  0.13793538660E+03  0.16298495861E+03  0.00000000000E+00 0. -1.
          2    1    6    6  502    0 -0.25716932828E+03 -0.68620670602E+02 -0.14233446904E+03  0.30183432694E+03  0.00000000000E+00 0. -1.
          3    1    5    5  503    0  0.46241646967E+02  0.28149573900E+03 -0.16183158671E+03  0.32797500430E+03  0.00000000000E+00 0. -1.
         -4    1    5    5    0  503  0.10681462141E+03  0.24133840565E+03 -0.10275339387E+03  0.28321696514E+03  0.00000000000E+00 0.  1.
         -1    1    6    6    0  502 -0.25238106311E+03  0.15989665272E+02 -0.16488505908E+03  0.30189228728E+03  0.00000000000E+00 0.  1.
<mgrwt>
<rscale>  0 0.20972236E+04</rscale>
<asrwt>0</asrwt>
<pdfrwt beam="1">  1        2 0.15528394E+00 0.20972236E+04</pdfrwt>
<pdfrwt beam="2">  1       -2 0.16760085E+00 0.20972236E+04</pdfrwt>
<totfact> 0.50763763E+00</totfact>
</mgrwt>
</event>
<event>
12    1  0.1536832E-007  0.1959432E+04  0.7818608E-02  0.8625826E-01
          1   -1    0    0  501    0  0.00000000000E+00  0.00000000000E+00  0.26067838311E+04  0.26067838311E+04  0.00000000000E+00 0.  1.
         -1   -1    0    0    0  501 -0.00000000000E+00 -0.00000000000E+00 -0.36820985992E+03  0.36820985992E+03  0.00000000000E+00 0. -1.
         23    2    1    2    0    0 -0.17890610330E+03  0.75334393213E+03  0.60614881633E+03  0.98761210760E+03  0.91797677913E+02 0.  0.
        254    2    1    2    0    0  0.17890610330E+03 -0.75334393213E+03  0.16324251548E+04  0.19873815834E+04  0.82785215952E+03 0.  0.
        -24    2    4    4    0    0 -0.13739207120E+03 -0.12707255439E+03 -0.55916633498E+01  0.20356746147E+03  0.79902624247E+02 0.  0.
         24    2    4    4    0    0  0.31629817450E+03 -0.62627137774E+03  0.16380168182E+04  0.17838141219E+04  0.81445387682E+02 0.  0.
         11    1    3    3    0    0 -0.42829964845E+02  0.18549505788E+03  0.10100027397E+03  0.21550841684E+03  0.00000000000E+00 0. -1.
        -11    1    3    3    0    0 -0.13607613845E+03  0.56784887426E+03  0.50514854236E+03  0.77210369077E+03  0.00000000000E+00 0.  1.
          2    1    6    6  502    0  0.11759806900E+03 -0.21687707276E+03  0.67553550774E+03  0.71917535605E+03  0.00000000000E+00 0. -1.
          3    1    5    5  503    0 -0.75769463591E+02 -0.11935066409E+03 -0.50494673827E+01  0.14146055900E+03  0.00000000000E+00 0. -1.
         -4    1    5    5    0  503 -0.61622607608E+02 -0.77218903074E+01 -0.54219596702E+00  0.62106902473E+02  0.00000000000E+00 0.  1.
         -1    1    6    6    0  502  0.19870010550E+03 -0.40939430498E+03  0.96248131045E+03  0.10646387659E+04  0.00000000000E+00 0.  1.
<mgrwt>
<rscale>  0 0.19594321E+04</rscale>
<asrwt>0</asrwt>
<pdfrwt beam="1">  1        1 0.40104365E+00 0.19594321E+04</pdfrwt>
<pdfrwt beam="2">  1       -1 0.56647672E-01 0.19594321E+04</pdfrwt>
<totfact> 0.33538930E+00</totfact>
</mgrwt>
</event>
<event>
12    1  0.1536832E-007  0.1503569E+04  0.7818608E-02  0.8882083E-01
         -2   -1    0    0    0  501 -0.00000000000E+00  0.00000000000E+00  0.16515282910E+03  0.16515282910E+03  0.00000000000E+00 0. -1.
          2   -1    0    0  501    0  0.00000000000E+00 -0.00000000000E+00 -0.34221623444E+04  0.34221623444E+04  0.00000000000E+00 0.  1.
         23    2    1    2    0    0 -0.15875765270E+03 -0.14208790179E+03 -0.20611496920E+04  0.20741465189E+04  0.91393461861E+02 0.  0.
        254    2    1    2    0    0  0.15875765270E+03  0.14208790179E+03 -0.11958598233E+04  0.15131686546E+04  0.90233347282E+03 0.  0.
        -24    2    4    4    0    0 -0.13710620345E+03 -0.32942471473E+03 -0.46669781920E+03  0.59176068814E+03  0.71099253708E+02 0.  0.
         24    2    4    4    0    0  0.29586385615E+03  0.47151261653E+03 -0.72916200406E+03  0.92140796644E+03  0.86347226549E+02 0.  0.
         13    1    3    3    0    0 -0.41178171096E+02 -0.19575218596E+02 -0.19375711834E+03  0.19904937042E+03  0.00000000000E+00 0. -1.
        -13    1    3    3    0    0 -0.11757948161E+03 -0.12251268320E+03 -0.18673925737E+04  0.18750971485E+04  0.00000000000E+00 0.  1.
          2    1    6    6  502    0  0.60035639567E+02  0.52815862470E+02 -0.74335991041E+02  0.10917707136E+03  0.00000000000E+00 0. -1.
          1    1    5    5  503    0 -0.94211509654E+01 -0.29330573280E+02 -0.14040746530E+02  0.33855327166E+02  0.00000000000E+00 0. -1.
         -2    1    5    5    0  503 -0.12768505248E+03 -0.30009414145E+03 -0.45265707267E+03  0.55790536097E+03  0.00000000000E+00 0.  1.
         -1    1    6    6    0  502  0.23582821658E+03  0.41869675406E+03 -0.65482601302E+03  0.81223089508E+03  0.00000000000E+00 0.  1.
<mgrwt>
<rscale>  0 0.15035688E+04</rscale>
<asrwt>0</asrwt>
<pdfrwt beam="1">  1        2 0.52648653E+00 0.15035688E+04</pdfrwt>
<pdfrwt beam="2">  1       -2 0.25408127E-01 0.15035688E+04</pdfrwt>
<totfact> 0.12548208E+01</totfact>
</mgrwt>
</event>
<event>
12    1  0.1536832E-007  0.1620947E+04  0.7818608E-02  0.8807782E-01
         -2   -1    0    0    0  501 -0.00000000000E+00  0.00000000000E+00  0.29333164991E+04  0.29333164991E+04  0.00000000000E+00 0.  1.
          2   -1    0    0  501    0  0.00000000000E+00 -0.00000000000E+00 -0.22393328314E+03  0.22393328314E+03  0.00000000000E+00 0. -1.
         23    2    1    2    0    0  0.15738849083E+03  0.36953090902E+03  0.16837959272E+04  0.17327518472E+04  0.77045504084E+02 0.  0.
        254    2    1    2    0    0 -0.15738849083E+03 -0.36953090902E+03  0.10255872888E+04  0.14244979351E+04  0.90334979402E+03 0.  0.
        -24    2    4    4    0    0  0.19873006871E+03 -0.43160719779E+03  0.92306385353E+03  0.10405708406E+04  0.70444184757E+02 0.  0.
         24    2    4    4    0    0 -0.35611855955E+03  0.62076288770E+02  0.10252343524E+03  0.38392709449E+03  0.78835683718E+02 0.  0.
         13    1    3    3    0    0  0.56580181558E+02  0.58828008045E+02  0.37910043117E+03  0.38778755574E+03  0.00000000000E+00 0. -1.
        -13    1    3    3    0    0  0.10080830927E+03  0.31070290097E+03  0.13046954960E+04  0.13449642914E+04  0.00000000000E+00 0.  1.
          2    1    6    6  502    0 -0.21984098426E+03  0.40054273695E+02  0.10258349157E+03  0.24588162994E+03  0.00000000000E+00 0. -1.
          1    1    5    5  503    0  0.14176724571E+02 -0.27349128638E+02  0.29745619880E+02  0.42822380350E+02  0.00000000000E+00 0. -1.
         -2    1    5    5    0  503  0.18455334414E+03 -0.40425806915E+03  0.89331823365E+03  0.99774846023E+03  0.00000000000E+00 0.  1.
         -1    1    6    6    0  502 -0.13627757529E+03  0.22022015074E+02 -0.60056331458E-01  0.13804546455E+03  0.00000000000E+00 0.  1.
<mgrwt>
<rscale>  0 0.16209469E+04</rscale>
<asrwt>0</asrwt>
<pdfrwt beam="1">  1        2 0.34451276E-01 0.16209469E+04</pdfrwt>
<pdfrwt beam="2">  1       -2 0.45127943E+00 0.16209469E+04</pdfrwt>
<totfact> 0.49942004E-01</totfact>
</mgrwt>
</event>
<event>
12    1  0.1536832E-007  0.4121165E+04  0.7818608E-02  0.7980540E-01
         -1   -1    0    0    0  501 -0.00000000000E+00  0.00000000000E+00  0.87873769632E+03  0.87873769632E+03  0.00000000000E+00 0.  1.
          1   -1    0    0  501    0  0.00000000000E+00 -0.00000000000E+00 -0.48319318940E+04  0.48319318940E+04  0.00000000000E+00 0. -1.
         23    2    1    2    0    0 -0.22722139836E+03  0.67142897464E+03  0.64887795518E+03  0.96591111936E+03  0.97443614063E+02 0.  0.
        254    2    1    2    0    0  0.22722139836E+03 -0.67142897464E+03 -0.46020721529E+04  0.47447584710E+04  0.91171180528E+03 0.  0.
        -24    2    4    4    0    0 -0.14066534970E+03 -0.33091692122E+03 -0.36253727684E+04  0.36440722106E+04  0.81497342042E+02 0.  0.
         24    2    4    4    0    0  0.36788674806E+03 -0.34051205342E+03 -0.97669938443E+03  0.11006862604E+04  0.79242906757E+02 0.  0.
         11    1    3    3    0    0 -0.18376597469E+03  0.46199179711E+03  0.40297584603E+03  0.63999678634E+03  0.00000000000E+00 0.  1.
        -11    1    3    3    0    0 -0.43455423674E+02  0.20943717753E+03  0.24590210915E+03  0.32591433301E+03  0.00000000000E+00 0. -1.
          2    1    6    6  502    0  0.29918033491E+03 -0.25815287527E+03 -0.82667257378E+03  0.91626378519E+03  0.00000000000E+00 0. -1.
          3    1    5    5  503    0 -0.93279684914E+02 -0.29147338428E+03 -0.31115155034E+04  0.31265294755E+04  0.00000000000E+00 0. -1.
         -4    1    5    5    0  503 -0.47385664783E+02 -0.39443536941E+02 -0.51385726507E+03  0.51754273514E+03  0.00000000000E+00 0.  1.
         -1    1    6    6    0  502  0.68706413144E+02 -0.82359178154E+02 -0.15002681064E+03  0.18442247516E+03  0.00000000000E+00 0.  1.
<mgrwt>
<rscale>  0 0.41211652E+04</rscale>
<asrwt>0</asrwt>
<pdfrwt beam="1">  1        1 0.74337413E+00 0.41211652E+04</pdfrwt>
<pdfrwt beam="2">  1       -1 0.13519042E+00 0.41211652E+04</pdfrwt>
<totfact> 0.49026809E-03</totfact>
</mgrwt>
</event>
<event>
12    1  0.1536832E-007  0.2830068E+04  0.7818608E-02  0.8293994E-01
          1   -1    0    0  501    0  0.00000000000E+00  0.00000000000E+00  0.57990085566E+03  0.57990085566E+03  0.00000000000E+00 0. -1.
         -1   -1    0    0    0  501 -0.00000000000E+00 -0.00000000000E+00 -0.34528682607E+04  0.34528682607E+04  0.00000000000E+00 0.  1.
         23    2    1    2    0    0  0.34910105744E+03  0.19090679269E+03  0.42350903280E+03  0.58825436297E+03  0.91467715005E+02 0.  0.
        254    2    1    2    0    0 -0.34910105744E+03 -0.19090679269E+03 -0.32964764378E+04  0.34445147534E+04  0.91630127645E+03 0.  0.
        -24    2    4    4    0    0 -0.62407174609E+03 -0.24358286968E+03 -0.18599055096E+04  0.19787544331E+04  0.86153603568E+02 0.  0.
         24    2    4    4    0    0  0.27497068864E+03  0.52676076989E+02 -0.14365709282E+04  0.14657603202E+04  0.79584142888E+02 0.  0.
         11    1    3    3    0    0  0.13255928795E+02  0.31737586646E+02  0.20519064820E+02  0.40050294323E+02  0.00000000000E+00 0.  1.
        -11    1    3    3    0    0  0.33584512865E+03  0.15916920605E+03  0.40298996798E+03  0.54820406865E+03  0.00000000000E+00 0. -1.
          2    1    6    6  502    0  0.92362945187E+02  0.46289917883E+02 -0.65622156003E+03  0.66430445278E+03  0.00000000000E+00 0. -1.
          3    1    5    5  503    0 -0.57087443218E+02  0.27229760467E+01 -0.16786769746E+03  0.17733007253E+03  0.00000000000E+00 0. -1.
         -4    1    5    5    0  503 -0.56698430287E+03 -0.24630584573E+03 -0.16920378121E+04  0.18014243606E+04  0.00000000000E+00 0.  1.
         -1    1    6    6    0  502  0.18260774346E+03  0.63861591058E+01 -0.78034936821E+03  0.80145586744E+03  0.00000000000E+00 0.  1.
<mgrwt>
<rscale>  0 0.28300680E+04</rscale>
<asrwt>0</asrwt>
<pdfrwt beam="1">  1        1 0.89215516E-01 0.28300680E+04</pdfrwt>
<pdfrwt beam="2">  1       -1 0.53121050E+00 0.28300680E+04</pdfrwt>
<totfact> 0.29526488E-02</totfact>
</mgrwt>
</event>
<event>
12    1  0.1536832E-007  0.1304091E+04  0.7818608E-02  0.9026327E-01
          1   -1    0    0  501    0  0.00000000000E+00  0.00000000000E+00  0.26685309111E+04  0.26685309111E+04  0.00000000000E+00 0. -1.
         -1   -1    0    0    0  501 -0.00000000000E+00 -0.00000000000E+00 -0.15932486607E+03  0.15932486607E+03  0.00000000000E+00 0.  1.
         23    2    1    2    0    0  0.12311166373E+03  0.77352563795E+02  0.13648438257E+04  0.13756313215E+04  0.91776702767E+02 0.  0.
        254    2    1    2    0    0 -0.12311166373E+03 -0.77352563795E+02  0.11443622193E+04  0.14522244557E+04  0.88218539992E+03 0.  0.
        -24    2    4    4    0    0  0.33247865964E+03  0.14978846823E+03  0.40179040057E+03  0.54843788877E+03  0.79811950952E+02 0.  0.
         24    2    4    4    0    0 -0.45559032337E+03 -0.22714103203E+03  0.74257181877E+03  0.90378656694E+03  0.79130660094E+02 0.  0.
         13    1    3    3    0    0  0.12558911374E+03  0.92361057521E+02  0.11992321069E+04  0.12093224701E+04  0.00000000000E+00 0. -1.
        -13    1    3    3    0    0 -0.24774500175E+01 -0.15008493726E+02  0.16561171883E+03  0.16630885141E+03  0.00000000000E+00 0.  1.
          4    1    6    6  502    0 -0.21117045504E+02  0.62112453001E+01  0.31312653491E+02  0.38275206697E+02  0.00000000000E+00 0. -1.
          3    1    5    5  503    0  0.19880112490E+03  0.80107736679E+02  0.29072691720E+03  0.36119423738E+03  0.00000000000E+00 0. -1.
         -4    1    5    5    0  503  0.13367753474E+03  0.69680731556E+02  0.11106348337E+03  0.18724365138E+03  0.00000000000E+00 0.  1.
         -3    1    6    6    0  502 -0.43447327786E+03 -0.23335227733E+03  0.71125916528E+03  0.86551136024E+03  0.00000000000E+00 0.  1.
<mgrwt>
<rscale>  0 0.13040910E+04</rscale>
<asrwt>0</asrwt>
<pdfrwt beam="1">  1        1 0.41054318E+00 0.13040910E+04</pdfrwt>
<pdfrwt beam="2">  1       -1 0.24511520E-01 0.13040910E+04</pdfrwt>
<totfact> 0.14790655E+01</totfact>
</mgrwt>
</event>
<event>
12    1  0.1536832E-007  0.1652294E+04  0.7818608E-02  0.8789051E-01
          1   -1    0    0  501    0  0.00000000000E+00  0.00000000000E+00  0.21045630433E+04  0.21045630433E+04  0.00000000000E+00 0. -1.
         -1   -1    0    0    0  501 -0.00000000000E+00 -0.00000000000E+00 -0.32430427143E+03  0.32430427143E+03  0.00000000000E+00 0.  1.
         23    2    1    2    0    0 -0.75659597743E+02 -0.55971820583E+03  0.48061870392E+03  0.74755646075E+03  0.94007865516E+02 0.  0.
        254    2    1    2    0    0  0.75659597743E+02  0.55971820583E+03  0.12996400679E+04  0.16813108540E+04  0.90483867998E+03 0.  0.
        -24    2    4    4    0    0  0.11299753087E+03  0.78667018586E+03  0.82695823701E+03  0.11497245248E+04  0.79925802687E+02 0.  0.
         24    2    4    4    0    0 -0.37337933123E+02 -0.22695198003E+03  0.47268183093E+03  0.53158632914E+03  0.79085962998E+02 0.  0.
         11    1    3    3    0    0 -0.84996767199E+02 -0.34481318115E+03  0.33154533456E+03  0.48584245306E+03  0.00000000000E+00 0. -1.
        -11    1    3    3    0    0  0.93371694556E+01 -0.21490502468E+03  0.14907336936E+03  0.26171400768E+03  0.00000000000E+00 0.  1.
          2    1    6    6  502    0 -0.10614529059E+02 -0.21146477240E+03  0.39913719469E+03  0.45181912131E+03  0.00000000000E+00 0. -1.
          3    1    5    5  503    0  0.12028782976E+03  0.73085528788E+03  0.78672957005E+03  0.10805378430E+04  0.00000000000E+00 0. -1.
         -4    1    5    5    0  503 -0.72902988942E+01  0.55814897977E+02  0.40228666964E+02  0.69186681810E+02  0.00000000000E+00 0.  1.
         -1    1    6    6    0  502 -0.26723404065E+02 -0.15487207625E+02  0.73544636240E+02  0.79767207827E+02  0.00000000000E+00 0.  1.
<mgrwt>
<rscale>  0 0.16522939E+04</rscale>
<asrwt>0</asrwt>
<pdfrwt beam="1">  1        1 0.32377892E+00 0.16522939E+04</pdfrwt>
<pdfrwt beam="2">  1       -1 0.49892966E-01 0.16522939E+04</pdfrwt>
<totfact> 0.97484736E+00</totfact>
</mgrwt>
</event>
<event>
12    1  0.1536832E-007  0.2467127E+04  0.7818608E-02  0.8414791E-01
         -2   -1    0    0    0  501 -0.00000000000E+00  0.00000000000E+00  0.15963382303E+04  0.15963382303E+04  0.00000000000E+00 0. -1.
          2   -1    0    0  501    0  0.00000000000E+00 -0.00000000000E+00 -0.95323105476E+03  0.95323105476E+03  0.00000000000E+00 0.  1.
         23    2    1    2    0    0 -0.47624356679E+03  0.95281803197E+03  0.26473190542E+03  0.11014148075E+04  0.91441016022E+02 0.  0.
        254    2    1    2    0    0  0.47624356679E+03 -0.95281803197E+03  0.37837527011E+03  0.14481544776E+04  0.90515932793E+03 0.  0.
        -24    2    4    4    0    0  0.34035489074E+03 -0.86913054826E+03  0.63803188860E+03  0.11332331380E+04  0.76832888054E+02 0.  0.
         24    2    4    4    0    0  0.13588867606E+03 -0.83687483710E+02 -0.25965661849E+03  0.31492133955E+03  0.79275238033E+02 0.  0.
         11    1    3    3    0    0 -0.28704433967E+03  0.51386654370E+03  0.10834220010E+03  0.59849086041E+03  0.00000000000E+00 0. -1.
        -11    1    3    3    0    0 -0.18919922712E+03  0.43895148827E+03  0.15638970532E+03  0.50292394706E+03  0.00000000000E+00 0.  1.
          4    1    6    6  502    0  0.32443657973E+02 -0.45464305472E+02 -0.14708376458E+03  0.15733158557E+03  0.00000000000E+00 0. -1.
          3    1    5    5  503    0  0.10055854717E+03 -0.17734090528E+03  0.15467160533E+03  0.25590061271E+03  0.00000000000E+00 0. -1.
         -4    1    5    5    0  503  0.23979634357E+03 -0.69178964299E+03  0.48336028327E+03  0.87733252532E+03  0.00000000000E+00 0.  1.
         -3    1    6    6    0  502  0.10344501808E+03 -0.38223178237E+02 -0.11257285391E+03  0.15758975398E+03  0.00000000000E+00 0.  1.
<mgrwt>
<rscale>  0 0.24671272E+04</rscale>
<asrwt>0</asrwt>
<pdfrwt beam="1">  1        2 0.14665093E+00 0.24671272E+04</pdfrwt>
<pdfrwt beam="2">  1       -2 0.24559050E+00 0.24671272E+04</pdfrwt>
<totfact> 0.16526476E+00</totfact>
</mgrwt>
</event>
<event>
12    1  0.1536832E-007  0.1535583E+04  0.7818608E-02  0.8861129E-01
          2   -1    0    0  501    0  0.00000000000E+00  0.00000000000E+00  0.47704569019E+03  0.47704569019E+03  0.00000000000E+00 0. -1.
         -2   -1    0    0    0  501 -0.00000000000E+00 -0.00000000000E+00 -0.12357393408E+04  0.12357393408E+04  0.00000000000E+00 0.  1.
         23    2    1    2    0    0 -0.49640386258E+03 -0.98828432237E+01 -0.21353549000E+03  0.54622816586E+03  0.79078052040E+02 0.  0.
        254    2    1    2    0    0  0.49640386258E+03  0.98828432237E+01 -0.54515816061E+03  0.11665568651E+04  0.90395964188E+03 0.  0.
        -24    2    4    4    0    0  0.48492275463E+03  0.20885457063E+03  0.48776573582E+02  0.53495538352E+03  0.70906971410E+02 0.  0.
         24    2    4    4    0    0  0.11481107948E+02 -0.19897172741E+03 -0.59393473419E+03  0.63160148162E+03  0.80252096299E+02 0.  0.
         13    1    3    3    0    0 -0.10392032750E+03  0.93103866666E+01 -0.79044694852E+02  0.13089759949E+03  0.00000000000E+00 0. -1.
        -13    1    3    3    0    0 -0.39248353508E+03 -0.19193229890E+02 -0.13449079515E+03  0.41533056637E+03  0.00000000000E+00 0.  1.
          2    1    6    6  502    0  0.33600446144E+02 -0.18636444755E+03 -0.52043050173E+03  0.55381278825E+03  0.00000000000E+00 0. -1.
          3    1    5    5  503    0  0.39983716877E+03  0.17037986550E+03  0.67158138359E+02  0.43978321437E+03  0.00000000000E+00 0. -1.
         -4    1    5    5    0  503  0.85085585862E+02  0.38474705129E+02 -0.18381564777E+02  0.95172169146E+02  0.00000000000E+00 0.  1.
         -1    1    6    6    0  502 -0.22119338196E+02 -0.12607279857E+02 -0.73504232455E+02  0.77788693371E+02  0.00000000000E+00 0.  1.
<mgrwt>
<rscale>  0 0.15355834E+04</rscale>
<asrwt>0</asrwt>
<pdfrwt beam="1">  1        2 0.73391645E-01 0.15355834E+04</pdfrwt>
<pdfrwt beam="2">  1       -2 0.19011374E+00 0.15355834E+04</pdfrwt>
<totfact> 0.96855558E+00</totfact>
</mgrwt>
</event>
<event>
12    1  0.1536832E-007  0.2808268E+04  0.7818608E-02  0.8300706E-01
          1   -1    0    0  501    0  0.00000000000E+00  0.00000000000E+00  0.88362770303E+03  0.88362770303E+03  0.00000000000E+00 0. -1.
         -1   -1    0    0    0  501 -0.00000000000E+00 -0.00000000000E+00 -0.22312476245E+04  0.22312476245E+04  0.00000000000E+00 0.  1.
         23    2    1    2    0    0  0.10217430575E+03  0.39973785991E+03 -0.19273451875E+04  0.19728903673E+04  0.86063836720E+02 0.  0.
        254    2    1    2    0    0 -0.10217430575E+03 -0.39973785991E+03  0.57972526607E+03  0.11419849602E+04  0.89320676212E+03 0.  0.
        -24    2    4    4    0    0 -0.37147963648E+03  0.29378427859E+02  0.49135671384E+03  0.62139108375E+03  0.76388784434E+02 0.  0.
         24    2    4    4    0    0  0.26930533073E+03 -0.42911628776E+03  0.88368552228E+02  0.52059387649E+03  0.80887784186E+02 0.  0.
         11    1    3    3    0    0  0.91901008600E+01  0.20904150816E+03 -0.93926409810E+03  0.96228886311E+03  0.00000000000E+00 0.  1.
        -11    1    3    3    0    0  0.92984204890E+02  0.19069635175E+03 -0.98808108944E+03  0.10106015042E+04  0.00000000000E+00 0. -1.
          2    1    6    6  502    0  0.11550062038E+03 -0.23543576627E+03  0.75697386479E+02  0.27294777461E+03  0.00000000000E+00 0. -1.
          1    1    5    5  503    0 -0.22146928296E+03  0.54921407382E+02  0.29026622042E+03  0.36921468417E+03  0.00000000000E+00 0. -1.
         -2    1    5    5    0  503 -0.15001035352E+03 -0.25542979523E+02  0.20109049342E+03  0.25217639959E+03  0.00000000000E+00 0.  1.
         -1    1    6    6    0  502  0.15380471035E+03 -0.19368052150E+03  0.12671165749E+02  0.24764610188E+03  0.00000000000E+00 0.  1.
<mgrwt>
<rscale>  0 0.28082679E+04</rscale>
<asrwt>0</asrwt>
<pdfrwt beam="1">  1        1 0.13594272E+00 0.28082679E+04</pdfrwt>
<pdfrwt beam="2">  1       -1 0.34326887E+00 0.28082679E+04</pdfrwt>
<totfact> 0.27955797E-01</totfact>
</mgrwt>
</event>
<event>
12    1  0.1536832E-007  0.1181617E+04  0.7818608E-02  0.9129101E-01
         -1   -1    0    0    0  501 -0.00000000000E+00  0.00000000000E+00  0.21989999906E+03  0.21989999906E+03  0.00000000000E+00 0.  1.
          1   -1    0    0  501    0  0.00000000000E+00 -0.00000000000E+00 -0.15873346439E+04  0.15873346439E+04  0.00000000000E+00 0. -1.
         23    2    1    2    0    0 -0.12830248548E+03  0.52625187886E+02  0.21525298651E+01  0.16672858352E+03  0.92535663376E+02 0.  0.
        254    2    1    2    0    0  0.12830248548E+03 -0.52625187886E+02 -0.13695871747E+04  0.16405060595E+04  0.89233410998E+03 0.  0.
        -24    2    4    4    0    0 -0.34239264181E+02 -0.22512166427E+03 -0.13701581629E+04  0.13912417508E+04  0.79800544012E+02 0.  0.
         24    2    4    4    0    0  0.16254174966E+03  0.17249647638E+03  0.57098817656E+00  0.24926430869E+03  0.77184939027E+02 0.  0.
         13    1    3    3    0    0 -0.59141619791E+01 -0.17449911491E+02  0.16807549677E+02  0.24939335378E+02  0.00000000000E+00 0. -1.
        -13    1    3    3    0    0 -0.12238832350E+03  0.70075099378E+02 -0.14655019812E+02  0.14178924814E+03  0.00000000000E+00 0.  1.
          4    1    6    6  502    0  0.17025925626E+03  0.15582273721E+03 -0.12217280949E+01  0.23080388297E+03  0.00000000000E+00 0. -1.
          1    1    5    5  503    0 -0.78455134658E+01 -0.15199774154E+03 -0.10870671104E+04  0.10976701545E+04  0.00000000000E+00 0. -1.
         -2    1    5    5    0  503 -0.26393750715E+02 -0.73123922732E+02 -0.28309105250E+03  0.29357159631E+03  0.00000000000E+00 0.  1.
         -3    1    6    6    0  502 -0.77175066026E+01  0.16673739171E+02  0.17927162715E+01  0.18460425719E+02  0.00000000000E+00 0.  1.
<mgrwt>
<rscale>  0 0.11816173E+04</rscale>
<asrwt>0</asrwt>
<pdfrwt beam="1">  1        1 0.24420533E+00 0.11816173E+04</pdfrwt>
<pdfrwt beam="2">  1       -1 0.33830769E-01 0.11816173E+04</pdfrwt>
<totfact> 0.46526538E+01</totfact>
</mgrwt>
</event>
<event>
12    1  0.1536832E-007  0.2121818E+04  0.7818608E-02  0.8551693E-01
         -2   -1    0    0    0  501 -0.00000000000E+00  0.00000000000E+00  0.11942874069E+04  0.11942874069E+04  0.00000000000E+00 0.  1.
          2   -1    0    0  501    0  0.00000000000E+00 -0.00000000000E+00 -0.94242650335E+03  0.94242650335E+03  0.00000000000E+00 0. -1.
         23    2    1    2    0    0 -0.81065415647E+03 -0.22311670228E+03  0.30938257580E+03  0.90080296644E+03  0.93739969604E+02 0.  0.
        254    2    1    2    0    0  0.81065415647E+03  0.22311670228E+03 -0.57521672247E+02  0.12359109438E+04  0.90400547235E+03 0.  0.
        -24    2    4    4    0    0  0.36751811147E+03  0.47361586457E+03  0.22877993416E+03  0.64647331890E+03  0.78777816349E+02 0.  0.
         24    2    4    4    0    0  0.44313604500E+03 -0.25049916228E+03 -0.28630160640E+03  0.58943762492E+03  0.79678850137E+02 0.  0.
         11    1    3    3    0    0 -0.33858704653E+03 -0.12699216642E+03  0.16794762021E+03  0.39871619173E+03  0.00000000000E+00 0. -1.
        -11    1    3    3    0    0 -0.47206710994E+03 -0.96124535862E+02  0.14143495559E+03  0.50208677471E+03  0.00000000000E+00 0.  1.
          4    1    6    6  502    0  0.86315138901E+02 -0.15015902489E+02 -0.53186154327E+02  0.10249169500E+03  0.00000000000E+00 0. -1.
          1    1    5    5  503    0  0.10363830261E+03  0.10807518421E+03  0.90261954253E+02  0.17483810682E+03  0.00000000000E+00 0. -1.
         -2    1    5    5    0  503  0.26387980885E+03  0.36554068035E+03  0.13851797990E+03  0.47163521208E+03  0.00000000000E+00 0.  1.
         -1    1    6    6    0  502  0.35682090610E+03 -0.23548325979E+03 -0.23311545208E+03  0.48694592993E+03  0.00000000000E+00 0.  1.
<mgrwt>
<rscale>  0 0.21218182E+04</rscale>
<asrwt>0</asrwt>
<pdfrwt beam="1">  1        2 0.14498869E+00 0.21218182E+04</pdfrwt>
<pdfrwt beam="2">  1       -2 0.18373652E+00 0.21218182E+04</pdfrwt>
<totfact> 0.43168035E+00</totfact>
</mgrwt>
</event>
<event>
12    1  0.1536832E-007  0.1120245E+04  0.7818608E-02  0.9185682E-01
         -2   -1    0    0    0  501 -0.00000000000E+00  0.00000000000E+00  0.21130926697E+03  0.21130926697E+03  0.00000000000E+00 0.  1.
          2   -1    0    0  501    0  0.00000000000E+00 -0.00000000000E+00 -0.14847292917E+04  0.14847292917E+04  0.00000000000E+00 0. -1.
         23    2    1    2    0    0  0.30023818735E+02 -0.47860599924E+02  0.36396765133E+02  0.11356407113E+03  0.91542378293E+02 0.  0.
        254    2    1    2    0    0 -0.30023818735E+02  0.47860599924E+02 -0.13098167899E+04  0.15824744875E+04  0.88623552963E+03 0.  0.
        -24    2    4    4    0    0 -0.17787236713E+03 -0.31762431792E+03 -0.25094873529E+03  0.44944507300E+03  0.80633861244E+02 0.  0.
         24    2    4    4    0    0  0.14784854840E+03  0.36548491785E+03 -0.10588680546E+04  0.11330294145E+04  0.84354482776E+02 0.  0.
         11    1    3    3    0    0  0.97734745296E+01  0.53158052435E+01  0.53106674966E+02  0.54259538476E+02  0.00000000000E+00 0.  1.
        -11    1    3    3    0    0  0.20250344205E+02 -0.53176405168E+02 -0.16709909832E+02  0.59304532656E+02  0.00000000000E+00 0. -1.
          2    1    6    6  502    0  0.12951550212E+03  0.25011996958E+03 -0.82212550452E+03  0.86903659857E+03  0.00000000000E+00 0. -1.
          1    1    5    5  503    0 -0.17837627293E+03 -0.31436925787E+03 -0.23040819518E+03  0.42864211348E+03  0.00000000000E+00 0. -1.
         -2    1    5    5    0  503  0.50390580173E+00 -0.32550600504E+01 -0.20540540113E+02  0.20802959528E+02  0.00000000000E+00 0.  1.
         -1    1    6    6    0  502  0.18333046276E+02  0.11536494826E+03 -0.23674255005E+03  0.26399281596E+03  0.00000000000E+00 0.  1.
<mgrwt>
<rscale>  0 0.11202447E+04</rscale>
<asrwt>0</asrwt>
<pdfrwt beam="1">  1        2 0.22841990E+00 0.11202447E+04</pdfrwt>
<pdfrwt beam="2">  1       -2 0.32509116E-01 0.11202447E+04</pdfrwt>
<totfact> 0.11313392E+02</totfact>
</mgrwt>
</event>
<event>
12    1  0.1536832E-007  0.1915001E+04  0.7818608E-02  0.8647425E-01
          2   -1    0    0  501    0  0.00000000000E+00  0.00000000000E+00  0.11237520290E+04  0.11237520290E+04  0.00000000000E+00 0. -1.
         -2   -1    0    0    0  501 -0.00000000000E+00 -0.00000000000E+00 -0.81584484911E+03  0.81584484911E+03  0.00000000000E+00 0.  1.
         23    2    1    2    0    0 -0.69496784224E+03  0.19498306972E+03  0.31246995290E+03  0.79020373193E+03  0.76064231171E+02 0.  0.
        254    2    1    2    0    0  0.69496784224E+03 -0.19498306972E+03 -0.45627730546E+01  0.11493931461E+04  0.89447475440E+03 0.  0.
        -24    2    4    4    0    0  0.87694780983E+03 -0.18261580195E+03 -0.13767028754E+03  0.90971469250E+03  0.79004565639E+02 0.  0.
         24    2    4    4    0    0 -0.18197996759E+03 -0.12367267772E+02  0.13310751449E+03  0.23967845363E+03  0.80364748523E+02 0.  0.
         13    1    3    3    0    0 -0.21952505578E+02  0.19504432823E+02  0.51357471757E+01  0.29811261294E+02  0.00000000000E+00 0.  1.
        -13    1    3    3    0    0 -0.67301533666E+03  0.17547863690E+03  0.30733420572E+03  0.76039247063E+03  0.00000000000E+00 0. -1.
          2    1    6    6  502    0 -0.18568822327E+03  0.72989836945E+00  0.12480878571E+03  0.22373618841E+03  0.00000000000E+00 0. -1.
          3    1    5    5  503    0  0.72711130800E+03 -0.12062236550E+03 -0.11588053159E+03  0.74610247747E+03  0.00000000000E+00 0. -1.
         -4    1    5    5    0  503  0.14983650183E+03 -0.61993436454E+02 -0.21789755956E+02  0.16361221503E+03  0.00000000000E+00 0.  1.
         -1    1    6    6    0  502  0.37082556789E+01 -0.13097166141E+02  0.82987287744E+01  0.15942265221E+02  0.00000000000E+00 0.  1.
<mgrwt>
<rscale>  0 0.19150011E+04</rscale>
<asrwt>0</asrwt>
<pdfrwt beam="1">  1        2 0.17288493E+00 0.19150011E+04</pdfrwt>
<pdfrwt beam="2">  1       -2 0.12551459E+00 0.19150011E+04</pdfrwt>
<totfact> 0.93522592E+00</totfact>
</mgrwt>
</event>
<event>
12    1  0.1536832E-007  0.1542788E+04  0.7818608E-02  0.8856487E-01
          1   -1    0    0  501    0  0.00000000000E+00  0.00000000000E+00  0.12496982668E+04  0.12496982668E+04  0.00000000000E+00 0. -1.
         -1   -1    0    0    0  501 -0.00000000000E+00 -0.00000000000E+00 -0.47615397159E+03  0.47615397159E+03  0.00000000000E+00 0.  1.
         23    2    1    2    0    0  0.38146179149E+02  0.43358255007E+03 -0.32479708406E+02  0.44607218433E+03  0.92067928559E+02 0.  0.
        254    2    1    2    0    0 -0.38146179149E+02 -0.43358255007E+03  0.80602400364E+03  0.12797800541E+04  0.89370763324E+03 0.  0.
        -24    2    4    4    0    0 -0.35567427550E+03  0.14971571759E+02  0.98242064148E+02  0.37948371842E+03  0.87338715174E+02 0.  0.
         24    2    4    4    0    0  0.31752809635E+03 -0.44855412183E+03  0.70778193949E+03  0.90029633567E+03  0.86909872689E+02 0.  0.
         13    1    3    3    0    0  0.66315744732E+02  0.33651894156E+03 -0.36472884567E+02  0.34492469807E+03  0.00000000000E+00 0.  1.
        -13    1    3    3    0    0 -0.28169565583E+02  0.97063608502E+02  0.39931761617E+01  0.10114748626E+03  0.00000000000E+00 0. -1.
          2    1    6    6  502    0  0.30658296478E+03 -0.40812152928E+03  0.67901876147E+03  0.84948382879E+03  0.00000000000E+00 0. -1.
          1    1    5    5  503    0 -0.25726962311E+03 -0.15253267480E+02  0.10022259810E+03  0.27652285677E+03  0.00000000000E+00 0. -1.
         -4    1    5    5    0  503 -0.98404652385E+02  0.30224839239E+02 -0.19805339506E+01  0.10296086166E+03  0.00000000000E+00 0.  1.
         -1    1    6    6    0  502  0.10945131568E+02 -0.40432592548E+02  0.28763178028E+02  0.50812506880E+02  0.00000000000E+00 0.  1.
<mgrwt>
<rscale>  0 0.15427881E+04</rscale>
<asrwt>0</asrwt>
<pdfrwt beam="1">  1        1 0.19226127E+00 0.15427881E+04</pdfrwt>
<pdfrwt beam="2">  1       -1 0.73254458E-01 0.15427881E+04</pdfrwt>
<totfact> 0.17800547E+01</totfact>
</mgrwt>
</event>
<event>
12    1  0.1536832E-007  0.1622530E+04  0.7818608E-02  0.8806825E-01
          1   -1    0    0  501    0  0.00000000000E+00  0.00000000000E+00  0.41142533495E+03  0.41142533495E+03  0.00000000000E+00 0. -1.
         -1   -1    0    0    0  501 -0.00000000000E+00 -0.00000000000E+00 -0.15996843802E+04  0.15996843802E+04  0.00000000000E+00 0.  1.
         23    2    1    2    0    0  0.23375891641E+03 -0.35635307145E+03 -0.86232666648E+03  0.96602200958E+03  0.89221638318E+02 0.  0.
        254    2    1    2    0    0 -0.23375891641E+03  0.35635307145E+03 -0.32593237872E+03  0.10450877055E+04  0.89685319547E+03 0.  0.
        -24    2    4    4    0    0  0.18006777018E+03  0.88153893883E+02 -0.47605179948E+03  0.52306812947E+03  0.82337363428E+02 0.  0.
         24    2    4    4    0    0 -0.41382668659E+03  0.26819917757E+03  0.15011942075E+03  0.52201957606E+03  0.82372762020E+02 0.  0.
         13    1    3    3    0    0  0.23205020312E+03 -0.34022266131E+03 -0.85324718769E+03  0.94743312130E+03  0.00000000000E+00 0.  1.
        -13    1    3    3    0    0  0.17087132917E+01 -0.16130410144E+02 -0.90794787881E+01  0.18588888283E+02  0.00000000000E+00 0. -1.
          4    1    6    6  502    0 -0.24421384693E+03  0.20195228718E+03  0.79543310586E+02  0.32672965520E+03  0.00000000000E+00 0. -1.
          1    1    5    5  503    0  0.69622940031E+01 -0.11607377036E+02 -0.60307326550E+02  0.61807591565E+02  0.00000000000E+00 0. -1.
         -2    1    5    5    0  503  0.17310547618E+03  0.99761270919E+02 -0.41574447293E+03  0.46126053790E+03  0.00000000000E+00 0.  1.
         -3    1    6    6    0  502 -0.16961283966E+03  0.66246890392E+02  0.70576110167E+02  0.19528992086E+03  0.00000000000E+00 0.  1.
<mgrwt>
<rscale>  0 0.16225297E+04</rscale>
<asrwt>0</asrwt>
<pdfrwt beam="1">  1        1 0.63296205E-01 0.16225297E+04</pdfrwt>
<pdfrwt beam="2">  1       -1 0.24610529E+00 0.16225297E+04</pdfrwt>
<totfact> 0.40924182E+00</totfact>
</mgrwt>
</event>
<event>
12    1  0.1536832E-007  0.2659032E+04  0.7818608E-02  0.8348421E-01
         -2   -1    0    0    0  501 -0.00000000000E+00  0.00000000000E+00  0.13815175719E+04  0.13815175719E+04  0.00000000000E+00 0.  1.
          2   -1    0    0  501    0  0.00000000000E+00 -0.00000000000E+00 -0.12794720786E+04  0.12794720786E+04  0.00000000000E+00 0. -1.
         23    2    1    2    0    0 -0.53048254517E+03  0.82003569281E+03  0.69125313954E+03  0.12002896697E+04  0.94837334722E+02 0.  0.
        254    2    1    2    0    0  0.53048254517E+03 -0.82003569281E+03 -0.58920764623E+03  0.14606999809E+04  0.91247384372E+03 0.  0.
        -24    2    4    4    0    0  0.31000583360E+02  0.17649847621E+03  0.35699958681E+01  0.19613581154E+03  0.79647745881E+02 0.  0.
         24    2    4    4    0    0  0.49948196181E+03 -0.99653416903E+03 -0.59277764210E+03  0.12645641693E+04  0.71934867223E+02 0.  0.
         11    1    3    3    0    0 -0.27485087170E+03  0.38999096747E+03  0.39065073078E+03  0.61663923800E+03  0.00000000000E+00 0. -1.
        -11    1    3    3    0    0 -0.25563167347E+03  0.43004472534E+03  0.30060240876E+03  0.58365043170E+03  0.00000000000E+00 0.  1.
          2    1    6    6  502    0  0.49565322019E+03 -0.97879992142E+03 -0.59136021664E+03  0.12463660404E+04  0.00000000000E+00 0. -1.
          3    1    5    5  503    0  0.17605311956E+02  0.18095429542E+03  0.54738353638E+01  0.18189108530E+03  0.00000000000E+00 0. -1.
         -4    1    5    5    0  503  0.13395271404E+02 -0.44558192038E+01 -0.19038394956E+01  0.14244726238E+02  0.00000000000E+00 0.  1.
         -3    1    6    6    0  502  0.38287416189E+01 -0.17734247611E+02 -0.14174254545E+01  0.18198128905E+02  0.00000000000E+00 0.  1.
<mgrwt>
<rscale>  0 0.26590323E+04</rscale>
<asrwt>0</asrwt>
<pdfrwt beam="1">  1        2 0.19684186E+00 0.26590323E+04</pdfrwt>
<pdfrwt beam="2">  1       -2 0.21254117E+00 0.26590323E+04</pdfrwt>
<totfact> 0.16498145E+00</totfact>
</mgrwt>
</event>
<event>
12    1  0.1536832E-007  0.1315159E+04  0.7818608E-02  0.9017630E-01
         -2   -1    0    0    0  501 -0.00000000000E+00  0.00000000000E+00  0.15912235665E+03  0.15912235665E+03  0.00000000000E+00 0.  1.
          2   -1    0    0  501    0  0.00000000000E+00 -0.00000000000E+00 -0.27174734258E+04  0.27174734258E+04  0.00000000000E+00 0. -1.
         23    2    1    2    0    0  0.91174055260E+02  0.30296602541E+02 -0.13809580931E+04  0.13869778942E+04  0.86208071710E+02 0.  0.
        254    2    1    2    0    0 -0.91174055260E+02 -0.30296602541E+02 -0.11773929760E+04  0.14896178882E+04  0.90745613691E+03 0.  0.
        -24    2    4    4    0    0 -0.10905499360E+03 -0.40326015971E+03 -0.95957308374E+03  0.10495234677E+04  0.78786155202E+02 0.  0.
         24    2    4    4    0    0  0.17880938341E+02  0.37296355717E+03 -0.21781989227E+03  0.44009442047E+03  0.82559375782E+02 0.  0.
         11    1    3    3    0    0  0.99932236330E+02  0.67450920035E+01 -0.12158768783E+04  0.12199952997E+04  0.00000000000E+00 0. -1.
        -11    1    3    3    0    0 -0.87581810700E+01  0.23551510538E+02 -0.16508121483E+03  0.16698259453E+03  0.00000000000E+00 0.  1.
          2    1    6    6  502    0 -0.78885752627E+01 -0.24791120409E+00 -0.76896275669E+01  0.11019140246E+02  0.00000000000E+00 0. -1.
          3    1    5    5  503    0 -0.32836370614E+01 -0.13358761430E+03 -0.34940278305E+03  0.37408386463E+03  0.00000000000E+00 0. -1.
         -4    1    5    5    0  503 -0.10577135654E+03 -0.26967254540E+03 -0.61017030069E+03  0.67543960311E+03  0.00000000000E+00 0.  1.
         -1    1    6    6    0  502  0.25769513604E+02  0.37321146837E+03 -0.21013026471E+03  0.42907528022E+03  0.00000000000E+00 0.  1.
<mgrwt>
<rscale>  0 0.13151590E+04</rscale>
<asrwt>0</asrwt>
<pdfrwt beam="1">  1        2 0.41807284E+00 0.13151590E+04</pdfrwt>
<pdfrwt beam="2">  1       -2 0.24480362E-01 0.13151590E+04</pdfrwt>
<totfact> 0.38098556E+01</totfact>
</mgrwt>
</event>
<event>
12    1  0.1536832E-007  0.1548563E+04  0.7818608E-02  0.8852786E-01
         -3   -1    0    0    0  501 -0.00000000000E+00  0.00000000000E+00  0.65848797451E+03  0.65848797451E+03  0.00000000000E+00 0.  1.
          3   -1    0    0  501    0  0.00000000000E+00 -0.00000000000E+00 -0.91043744800E+03  0.91043744800E+03  0.00000000000E+00 0. -1.
         23    2    1    2    0    0 -0.31300546885E+03 -0.33874012653E+03 -0.28573464716E+03  0.55071765207E+03  0.94489929923E+02 0.  0.
        254    2    1    2    0    0  0.31300546885E+03  0.33874012653E+03  0.33785173682E+02  0.10182077704E+04  0.90713192479E+03 0.  0.
        -24    2    4    4    0    0 -0.14839309715E+03 -0.21930370360E+03  0.81951989111E+02  0.28814703154E+03  0.78727108244E+02 0.  0.
         24    2    4    4    0    0  0.46139856600E+03  0.55804383013E+03 -0.48166815429E+02  0.73006073891E+03  0.79794030721E+02 0.  0.
         13    1    3    3    0    0 -0.83206764492E+02 -0.47517285652E+02 -0.89160333691E+02  0.13088477068E+03  0.00000000000E+00 0. -1.
        -13    1    3    3    0    0 -0.22979870436E+03 -0.29122284088E+03 -0.19657431347E+03  0.41983288138E+03  0.00000000000E+00 0.  1.
          2    1    6    6  502    0  0.23537117727E+03  0.24042831345E+03  0.58143249070E+01  0.33651028420E+03  0.00000000000E+00 0. -1.
          1    1    5    5  503    0 -0.11023805432E+03 -0.92792243894E+02  0.44212592642E+02  0.15072353000E+03  0.00000000000E+00 0. -1.
         -2    1    5    5    0  503 -0.38155042827E+02 -0.12651145970E+03  0.37739396469E+02  0.13742350154E+03  0.00000000000E+00 0.  1.
         -1    1    6    6    0  502  0.22602738873E+03  0.31761551668E+03 -0.53981140336E+02  0.39355045471E+03  0.00000000000E+00 0.  1.
<mgrwt>
<rscale>  0 0.15485633E+04</rscale>
<asrwt>0</asrwt>
<pdfrwt beam="1">  1        3 0.14006730E+00 0.15485633E+04</pdfrwt>
<pdfrwt beam="2">  1       -3 0.10130584E+00 0.15485633E+04</pdfrwt>
<totfact> 0.82432355E-01</totfact>
</mgrwt>
</event>
<event>
12    1  0.1536832E-007  0.1163542E+04  0.7818608E-02  0.9145380E-01
         -2   -1    0    0    0  501 -0.00000000000E+00  0.00000000000E+00  0.11510672749E+04  0.11510672749E+04  0.00000000000E+00 0.  1.
          2   -1    0    0  501    0  0.00000000000E+00 -0.00000000000E+00 -0.29403818996E+03  0.29403818996E+03  0.00000000000E+00 0. -1.
         23    2    1    2    0    0 -0.14459893815E+03  0.12624931784E+03  0.25469759252E+03  0.33111442939E+03  0.88984035336E+02 0.  0.
        254    2    1    2    0    0  0.14459893815E+03 -0.12624931784E+03  0.60233149239E+03  0.11139910354E+04  0.91723773206E+03 0.  0.
        -24    2    4    4    0    0 -0.14515193789E+03  0.59946939821E+02  0.72004317563E+03  0.74149429238E+03  0.81785635610E+02 0.  0.
         24    2    4    4    0    0  0.28975087605E+03 -0.18619625767E+03 -0.11771168324E+03  0.37249674305E+03  0.79203324886E+02 0.  0.
         13    1    3    3    0    0 -0.43605369821E+02  0.66537908370E+02  0.16585511131E+03  0.18394738235E+03  0.00000000000E+00 0.  1.
        -13    1    3    3    0    0 -0.10099356833E+03  0.59711409474E+02  0.88842481209E+02  0.14716704704E+03  0.00000000000E+00 0. -1.
          4    1    6    6  502    0  0.23712582578E+03 -0.11221628299E+03 -0.80886090125E+02  0.27452451802E+03  0.00000000000E+00 0. -1.
          3    1    5    5  503    0 -0.14398930668E+03  0.69728931331E+02  0.59723774945E+03  0.61829440695E+03  0.00000000000E+00 0. -1.
         -4    1    5    5    0  503 -0.11626312070E+01 -0.97819915104E+01  0.12280542618E+03  0.12319988542E+03  0.00000000000E+00 0.  1.
         -3    1    6    6    0  502  0.52625050266E+02 -0.73979974673E+02 -0.36825593116E+02  0.97972225026E+02  0.00000000000E+00 0.  1.
<mgrwt>
<rscale>  0 0.11635424E+04</rscale>
<asrwt>0</asrwt>
<pdfrwt beam="1">  1        2 0.45236645E-01 0.11635424E+04</pdfrwt>
<pdfrwt beam="2">  1       -2 0.17708727E+00 0.11635424E+04</pdfrwt>
<totfact> 0.21073553E+01</totfact>
</mgrwt>
</event>
<event>
12    1  0.1536832E-007  0.2188625E+04  0.7818608E-02  0.8523178E-01
          2   -1    0    0  501    0  0.00000000000E+00  0.00000000000E+00  0.23139041319E+04  0.23139041319E+04  0.00000000000E+00 0.  1.
         -2   -1    0    0    0  501 -0.00000000000E+00 -0.00000000000E+00 -0.51753196532E+03  0.51753196532E+03  0.00000000000E+00 0. -1.
         23    2    1    2    0    0  0.36122947540E+03  0.54441899074E+03  0.15667142766E+04  0.16999504794E+04  0.91428861344E+02 0.  0.
        254    2    1    2    0    0 -0.36122947540E+03 -0.54441899074E+03  0.22965789001E+03  0.11314856178E+04  0.89478387641E+03 0.  0.
        -24    2    4    4    0    0 -0.24160788072E+03 -0.59833242091E+03  0.50026981014E+03  0.82038941143E+03  0.79955296951E+02 0.  0.
         24    2    4    4    0    0 -0.11962159469E+03  0.53913430164E+02 -0.27061192013E+03  0.31109620638E+03  0.79586773049E+02 0.  0.
         13    1    3    3    0    0  0.21312367081E+03  0.23969820887E+03  0.74237363566E+03  0.80869991055E+03  0.00000000000E+00 0. -1.
        -13    1    3    3    0    0  0.14810580459E+03  0.30472078187E+03  0.82434064093E+03  0.89125056889E+03  0.00000000000E+00 0.  1.
          4    1    6    6  502    0 -0.11580085774E+03  0.68342317583E+02 -0.21559062490E+03  0.25408626207E+03  0.00000000000E+00 0. -1.
          3    1    5    5  503    0 -0.12364619347E+03 -0.40360749989E+03  0.33889734002E+03  0.54133058495E+03  0.00000000000E+00 0. -1.
         -4    1    5    5    0  503 -0.11796168725E+03 -0.19472492101E+03  0.16137247012E+03  0.27905882648E+03  0.00000000000E+00 0.  1.
         -3    1    6    6    0  502 -0.38207369510E+01 -0.14428887418E+02 -0.55021295223E+02  0.57009944316E+02  0.00000000000E+00 0.  1.
<mgrwt>
<rscale>  0 0.21886245E+04</rscale>
<asrwt>0</asrwt>
<pdfrwt beam="1">  1        2 0.35598525E+00 0.21886245E+04</pdfrwt>
<pdfrwt beam="2">  1       -2 0.79620304E-01 0.21886245E+04</pdfrwt>
<totfact> 0.56903477E+00</totfact>
</mgrwt>
</event>
<event>
12    1  0.1536832E-007  0.1128571E+04  0.7818608E-02  0.9177784E-01
         -2   -1    0    0    0  501 -0.00000000000E+00  0.00000000000E+00  0.16297437757E+03  0.16297437757E+03  0.00000000000E+00 0.  1.
          2   -1    0    0  501    0  0.00000000000E+00 -0.00000000000E+00 -0.19537920048E+04  0.19537920048E+04  0.00000000000E+00 0. -1.
         23    2    1    2    0    0 -0.14877179296E+03 -0.11736826188E+03 -0.31542801383E+03  0.37873591837E+03  0.89653269197E+02 0.  0.
        254    2    1    2    0    0  0.14877179296E+03  0.11736826188E+03 -0.14753896134E+04  0.17380304640E+04  0.89892548478E+03 0.  0.
        -24    2    4    4    0    0 -0.21830120227E+03 -0.87272128656E+02 -0.54825205108E+02  0.25456931650E+03  0.80795386223E+02 0.  0.
         24    2    4    4    0    0  0.36707299523E+03  0.20464039053E+03 -0.14205644083E+04  0.14834611475E+04  0.77675380774E+02 0.  0.
         13    1    3    3    0    0 -0.61116717374E+02 -0.26132530462E+02 -0.45274525652E+02  0.80423534889E+02  0.00000000000E+00 0.  1.
        -13    1    3    3    0    0 -0.87655075582E+02 -0.91235731415E+02 -0.27015348818E+03  0.29831238348E+03  0.00000000000E+00 0. -1.
          4    1    6    6  502    0  0.29625476382E+03  0.12723287109E+03 -0.10809376031E+04  0.11279987546E+04  0.00000000000E+00 0. -1.
          3    1    5    5  503    0 -0.45936562132E+02  0.39931102163E+01  0.13280924712E+02  0.47984326930E+02  0.00000000000E+00 0. -1.
         -4    1    5    5    0  503 -0.17236464014E+03 -0.91265238872E+02 -0.68106129820E+02  0.20658498957E+03  0.00000000000E+00 0.  1.
         -3    1    6    6    0  502  0.70818231409E+02  0.77407519444E+02 -0.33962680512E+03  0.35546239284E+03  0.00000000000E+00 0.  1.
<mgrwt>
<rscale>  0 0.11285708E+04</rscale>
<asrwt>0</asrwt>
<pdfrwt beam="1">  1        2 0.30058336E+00 0.11285708E+04</pdfrwt>
<pdfrwt beam="2">  1       -2 0.25072983E-01 0.11285708E+04</pdfrwt>
<totfact> 0.10041457E+02</totfact>
</mgrwt>
</event>
<event>
12    1  0.1536832E-007  0.1422699E+04  0.7818608E-02  0.8937550E-01
         -1   -1    0    0    0  501 -0.00000000000E+00  0.00000000000E+00  0.22065019807E+04  0.22065019807E+04  0.00000000000E+00 0.  1.
          1   -1    0    0  501    0  0.00000000000E+00 -0.00000000000E+00 -0.22933033843E+03  0.22933033843E+03  0.00000000000E+00 0. -1.
         23    2    1    2    0    0  0.16372936416E+03 -0.44634214722E+02  0.12596183145E+04  0.12738769253E+04  0.85583904890E+02 0.  0.
        254    2    1    2    0    0 -0.16372936416E+03  0.44634214722E+02  0.71755332775E+03  0.11619553938E+04  0.89803008927E+03 0.  0.
        -24    2    4    4    0    0  0.13234176830E+02 -0.17856320828E+03 -0.14907255298E+03  0.24635644142E+03  0.80055651835E+02 0.  0.
         24    2    4    4    0    0 -0.17696354099E+03  0.22319742300E+03  0.86662588073E+03  0.91559895239E+03  0.78408162844E+02 0.  0.
         11    1    3    3    0    0  0.16920021695E+03 -0.55181204642E+02  0.11941526351E+04  0.12073417887E+04  0.00000000000E+00 0.  1.
        -11    1    3    3    0    0 -0.54708527885E+01  0.10546989920E+02  0.65465679370E+02  0.66535136597E+02  0.00000000000E+00 0. -1.
          4    1    6    6  502    0 -0.85499203709E+02  0.16254615328E+03  0.59280101111E+03  0.62060003590E+03  0.00000000000E+00 0. -1.
          1    1    5    5  503    0 -0.26693779363E+02 -0.97504238225E+02 -0.10523483448E+03  0.14592465425E+03  0.00000000000E+00 0. -1.
         -2    1    5    5    0  503  0.39927956193E+02 -0.81058970057E+02 -0.43837718496E+02  0.10043178718E+03  0.00000000000E+00 0.  1.
         -3    1    6    6    0  502 -0.91464337279E+02  0.60651269726E+02  0.27382486962E+03  0.29499891650E+03  0.00000000000E+00 0.  1.
<mgrwt>
<rscale>  0 0.14226986E+04</rscale>
<asrwt>0</asrwt>
<pdfrwt beam="1">  1        1 0.35281592E-01 0.14226986E+04</pdfrwt>
<pdfrwt beam="2">  1       -1 0.33946183E+00 0.14226986E+04</pdfrwt>
<totfact> 0.22221676E+00</totfact>
</mgrwt>
</event>
<event>
12    1  0.1536832E-007  0.1749574E+04  0.7818608E-02  0.8733585E-01
         -2   -1    0    0    0  501 -0.00000000000E+00  0.00000000000E+00  0.61405772219E+03  0.61405772219E+03  0.00000000000E+00 0.  1.
          2   -1    0    0  501    0  0.00000000000E+00 -0.00000000000E+00 -0.12462225184E+04  0.12462225184E+04  0.00000000000E+00 0. -1.
         23    2    1    2    0    0 -0.87417310695E+02  0.51516803859E+03 -0.49493751888E+03  0.72546314117E+03  0.91069903957E+02 0.  0.
        254    2    1    2    0    0  0.87417310695E+02 -0.51516803859E+03 -0.13722727730E+03  0.11348170994E+04  0.99796724858E+03 0.  0.
        -24    2    4    4    0    0  0.38426845316E+03 -0.48837710833E+03  0.21888901008E+03  0.66364080451E+03  0.79575590694E+02 0.  0.
         24    2    4    4    0    0 -0.29685114247E+03 -0.26790930254E+02 -0.35611628738E+03  0.47117629488E+03  0.79686485628E+02 0.  0.
         13    1    3    3    0    0 -0.90767071187E+02  0.29425333668E+03 -0.26074333972E+03  0.40349817418E+03  0.00000000000E+00 0. -1.
        -13    1    3    3    0    0  0.33497604919E+01  0.22091470191E+03 -0.23419417916E+03  0.32196496699E+03  0.00000000000E+00 0.  1.
          2    1    6    6  502    0 -0.16024085172E+03 -0.51791564141E+02 -0.21606694764E+03  0.27394237084E+03  0.00000000000E+00 0. -1.
          3    1    5    5  503    0  0.50718468764E+02 -0.27896399333E+02  0.18468552210E+02  0.60759028878E+02  0.00000000000E+00 0. -1.
         -4    1    5    5    0  503  0.33354998440E+03 -0.46048070900E+03  0.20042045787E+03  0.60288177563E+03  0.00000000000E+00 0.  1.
         -1    1    6    6    0  502 -0.13661029075E+03  0.25000633887E+02 -0.14004933974E+03  0.19723392404E+03  0.00000000000E+00 0.  1.
<mgrwt>
<rscale>  0 0.17495743E+04</rscale>
<asrwt>0</asrwt>
<pdfrwt beam="1">  1        2 0.19172654E+00 0.17495743E+04</pdfrwt>
<pdfrwt beam="2">  1       -2 0.94470420E-01 0.17495743E+04</pdfrwt>
<totfact> 0.15914985E+01</totfact>
</mgrwt>
</event>
<event>
12    1  0.1536832E-007  0.1191613E+04  0.7818608E-02  0.9120229E-01
         -2   -1    0    0    0  501 -0.00000000000E+00  0.00000000000E+00  0.33511594234E+03  0.33511594234E+03  0.00000000000E+00 0. -1.
          2   -1    0    0  501    0  0.00000000000E+00 -0.00000000000E+00 -0.10592916701E+04  0.10592916701E+04  0.00000000000E+00 0.  1.
         23    2    1    2    0    0 -0.23829008874E+03  0.40388279400E+01 -0.11515553434E+03  0.28016007345E+03  0.91817161484E+02 0.  0.
        254    2    1    2    0    0  0.23829008874E+03 -0.40388279400E+01 -0.60902019346E+03  0.11142475390E+04  0.90213275281E+03 0.  0.
        -24    2    4    4    0    0  0.75470937718E+02 -0.26026836527E+02  0.23038991764E+03  0.25527135723E+03  0.75569127399E+02 0.  0.
         24    2    4    4    0    0  0.16281915102E+03  0.21988008587E+02 -0.83941011110E+03  0.85897618180E+03  0.78975931975E+02 0.  0.
         11    1    3    3    0    0 -0.21562892903E+03  0.27684559102E+02 -0.78829281218E+02  0.23124948740E+03  0.00000000000E+00 0. -1.
        -11    1    3    3    0    0 -0.22661159711E+02 -0.23645731162E+02 -0.36326253118E+02  0.48910586045E+02  0.00000000000E+00 0.  1.
          2    1    6    6  502    0  0.13090772467E+03  0.19928056919E+02 -0.47335985945E+03  0.49153180606E+03  0.00000000000E+00 0. -1.
          1    1    5    5  503    0 -0.64766949940E+01  0.15858656047E+02  0.48254571996E+02  0.51204963316E+02  0.00000000000E+00 0. -1.
         -2    1    5    5    0  503  0.81947632712E+02 -0.41885492574E+02  0.18213534564E+03  0.20406639392E+03  0.00000000000E+00 0.  1.
         -1    1    6    6    0  502  0.31911426345E+02  0.20599516684E+01 -0.36605025165E+03  0.36744437574E+03  0.00000000000E+00 0.  1.
<mgrwt>
<rscale>  0 0.11916132E+04</rscale>
<asrwt>0</asrwt>
<pdfrwt beam="1">  1        2 0.16296795E+00 0.11916132E+04</pdfrwt>
<pdfrwt beam="2">  1       -2 0.51556299E-01 0.11916132E+04</pdfrwt>
<totfact> 0.81021280E+01</totfact>
</mgrwt>
</event>
<event>
12    1  0.1536832E-007  0.1405433E+04  0.7818608E-02  0.8949895E-01
         -1   -1    0    0    0  501 -0.00000000000E+00  0.00000000000E+00  0.36250627266E+03  0.36250627266E+03  0.00000000000E+00 0.  1.
          1   -1    0    0  501    0  0.00000000000E+00 -0.00000000000E+00 -0.13622120324E+04  0.13622120324E+04  0.00000000000E+00 0. -1.
         23    2    1    2    0    0  0.10154604325E+03 -0.12067026497E+03 -0.79612599913E+03  0.81701881333E+03  0.93969266761E+02 0.  0.
        254    2    1    2    0    0 -0.10154604325E+03  0.12067026497E+03 -0.20357976063E+03  0.90769949175E+03  0.87040262904E+03 0.  0.
        -24    2    4    4    0    0  0.20743942768E+03  0.37896714038E+03  0.21435797799E+02  0.43978016348E+03  0.79371840837E+02 0.  0.
         24    2    4    4    0    0 -0.30898547092E+03 -0.25829687541E+03 -0.22501555843E+03  0.46791932827E+03  0.78276427761E+02 0.  0.
         13    1    3    3    0    0  0.81721197751E+02 -0.13454124532E+03 -0.72491352733E+03  0.74180814431E+03  0.00000000000E+00 0. -1.
        -13    1    3    3    0    0  0.19824845495E+02  0.13870980351E+02 -0.71212471794E+02  0.75210669016E+02  0.00000000000E+00 0.  1.
          2    1    6    6  502    0 -0.23495811088E+03 -0.23540985792E+03 -0.17702977394E+03  0.37677931994E+03  0.00000000000E+00 0. -1.
          1    1    5    5  503    0  0.12786193307E+03  0.18197978835E+03  0.41980661818E+02  0.22633535574E+03  0.00000000000E+00 0. -1.
         -2    1    5    5    0  503  0.79577494613E+02  0.19698735204E+03 -0.20544864019E+02  0.21344480774E+03  0.00000000000E+00 0.  1.
         -1    1    6    6    0  502 -0.74027360046E+02 -0.22887017490E+02 -0.47985784488E+02  0.91140008327E+02  0.00000000000E+00 0.  1.
<mgrwt>
<rscale>  0 0.14054329E+04</rscale>
<asrwt>0</asrwt>
<pdfrwt beam="1">  1        1 0.20957108E+00 0.14054329E+04</pdfrwt>
<pdfrwt beam="2">  1       -1 0.55770196E-01 0.14054329E+04</pdfrwt>
<totfact> 0.25888899E+01</totfact>
</mgrwt>
</event>
<event>
12    1  0.1536832E-007  0.1174262E+04  0.7818608E-02  0.9135688E-01
          1   -1    0    0  501    0  0.00000000000E+00  0.00000000000E+00  0.14994152371E+04  0.14994152371E+04  0.00000000000E+00 0. -1.
         -1   -1    0    0    0  501 -0.00000000000E+00 -0.00000000000E+00 -0.22990491174E+03  0.22990491174E+03  0.00000000000E+00 0.  1.
         23    2    1    2    0    0 -0.21371932875E+03 -0.89780140779E+02  0.24833210618E+03  0.35111250525E+03  0.88739682314E+02 0.  0.
        254    2    1    2    0    0  0.21371932875E+03  0.89780140779E+02  0.10211782192E+04  0.13782076436E+04  0.89605520388E+03 0.  0.
        -24    2    4    4    0    0  0.30710593024E+03  0.21032624506E+03  0.40861060557E+02  0.38293814950E+03  0.80130008896E+02 0.  0.
         24    2    4    4    0    0 -0.93386601486E+02 -0.12054610428E+03  0.98031715866E+03  0.99526949413E+03  0.79291952901E+02 0.  0.
         13    1    3    3    0    0 -0.14012557040E+02 -0.16922758399E+02  0.70858830221E+02  0.74186961974E+02  0.00000000000E+00 0.  1.
        -13    1    3    3    0    0 -0.19970677171E+03 -0.72857382380E+02  0.17747327596E+03  0.27692554327E+03  0.00000000000E+00 0. -1.
          4    1    6    6  502    0 -0.84598720892E+02 -0.10194740442E+03  0.94621334841E+03  0.95544226281E+03  0.00000000000E+00 0. -1.
          1    1    5    5  503    0  0.19957025149E+03  0.17446708192E+03  0.91840045429E+01  0.26523837184E+03  0.00000000000E+00 0. -1.
         -2    1    5    5    0  503  0.10753567875E+03  0.35859163133E+02  0.31677056014E+02  0.11769977767E+03  0.00000000000E+00 0.  1.
         -3    1    6    6    0  502 -0.87878805942E+01 -0.18598699854E+02  0.34103810244E+02  0.39827231322E+02  0.00000000000E+00 0.  1.
<mgrwt>
<rscale>  0 0.11742622E+04</rscale>
<asrwt>0</asrwt>
<pdfrwt beam="1">  1        1 0.23067926E+00 0.11742622E+04</pdfrwt>
<pdfrwt beam="2">  1       -1 0.35369987E-01 0.11742622E+04</pdfrwt>
<totfact> 0.49423465E+01</totfact>
</mgrwt>
</event>
<event>
12    1  0.1536832E-007  0.1554157E+04  0.7818608E-02  0.8849217E-01
         -2   -1    0    0    0  501 -0.00000000000E+00  0.00000000000E+00  0.17010907908E+04  0.17010907908E+04  0.00000000000E+00 0.  1.
          2   -1    0    0  501    0  0.00000000000E+00 -0.00000000000E+00 -0.35497853228E+03  0.35497853228E+03  0.00000000000E+00 0. -1.
         23    2    1    2    0    0  0.26611575893E+03 -0.10864979012E+03 -0.10691715246E+03  0.31909738690E+03  0.88144715031E+02 0.  0.
        254    2    1    2    0    0 -0.26611575893E+03  0.10864979012E+03  0.14530294110E+04  0.17369719362E+04  0.90727871345E+03 0.  0.
        -24    2    4    4    0    0 -0.53349676809E+03 -0.15284821493E+02  0.49856192489E+03  0.73482636663E+03  0.80952880234E+02 0.  0.
         24    2    4    4    0    0  0.26738100915E+03  0.12393461161E+03  0.95446748608E+03  0.10021455696E+04  0.80219502394E+02 0.  0.
         13    1    3    3    0    0  0.19711939032E+03 -0.11901074797E+03 -0.73258214188E+02  0.24163273395E+03  0.00000000000E+00 0. -1.
        -13    1    3    3    0    0  0.68996368619E+02  0.10360957852E+02 -0.33658938274E+02  0.77464652946E+02  0.00000000000E+00 0.  1.
          4    1    6    6  502    0 -0.34224586238E+01  0.35486883718E+01  0.52678109065E+02  0.52908313022E+02  0.00000000000E+00 0. -1.
          1    1    5    5  503    0 -0.32554379936E+03  0.36382376610E+00  0.25059191341E+03  0.41082259521E+03  0.00000000000E+00 0. -1.
         -2    1    5    5    0  503 -0.20795296873E+03 -0.15648645259E+02  0.24797001148E+03  0.32400377142E+03  0.00000000000E+00 0.  1.
         -3    1    6    6    0  502  0.27080346778E+03  0.12038592324E+03  0.90178937702E+03  0.94923725653E+03  0.00000000000E+00 0.  1.
<mgrwt>
<rscale>  0 0.15541566E+04</rscale>
<asrwt>0</asrwt>
<pdfrwt beam="1">  1        2 0.54612083E-01 0.15541566E+04</pdfrwt>
<pdfrwt beam="2">  1       -2 0.26170627E+00 0.15541566E+04</pdfrwt>
<totfact> 0.47720417E+00</totfact>
</mgrwt>
</event>
<event>
12    1  0.1547034E-007  0.1613642E+04  0.7818608E-02  0.8812211E-01
         -2   -1    0    0    0  501 -0.00000000000E+00  0.00000000000E+00  0.33631691063E+03  0.33631691063E+03  0.00000000000E+00 0.  1.
          2   -1    0    0  501    0  0.00000000000E+00 -0.00000000000E+00 -0.19355547048E+04  0.19355547048E+04  0.00000000000E+00 0. -1.
         23    2    1    2    0    0 -0.48000455057E+03 -0.23553967807E+03 -0.39093910447E+03  0.66866832906E+03  0.91655018250E+02 0.  0.
        254    2    1    2    0    0  0.48000455057E+03  0.23553967807E+03 -0.12082986897E+04  0.16032032864E+04  0.90796021135E+03 0.  0.
        -24    2    4    4    0    0  0.91682827832E+02 -0.17505641160E+02 -0.11178815040E+04  0.11244925830E+04  0.78181352386E+02 0.  0.
         24    2    4    4    0    0  0.38832172274E+03  0.25304531923E+03 -0.90417185645E+02  0.47871070332E+03  0.78504624545E+02 0.  0.
         13    1    3    3    0    0 -0.44291655965E+03 -0.21901355277E+03 -0.38747719646E+03  0.62791766410E+03  0.00000000000E+00 0. -1.
        -13    1    3    3    0    0 -0.37087990917E+02 -0.16526125305E+02 -0.34619080123E+01  0.40750664963E+02  0.00000000000E+00 0.  1.
          4    1    6    6  502    0  0.34770255245E+03  0.24552146523E+03 -0.66034947029E+02  0.43074176614E+03  0.00000000000E+00 0. -1.
          3    1    5    5  503    0  0.10472627914E+03 -0.71247636562E+01 -0.94689837363E+03  0.95269873821E+03  0.00000000000E+00 0. -1.
         -4    1    5    5    0  503 -0.13043451308E+02 -0.10380877504E+02 -0.17098313040E+03  0.17179384483E+03  0.00000000000E+00 0.  1.
         -3    1    6    6    0  502  0.40619170287E+02  0.75238540026E+01 -0.24382238616E+02  0.47968937176E+02  0.00000000000E+00 0.  1.
<mgrwt>
<rscale>  0 0.16136416E+04</rscale>
<asrwt>0</asrwt>
<pdfrwt beam="1">  1        2 0.29777765E+00 0.16136416E+04</pdfrwt>
<pdfrwt beam="2">  1       -2 0.51741063E-01 0.16136416E+04</pdfrwt>
<totfact> 0.24523036E+01</totfact>
</mgrwt>
</event>
<event>
12    1  0.1536832E-007  0.2020628E+04  0.7818608E-02  0.8597037E-01
         -1   -1    0    0    0  501 -0.00000000000E+00  0.00000000000E+00  0.56017876614E+03  0.56017876614E+03  0.00000000000E+00 0.  1.
          1   -1    0    0  501    0  0.00000000000E+00 -0.00000000000E+00 -0.18221589500E+04  0.18221589500E+04  0.00000000000E+00 0. -1.
         23    2    1    2    0    0  0.12599035320E+03 -0.75794949565E+03 -0.22643768686E+03  0.80795895810E+03  0.10565341874E+03 0.  0.
        254    2    1    2    0    0 -0.12599035320E+03  0.75794949565E+03 -0.10355424970E+04  0.15743787580E+04  0.90330460178E+03 0.  0.
        -24    2    4    4    0    0 -0.99111228790E+02  0.96010692777E+03 -0.84985216982E+03  0.12886408647E+04  0.81964742814E+02 0.  0.
         24    2    4    4    0    0 -0.26879124410E+02 -0.20215743213E+03 -0.18569032719E+03  0.28573789339E+03  0.74666802626E+02 0.  0.
         11    1    3    3    0    0  0.53358721921E+01 -0.14097409809E+03 -0.81065550820E+02  0.16270768696E+03  0.00000000000E+00 0. -1.
        -11    1    3    3    0    0  0.12065448101E+03 -0.61697539756E+03 -0.14537213604E+03  0.64525127114E+03  0.00000000000E+00 0.  1.
          2    1    6    6  502    0 -0.40495015930E+02 -0.69261111889E+02 -0.94626265883E+02  0.12406078401E+03  0.00000000000E+00 0. -1.
          3    1    5    5  503    0 -0.68238780123E+02  0.30570672178E+03 -0.25939002376E+03  0.40668945804E+03  0.00000000000E+00 0. -1.
         -4    1    5    5    0  503 -0.30872448667E+02  0.65440020599E+03 -0.59046214606E+03  0.88195140661E+03  0.00000000000E+00 0.  1.
         -1    1    6    6    0  502  0.13615891520E+02 -0.13289632024E+03 -0.91064061304E+02  0.16167710937E+03  0.00000000000E+00 0.  1.
<mgrwt>
<rscale>  0 0.20206284E+04</rscale>
<asrwt>0</asrwt>
<pdfrwt beam="1">  1        1 0.28033214E+00 0.20206284E+04</pdfrwt>
<pdfrwt beam="2">  1       -1 0.86181350E-01 0.20206284E+04</pdfrwt>
<totfact> 0.48406977E+00</totfact>
</mgrwt>
</event>
<event>
12    1  0.1536832E-007  0.1981559E+04  0.7818608E-02  0.8615291E-01
          2   -1    0    0  501    0  0.00000000000E+00  0.00000000000E+00  0.16532348950E+04  0.16532348950E+04  0.00000000000E+00 0. -1.
         -2   -1    0    0    0  501 -0.00000000000E+00 -0.00000000000E+00 -0.59377176867E+03  0.59377176867E+03  0.00000000000E+00 0.  1.
         23    2    1    2    0    0  0.41550255460E+00 -0.58994268296E+03  0.10050464739E+04  0.11688746251E+04  0.90094020443E+02 0.  0.
        254    2    1    2    0    0 -0.41550255460E+00  0.58994268296E+03  0.54416652419E+02  0.10781320386E+04  0.90076355323E+03 0.  0.
        -24    2    4    4    0    0 -0.41907266498E+02 -0.20219745305E+03  0.16072627004E+03  0.27383574913E+03  0.80703498186E+02 0.  0.
         24    2    4    4    0    0  0.41491763943E+02  0.79214013601E+03 -0.10630961762E+03  0.80429628949E+03  0.79895087114E+02 0.  0.
         11    1    3    3    0    0  0.27017948596E+02 -0.45881920276E+03  0.82732130568E+03  0.94641722998E+03  0.00000000000E+00 0. -1.
        -11    1    3    3    0    0 -0.26602446042E+02 -0.13112348020E+03  0.17772516825E+03  0.22245739508E+03  0.00000000000E+00 0.  1.
          2    1    6    6  502    0 -0.67589080598E+01  0.68977393985E+02  0.10739519541E+02  0.70134877195E+02  0.00000000000E+00 0. -1.
          3    1    5    5  503    0  0.69303740329E+01 -0.15144057236E+02  0.46257864207E+02  0.49164647409E+02  0.00000000000E+00 0. -1.
         -4    1    5    5    0  503 -0.48837640530E+02 -0.18705339581E+03  0.11446840583E+03  0.22467110172E+03  0.00000000000E+00 0.  1.
         -1    1    6    6    0  502  0.48250672003E+02  0.72316274202E+03 -0.11704913716E+03  0.73416141230E+03  0.00000000000E+00 0.  1.
<mgrwt>
<rscale>  0 0.19815592E+04</rscale>
<asrwt>0</asrwt>
<pdfrwt beam="1">  1        2 0.25434383E+00 0.19815592E+04</pdfrwt>
<pdfrwt beam="2">  1       -2 0.91349504E-01 0.19815592E+04</pdfrwt>
<totfact> 0.98931478E+00</totfact>
</mgrwt>
</event>
<event>
12    1  0.1536832E-007  0.2684662E+04  0.7818608E-02  0.8339999E-01
          1   -1    0    0  501    0  0.00000000000E+00  0.00000000000E+00  0.98848061926E+03  0.98848061926E+03  0.00000000000E+00 0. -1.
         -1   -1    0    0    0  501 -0.00000000000E+00 -0.00000000000E+00 -0.18228501444E+04  0.18228501444E+04  0.00000000000E+00 0.  1.
         23    2    1    2    0    0  0.68992925575E+03  0.15526146566E+03  0.63074213105E+03  0.95221407191E+03  0.93634941190E+02 0.  0.
        254    2    1    2    0    0 -0.68992925575E+03 -0.15526146566E+03 -0.14651116562E+04  0.18591166917E+04  0.89980787271E+03 0.  0.
        -24    2    4    4    0    0 -0.39018373531E+03 -0.39025761406E+02 -0.46455049991E+02  0.40223847701E+03  0.76624822106E+02 0.  0.
         24    2    4    4    0    0 -0.29974552044E+03 -0.11623570426E+03 -0.14186566062E+04  0.14568782147E+04  0.80928674219E+02 0.  0.
         11    1    3    3    0    0  0.76792074528E+02  0.32514841436E+02  0.42026384580E+02  0.93383374456E+02  0.00000000000E+00 0.  1.
        -11    1    3    3    0    0  0.61313718122E+03  0.12274662423E+03  0.58871574647E+03  0.85883069746E+03  0.00000000000E+00 0. -1.
          4    1    6    6  502    0 -0.11810978719E+02 -0.21379414593E+00 -0.13953824069E+02  0.18282618313E+02  0.00000000000E+00 0. -1.
          1    1    5    5  503    0 -0.10560075454E+03 -0.34121048745E+02 -0.38623568856E+02  0.11750551220E+03  0.00000000000E+00 0. -1.
         -2    1    5    5    0  503 -0.28458298077E+03 -0.49047126605E+01 -0.78314811349E+01  0.28473296481E+03  0.00000000000E+00 0.  1.
         -3    1    6    6    0  502 -0.28793454172E+03 -0.11602191011E+03 -0.14047027821E+04  0.14385955964E+04  0.00000000000E+00 0.  1.
<mgrwt>
<rscale>  0 0.26846616E+04</rscale>
<asrwt>0</asrwt>
<pdfrwt beam="1">  1        1 0.15207394E+00 0.26846616E+04</pdfrwt>
<pdfrwt beam="2">  1       -1 0.28043848E+00 0.26846616E+04</pdfrwt>
<totfact> 0.59722198E-01</totfact>
</mgrwt>
</event>
<event>
12    1  0.1536832E-007  0.2389506E+04  0.7818608E-02  0.8443443E-01
         -2   -1    0    0    0  501 -0.00000000000E+00  0.00000000000E+00  0.67929834009E+03  0.67929834009E+03  0.00000000000E+00 0.  1.
          2   -1    0    0  501    0  0.00000000000E+00 -0.00000000000E+00 -0.21013361259E+04  0.21013361259E+04  0.00000000000E+00 0. -1.
         23    2    1    2    0    0  0.76364110472E+03 -0.56897278113E+03 -0.16867568720E+03  0.97133623322E+03  0.90359438076E+02 0.  0.
        254    2    1    2    0    0 -0.76364110472E+03  0.56897278113E+03 -0.12533620986E+04  0.18092982328E+04  0.89205705109E+03 0.  0.
        -24    2    4    4    0    0 -0.87688065065E+03  0.53459424185E+03 -0.13007559934E+04  0.16592747805E+04  0.80721521426E+02 0.  0.
         24    2    4    4    0    0  0.11323954593E+03  0.34378539281E+02  0.47393894751E+02  0.15002345227E+03  0.79093465256E+02 0.  0.
         13    1    3    3    0    0  0.61039691269E+03 -0.49613431777E+03 -0.14813726273E+03  0.80042382580E+03  0.00000000000E+00 0. -1.
        -13    1    3    3    0    0  0.15324419202E+03 -0.72838463352E+02 -0.20538424466E+02  0.17091240742E+03  0.00000000000E+00 0.  1.
          4    1    6    6  502    0  0.10272480257E+03  0.37864850663E+02  0.87581158361E+01  0.10983094542E+03  0.00000000000E+00 0. -1.
          1    1    5    5  503    0 -0.47211537120E+03  0.24269207150E+03 -0.65123856697E+03  0.84018095456E+03  0.00000000000E+00 0. -1.
         -2    1    5    5    0  503 -0.40476527944E+03  0.29190217035E+03 -0.64951742642E+03  0.81909382596E+03  0.00000000000E+00 0.  1.
         -3    1    6    6    0  502  0.10514743367E+02 -0.34863113825E+01  0.38635778915E+02  0.40192506858E+02  0.00000000000E+00 0.  1.
<mgrwt>
<rscale>  0 0.23895055E+04</rscale>
<asrwt>0</asrwt>
<pdfrwt beam="1">  1        2 0.32328248E+00 0.23895055E+04</pdfrwt>
<pdfrwt beam="2">  1       -2 0.10450744E+00 0.23895055E+04</pdfrwt>
<totfact> 0.39243795E+00</totfact>
</mgrwt>
</event>
<event>
12    1  0.1536832E-007  0.2528102E+04  0.7818608E-02  0.8393042E-01
         -2   -1    0    0    0  501 -0.00000000000E+00  0.00000000000E+00  0.63307947466E+03  0.63307947466E+03  0.00000000000E+00 0.  1.
          2   -1    0    0  501    0  0.00000000000E+00 -0.00000000000E+00 -0.25238932370E+04  0.25238932370E+04  0.00000000000E+00 0. -1.
         23    2    1    2    0    0  0.72288466439E+03  0.15436109124E+03  0.19744956180E+03  0.77067708574E+03  0.92559475630E+02 0.  0.
        254    2    1    2    0    0 -0.72288466439E+03 -0.15436109124E+03 -0.20882633242E+04  0.23862956260E+04  0.88722799709E+03 0.  0.
        -24    2    4    4    0    0 -0.54062460163E+02  0.25956417726E+03 -0.20749559012E+03  0.34603428483E+03  0.79931186905E+02 0.  0.
         24    2    4    4    0    0 -0.66882220423E+03 -0.41392526850E+03 -0.18807677341E+04  0.20402613411E+04  0.81986595519E+02 0.  0.
         13    1    3    3    0    0  0.27963552792E+03  0.13913733565E+02  0.72873565940E+02  0.28930982885E+03  0.00000000000E+00 0. -1.
        -13    1    3    3    0    0  0.44324913647E+03  0.14044735768E+03  0.12457599586E+03  0.48136725689E+03  0.00000000000E+00 0.  1.
          4    1    6    6  502    0 -0.58088761192E+03 -0.38560412091E+03 -0.16223019317E+04  0.17657815588E+04  0.00000000000E+00 0. -1.
          3    1    5    5  503    0 -0.38120350582E+02  0.21350094965E+03 -0.20303915875E+03  0.29708705225E+03  0.00000000000E+00 0. -1.
         -4    1    5    5    0  503 -0.15942109581E+02  0.46063227614E+02 -0.44564313662E+01  0.48947232574E+02  0.00000000000E+00 0.  1.
         -3    1    6    6    0  502 -0.87934592305E+02 -0.28321147590E+02 -0.25846580237E+03  0.27447978235E+03  0.00000000000E+00 0.  1.
<mgrwt>
<rscale>  0 0.25281021E+04</rscale>
<asrwt>0</asrwt>
<pdfrwt beam="1">  1        2 0.38829127E+00 0.25281021E+04</pdfrwt>
<pdfrwt beam="2">  1       -2 0.97396841E-01 0.25281021E+04</pdfrwt>
<totfact> 0.26368773E+00</totfact>
</mgrwt>
</event>
<event>
12    1  0.1536832E-007  0.1617970E+04  0.7818608E-02  0.8809584E-01
          2   -1    0    0  501    0  0.00000000000E+00  0.00000000000E+00  0.46864767640E+04  0.46864767640E+04  0.00000000000E+00 0.  1.
         -2   -1    0    0    0  501 -0.00000000000E+00 -0.00000000000E+00 -0.13964785856E+03  0.13964785856E+03  0.00000000000E+00 0. -1.
         23    2    1    2    0    0 -0.37611487725E+03 -0.32969004553E+03  0.22990624298E+04  0.23546019565E+04  0.91128427479E+02 0.  0.
        254    2    1    2    0    0  0.37611487725E+03  0.32969004553E+03  0.22477664757E+04  0.24715226661E+04  0.89767044788E+03 0.  0.
        -24    2    4    4    0    0  0.42781931247E+03 -0.20443331902E+03  0.11682873611E+04  0.12632914029E+04  0.78660437331E+02 0.  0.
         24    2    4    4    0    0 -0.51704435214E+02  0.53412336455E+03  0.10794791146E+04  0.12082312633E+04  0.81157313499E+02 0.  0.
         13    1    3    3    0    0 -0.32396836596E+03 -0.30937375723E+03  0.19289125404E+04  0.19802452405E+04  0.00000000000E+00 0.  1.
        -13    1    3    3    0    0 -0.52146511287E+02 -0.20316288301E+02  0.37014988935E+03  0.37435671597E+03  0.00000000000E+00 0. -1.
          2    1    6    6  502    0 -0.42462113614E+02  0.45274785903E+03  0.84079064482E+03  0.95588313269E+03  0.00000000000E+00 0. -1.
          3    1    5    5  503    0  0.39347245961E+03 -0.18863049006E+03  0.11197519499E+04  0.12017680590E+04  0.00000000000E+00 0. -1.
         -4    1    5    5    0  503  0.34346852852E+02 -0.15802828962E+02  0.48535411221E+02  0.61523343915E+02  0.00000000000E+00 0.  1.
         -1    1    6    6    0  502 -0.92423216002E+01  0.81375505525E+02  0.23868846975E+03  0.25234813056E+03  0.00000000000E+00 0.  1.
<mgrwt>
<rscale>  0 0.16179696E+04</rscale>
<asrwt>0</asrwt>
<pdfrwt beam="1">  1        2 0.72099630E+00 0.16179696E+04</pdfrwt>
<pdfrwt beam="2">  1       -2 0.21484290E-01 0.16179696E+04</pdfrwt>
<totfact> 0.14813620E+00</totfact>
</mgrwt>
</event>
<event>
12    1  0.1536832E-007  0.1841544E+04  0.7818608E-02  0.8684514E-01
         -2   -1    0    0    0  501 -0.00000000000E+00  0.00000000000E+00  0.61822938390E+03  0.61822938390E+03  0.00000000000E+00 0.  1.
          2   -1    0    0  501    0  0.00000000000E+00 -0.00000000000E+00 -0.13713695715E+04  0.13713695715E+04  0.00000000000E+00 0. -1.
         23    2    1    2    0    0 -0.48440691193E+03  0.15189171324E+03 -0.81245288815E+03  0.96217981135E+03  0.89382017459E+02 0.  0.
        254    2    1    2    0    0  0.48440691193E+03 -0.15189171324E+03  0.59312700570E+02  0.10274191440E+04  0.89126368276E+03 0.  0.
        -24    2    4    4    0    0  0.41895888431E+03 -0.23394942661E+03  0.42037848732E+03  0.64325399585E+03  0.82454530631E+02 0.  0.
         24    2    4    4    0    0  0.65448027619E+02  0.82057713373E+02 -0.36106578675E+03  0.38416514819E+03  0.78723859661E+02 0.  0.
         13    1    3    3    0    0 -0.48035267732E+03  0.15154944776E+03 -0.77367808725E+03  0.92319213191E+03  0.00000000000E+00 0. -1.
        -13    1    3    3    0    0 -0.40542346017E+01  0.34226548222E+00 -0.38774800895E+02  0.38987679442E+02  0.00000000000E+00 0.  1.
          4    1    6    6  502    0  0.55372419954E+02  0.76232069517E+01 -0.14376017721E+03  0.15424398442E+03  0.00000000000E+00 0. -1.
          1    1    5    5  503    0  0.32439724174E+03 -0.20143820612E+03  0.36824226232E+03  0.53048401022E+03  0.00000000000E+00 0. -1.
         -2    1    5    5    0  503  0.94561642563E+02 -0.32511220494E+02  0.52136224994E+02  0.11276998563E+03  0.00000000000E+00 0.  1.
         -3    1    6    6    0  502  0.10075607665E+02  0.74434506421E+02 -0.21730560953E+03  0.22992116377E+03  0.00000000000E+00 0.  1.
<mgrwt>
<rscale>  0 0.18415439E+04</rscale>
<asrwt>0</asrwt>
<pdfrwt beam="1">  1        2 0.21097993E+00 0.18415439E+04</pdfrwt>
<pdfrwt beam="2">  1       -2 0.95112213E-01 0.18415439E+04</pdfrwt>
<totfact> 0.13145220E+01</totfact>
</mgrwt>
</event>
<event>
12    1  0.1536832E-007  0.1277246E+04  0.7818608E-02  0.9047806E-01
         -2   -1    0    0    0  501 -0.00000000000E+00  0.00000000000E+00  0.13118075610E+03  0.13118075610E+03  0.00000000000E+00 0.  1.
          2   -1    0    0  501    0  0.00000000000E+00 -0.00000000000E+00 -0.31089892670E+04  0.31089892670E+04  0.00000000000E+00 0. -1.
         23    2    1    2    0    0  0.37905642971E+01  0.22218160256E+03 -0.13175127605E+04  0.13391480825E+04  0.89992666456E+02 0.  0.
        254    2    1    2    0    0 -0.37905642971E+01 -0.22218160256E+03 -0.16602957504E+04  0.19010219405E+04  0.89884559675E+03 0.  0.
        -24    2    4    4    0    0  0.31333057778E+03  0.31774576044E+02 -0.19591685156E+03  0.37916879309E+03  0.78739356598E+02 0.  0.
         24    2    4    4    0    0 -0.31712114207E+03 -0.25395617860E+03 -0.14643788988E+04  0.15218531475E+04  0.81067155421E+02 0.  0.
         11    1    3    3    0    0  0.42679296503E+01  0.16804752197E+03 -0.11700145880E+04  0.11820289002E+04  0.00000000000E+00 0. -1.
        -11    1    3    3    0    0 -0.47736535323E+00  0.54134080582E+02 -0.14749817247E+03  0.15711918228E+03  0.00000000000E+00 0.  1.
          4    1    6    6  502    0 -0.83161947807E+02 -0.89945685569E+02 -0.32871738021E+03  0.35080087224E+03  0.00000000000E+00 0. -1.
          1    1    5    5  503    0  0.11624870034E+03  0.13981807947E+02 -0.11876675500E+03  0.16677767649E+03  0.00000000000E+00 0. -1.
         -2    1    5    5    0  503  0.19708187744E+03  0.17792768097E+02 -0.77150096567E+02  0.21239111660E+03  0.00000000000E+00 0.  1.
         -3    1    6    6    0  502 -0.23395919427E+03 -0.16401049303E+03 -0.11356615186E+04  0.11710522752E+04  0.00000000000E+00 0.  1.
<mgrwt>
<rscale>  0 0.12772464E+04</rscale>
<asrwt>0</asrwt>
<pdfrwt beam="1">  1        2 0.47830597E+00 0.12772464E+04</pdfrwt>
<pdfrwt beam="2">  1       -2 0.20181658E-01 0.12772464E+04</pdfrwt>
<totfact> 0.31099529E+01</totfact>
</mgrwt>
</event>
<event>
12    1  0.1536832E-007  0.2088830E+04  0.7818608E-02  0.8566180E-01
          2   -1    0    0  501    0  0.00000000000E+00  0.00000000000E+00  0.27461444515E+04  0.27461444515E+04  0.00000000000E+00 0. -1.
         -2   -1    0    0    0  501 -0.00000000000E+00 -0.00000000000E+00 -0.39721254511E+03  0.39721254511E+03  0.00000000000E+00 0.  1.
         23    2    1    2    0    0  0.58765435347E+03 -0.61080212506E+03  0.94530277899E+03  0.12731013850E+04  0.93663852642E+02 0.  0.
        254    2    1    2    0    0 -0.58765435347E+03  0.61080212506E+03  0.14036291274E+04  0.18702556116E+04  0.89959126856E+03 0.  0.
        -24    2    4    4    0    0 -0.81148912078E+03  0.44271250581E+03  0.92560073445E+03  0.13105594375E+04  0.79500714656E+02 0.  0.
         24    2    4    4    0    0  0.22383476731E+03  0.16808961926E+03  0.47802839295E+03  0.55969617416E+03  0.79953359808E+02 0.  0.
         11    1    3    3    0    0  0.17157297550E+02 -0.28840609595E+02  0.67109808858E+02  0.75032526720E+02  0.00000000000E+00 0. -1.
        -11    1    3    3    0    0  0.57049705592E+03 -0.58196151547E+03  0.87819297013E+03  0.11980688582E+04  0.00000000000E+00 0.  1.
          2    1    6    6  502    0  0.15084109975E+03  0.92046857002E+02  0.36269395727E+03  0.40345082463E+03  0.00000000000E+00 0. -1.
          1    1    5    5  503    0 -0.69327748811E+03  0.40163648699E+03  0.77443280531E+03  0.11143122153E+04  0.00000000000E+00 0. -1.
         -2    1    5    5    0  503 -0.11821163267E+03  0.41076018818E+02  0.15116792913E+03  0.19624722219E+03  0.00000000000E+00 0.  1.
         -1    1    6    6    0  502  0.72993667553E+02  0.76042762255E+02  0.11533443568E+03  0.15624534953E+03  0.00000000000E+00 0.  1.
<mgrwt>
<rscale>  0 0.20888303E+04</rscale>
<asrwt>0</asrwt>
<pdfrwt beam="1">  1        2 0.42248375E+00 0.20888303E+04</pdfrwt>
<pdfrwt beam="2">  1       -2 0.61109624E-01 0.20888303E+04</pdfrwt>
<totfact> 0.57315160E+00</totfact>
</mgrwt>
</event>
<event>
12    1  0.1536832E-007  0.2151643E+04  0.7818608E-02  0.8538829E-01
         -2   -1    0    0    0  501 -0.00000000000E+00  0.00000000000E+00  0.82137905341E+03  0.82137905341E+03  0.00000000000E+00 0.  1.
          2   -1    0    0  501    0  0.00000000000E+00 -0.00000000000E+00 -0.14090840917E+04  0.14090840917E+04  0.00000000000E+00 0. -1.
         23    2    1    2    0    0 -0.10481567217E+03 -0.29799846750E+03  0.61069435452E+03  0.69366606981E+03  0.91845576952E+02 0.  0.
        254    2    1    2    0    0  0.10481567217E+03  0.29799846750E+03 -0.11983993928E+04  0.15367970753E+04  0.90873248768E+03 0.  0.
        -24    2    4    4    0    0 -0.18340081785E+03 -0.22201382411E+03 -0.16192165747E+03  0.33913548592E+03  0.76604546645E+02 0.  0.
         24    2    4    4    0    0  0.28821649002E+03  0.52001229162E+03 -0.10364777353E+04  0.11976615894E+04  0.81398146383E+02 0.  0.
         11    1    3    3    0    0  0.54660973246E+01 -0.14728828168E+02  0.59103162468E+01  0.16785363782E+02  0.00000000000E+00 0. -1.
        -11    1    3    3    0    0 -0.11028176949E+03 -0.28326963934E+03  0.60478403827E+03  0.67688070603E+03  0.00000000000E+00 0.  1.
          2    1    6    6  502    0  0.27257114744E+03  0.49294589457E+03 -0.93589603074E+03  0.10923333126E+04  0.00000000000E+00 0. -1.
          1    1    5    5  503    0 -0.56977890083E+02 -0.11431737920E+03 -0.98747242121E+02  0.16144956170E+03  0.00000000000E+00 0. -1.
         -2    1    5    5    0  503 -0.12642292777E+03 -0.10769644492E+03 -0.63174415348E+02  0.17768592423E+03  0.00000000000E+00 0.  1.
         -1    1    6    6    0  502  0.15645342585E+02  0.27066397051E+02 -0.10058170459E+03  0.10532827679E+03  0.00000000000E+00 0.  1.
<mgrwt>
<rscale>  0 0.21516432E+04</rscale>
<asrwt>0</asrwt>
<pdfrwt beam="1">  1        2 0.21678217E+00 0.21516432E+04</pdfrwt>
<pdfrwt beam="2">  1       -2 0.12636601E+00 0.21516432E+04</pdfrwt>
<totfact> 0.61228063E+00</totfact>
</mgrwt>
</event>
<event>
12    1  0.1536832E-007  0.2792622E+04  0.7818608E-02  0.8305563E-01
         -2   -1    0    0    0  501 -0.00000000000E+00  0.00000000000E+00  0.13070687331E+04  0.13070687331E+04  0.00000000000E+00 0. -1.
          2   -1    0    0  501    0  0.00000000000E+00 -0.00000000000E+00 -0.14916467151E+04  0.14916467151E+04  0.00000000000E+00 0.  1.
         23    2    1    2    0    0  0.70993485123E+03 -0.86985096294E+03  0.47448722391E+03  0.12221435326E+04  0.88591748040E+02 0.  0.
        254    2    1    2    0    0 -0.70993485123E+03  0.86985096294E+03 -0.65906520592E+03  0.15765719157E+04  0.88913658619E+03 0.  0.
        -24    2    4    4    0    0 -0.44546619284E+03  0.96980517025E+03 -0.69979345629E+03  0.12786900370E+04  0.79844424465E+02 0.  0.
         24    2    4    4    0    0 -0.26446865839E+03 -0.99954207308E+02  0.40728250368E+02  0.29788187864E+03  0.84500345655E+02 0.  0.
         13    1    3    3    0    0  0.60969836731E+03 -0.73438542693E+03  0.43563270495E+03  0.10492044167E+04  0.00000000000E+00 0. -1.
        -13    1    3    3    0    0  0.10023648392E+03 -0.13546553601E+03  0.38854518959E+02  0.17293911587E+03  0.00000000000E+00 0.  1.
          4    1    6    6  502    0 -0.47909423277E+02 -0.10122333161E+02  0.40318098995E+02  0.63429674238E+02  0.00000000000E+00 0. -1.
          1    1    5    5  503    0 -0.12631624639E+03  0.32952968673E+03 -0.26728233665E+03  0.44270244637E+03  0.00000000000E+00 0. -1.
         -2    1    5    5    0  503 -0.31914994646E+03  0.64027548352E+03 -0.43251111964E+03  0.83598759066E+03  0.00000000000E+00 0.  1.
         -3    1    6    6    0  502 -0.21655923511E+03 -0.89831874147E+02  0.41015137273E+00  0.23445220440E+03  0.00000000000E+00 0.  1.
<mgrwt>
<rscale>  0 0.27926223E+04</rscale>
<asrwt>0</asrwt>
<pdfrwt beam="1">  1        2 0.22948411E+00 0.27926223E+04</pdfrwt>
<pdfrwt beam="2">  1       -2 0.20108750E+00 0.27926223E+04</pdfrwt>
<totfact> 0.14619514E+00</totfact>
</mgrwt>
</event>
<event>
12    1  0.1536832E-007  0.1977298E+04  0.7818608E-02  0.8617309E-01
          2   -1    0    0  501    0  0.00000000000E+00  0.00000000000E+00  0.27031248218E+04  0.27031248218E+04  0.00000000000E+00 0. -1.
         -2   -1    0    0    0  501 -0.00000000000E+00 -0.00000000000E+00 -0.36159141509E+03  0.36159141509E+03  0.00000000000E+00 0.  1.
         23    2    1    2    0    0  0.75748635172E+03  0.17175191659E+03  0.65505917630E+03  0.10208628075E+04  0.98863811871E+02 0.  0.
        254    2    1    2    0    0 -0.75748635172E+03 -0.17175191659E+03  0.16864742304E+04  0.20438534294E+04  0.85431681316E+03 0.  0.
        -24    2    4    4    0    0 -0.32987024546E+03  0.23266575956E+03  0.23110077353E+03  0.47193402683E+03  0.79789871811E+02 0.  0.
         24    2    4    4    0    0 -0.42761610626E+03 -0.40441767615E+03  0.14553734569E+04  0.15719194026E+04  0.80059466376E+02 0.  0.
         13    1    3    3    0    0  0.14574203963E+03  0.72146374462E+02  0.15207005870E+03  0.22264578194E+03  0.00000000000E+00 0. -1.
        -13    1    3    3    0    0  0.61174431209E+03  0.99605542128E+02  0.50298911760E+03  0.79821702551E+03  0.00000000000E+00 0.  1.
          4    1    6    6  502    0 -0.93855554440E+02 -0.49833417703E+02  0.23130435916E+03  0.25454654032E+03  0.00000000000E+00 0. -1.
          3    1    5    5  503    0 -0.98486118130E+02  0.10372139462E+03  0.52041455676E+02  0.15220366709E+03  0.00000000000E+00 0. -1.
         -4    1    5    5    0  503 -0.23138412733E+03  0.12894436493E+03  0.17905931786E+03  0.31973035974E+03  0.00000000000E+00 0.  1.
         -3    1    6    6    0  502 -0.33376055182E+03 -0.35458425844E+03  0.12240690977E+04  0.13173728623E+04  0.00000000000E+00 0.  1.
<mgrwt>
<rscale>  0 0.19772979E+04</rscale>
<asrwt>0</asrwt>
<pdfrwt beam="1">  1        2 0.41586534E+00 0.19772979E+04</pdfrwt>
<pdfrwt beam="2">  1       -2 0.55629450E-01 0.19772979E+04</pdfrwt>
<totfact> 0.74813810E+00</totfact>
</mgrwt>
</event>
<event>
12    1  0.1536832E-007  0.1421258E+04  0.7818608E-02  0.8938573E-01
          2   -1    0    0  501    0  0.00000000000E+00  0.00000000000E+00  0.14283361956E+04  0.14283361956E+04  0.00000000000E+00 0.  1.
         -2   -1    0    0    0  501 -0.00000000000E+00 -0.00000000000E+00 -0.35355366111E+03  0.35355366111E+03  0.00000000000E+00 0. -1.
         23    2    1    2    0    0  0.22128581670E+01 -0.34204509729E+03  0.61494617898E+03  0.70977160754E+03  0.92828802151E+02 0.  0.
        254    2    1    2    0    0 -0.22128581670E+01  0.34204509729E+03  0.45983635549E+03  0.10721182491E+04  0.90608405846E+03 0.  0.
        -24    2    4    4    0    0 -0.23014775476E+03 -0.20680443047E+03  0.61935338855E+01  0.32007003513E+03  0.81672553791E+02 0.  0.
         24    2    4    4    0    0  0.22793489659E+03  0.54884952776E+03  0.45364282160E+03  0.75204821402E+03  0.81207052724E+02 0.  0.
         13    1    3    3    0    0 -0.11126342839E+02 -0.22367445188E+03  0.31038428557E+03  0.38274333522E+03  0.00000000000E+00 0.  1.
        -13    1    3    3    0    0  0.13339201006E+02 -0.11837064541E+03  0.30456189341E+03  0.32702827232E+03  0.00000000000E+00 0. -1.
          2    1    6    6  502    0  0.62488827313E+02  0.24621580030E+03  0.21278599737E+03  0.33136830648E+03  0.00000000000E+00 0. -1.
          1    1    5    5  503    0 -0.67522546405E+02 -0.88515266516E+02 -0.30998401001E+02  0.11556447354E+03  0.00000000000E+00 0. -1.
         -2    1    5    5    0  503 -0.16262520835E+03 -0.11828916395E+03  0.37191934886E+02  0.20450556159E+03  0.00000000000E+00 0.  1.
         -1    1    6    6    0  502  0.16544606928E+03  0.30263372745E+03  0.24085682423E+03  0.42067990754E+03  0.00000000000E+00 0.  1.
<mgrwt>
<rscale>  0 0.14212579E+04</rscale>
<asrwt>0</asrwt>
<pdfrwt beam="1">  1        2 0.21974403E+00 0.14212579E+04</pdfrwt>
<pdfrwt beam="2">  1       -2 0.54392872E-01 0.14212579E+04</pdfrwt>
<totfact> 0.43095579E+01</totfact>
</mgrwt>
</event>
<event>
12    1  0.1536832E-007  0.3826773E+04  0.7818608E-02  0.8040434E-01
          2   -1    0    0  501    0  0.00000000000E+00  0.00000000000E+00  0.26881576517E+04  0.26881576517E+04  0.00000000000E+00 0. -1.
         -2   -1    0    0    0  501 -0.00000000000E+00 -0.00000000000E+00 -0.13619169830E+04  0.13619169830E+04  0.00000000000E+00 0.  1.
         23    2    1    2    0    0  0.47517967665E+03 -0.10191993902E+04  0.21208079010E+04  0.24033002008E+04  0.11602835858E+03 0.  0.
        254    2    1    2    0    0 -0.47517967665E+03  0.10191993902E+04 -0.79456723235E+03  0.16467744340E+04  0.90330826827E+03 0.  0.
        -24    2    4    4    0    0 -0.12144449645E+03  0.99895048792E+03 -0.79127455957E+03  0.12826112446E+04  0.79531963024E+02 0.  0.
         24    2    4    4    0    0 -0.35373518020E+03  0.20248902276E+02 -0.32926727865E+01  0.36416318935E+03  0.84055880370E+02 0.  0.
         11    1    3    3    0    0  0.50475750244E+02 -0.16791011479E+03  0.40668708460E+03  0.44287243399E+03  0.00000000000E+00 0.  1.
        -11    1    3    3    0    0  0.42470392641E+03 -0.85128927541E+03  0.17141208164E+04  0.19604277668E+04  0.00000000000E+00 0. -1.
          2    1    6    6  502    0 -0.34648488762E+03  0.26132213765E+02 -0.16648116880E+02  0.34786754626E+03  0.00000000000E+00 0. -1.
          1    1    5    5  503    0 -0.88008607359E+02  0.56665620285E+03 -0.40647969417E+03  0.70290149308E+03  0.00000000000E+00 0. -1.
         -2    1    5    5    0  503 -0.33435889091E+02  0.43229428507E+03 -0.38479486540E+03  0.57970975153E+03  0.00000000000E+00 0.  1.
         -1    1    6    6    0  502 -0.72502925785E+01 -0.58833114891E+01  0.13355444093E+02  0.16295643083E+02  0.00000000000E+00 0.  1.
<mgrwt>
<rscale>  0 0.38267728E+04</rscale>
<asrwt>0</asrwt>
<pdfrwt beam="1">  1        2 0.41356272E+00 0.38267728E+04</pdfrwt>
<pdfrwt beam="2">  1       -2 0.20952569E+00 0.38267728E+04</pdfrwt>
<totfact> 0.24896372E-01</totfact>
</mgrwt>
</event>
<event>
12    1  0.1536832E-007  0.2155187E+04  0.7818608E-02  0.8537315E-01
          1   -1    0    0  501    0  0.00000000000E+00  0.00000000000E+00  0.21396483345E+04  0.21396483345E+04  0.00000000000E+00 0. -1.
         -1   -1    0    0    0  501 -0.00000000000E+00 -0.00000000000E+00 -0.54270968373E+03  0.54270968373E+03  0.00000000000E+00 0.  1.
         23    2    1    2    0    0  0.72801437609E+03 -0.26163474156E+03  0.11331220662E+03  0.78706900146E+03  0.90444939610E+02 0.  0.
        254    2    1    2    0    0 -0.72801437609E+03  0.26163474156E+03  0.14836264442E+04  0.18952890168E+04  0.89023331856E+03 0.  0.
        -24    2    4    4    0    0 -0.85772573510E+03  0.10704505449E+03  0.80993047007E+03  0.11872438529E+04  0.80053228914E+02 0.  0.
         24    2    4    4    0    0  0.12971135900E+03  0.15458968708E+03  0.67369597409E+03  0.70804516391E+03  0.82089467221E+02 0.  0.
         11    1    3    3    0    0  0.30891271764E+03 -0.12854023043E+03  0.69512125610E+01  0.33466098864E+03  0.00000000000E+00 0. -1.
        -11    1    3    3    0    0  0.41910165845E+03 -0.13309451114E+03  0.10636099405E+03  0.45240801283E+03  0.00000000000E+00 0.  1.
          2    1    6    6  502    0  0.55864804301E+02  0.10496082680E+03  0.27607557642E+03  0.30059170883E+03  0.00000000000E+00 0. -1.
          3    1    5    5  503    0 -0.16483647053E+03  0.50534739016E+02  0.14546239937E+03  0.22557511276E+03  0.00000000000E+00 0. -1.
         -4    1    5    5    0  503 -0.69288926456E+03  0.56510315471E+02  0.66446807071E+03  0.96166874010E+03  0.00000000000E+00 0.  1.
         -1    1    6    6    0  502  0.73846554701E+02  0.49628860273E+02  0.39762039767E+03  0.40745345508E+03  0.00000000000E+00 0.  1.
<mgrwt>
<rscale>  0 0.21551871E+04</rscale>
<asrwt>0</asrwt>
<pdfrwt beam="1">  1        1 0.32917666E+00 0.21551871E+04</pdfrwt>
<pdfrwt beam="2">  1       -1 0.83493799E-01 0.21551871E+04</pdfrwt>
<totfact> 0.31192292E+00</totfact>
</mgrwt>
</event>
<event>
12    1  0.1536832E-007  0.1325619E+04  0.7818608E-02  0.9009493E-01
         -2   -1    0    0    0  501 -0.00000000000E+00  0.00000000000E+00  0.17626352675E+03  0.17626352675E+03  0.00000000000E+00 0. -1.
          2   -1    0    0  501    0  0.00000000000E+00 -0.00000000000E+00 -0.24923824701E+04  0.24923824701E+04  0.00000000000E+00 0.  1.
         23    2    1    2    0    0 -0.16739616795E+03  0.15848332047E+03 -0.11553075519E+03  0.27393993546E+03  0.92505637308E+02 0.  0.
        254    2    1    2    0    0  0.16739616795E+03 -0.15848332047E+03 -0.22005881882E+04  0.23947060614E+04  0.91590955158E+03 0.  0.
        -24    2    4    4    0    0 -0.22069435747E+03 -0.33606006158E+03 -0.16194864132E+04  0.16702032540E+04  0.72113125733E+02 0.  0.
         24    2    4    4    0    0  0.38809052542E+03  0.17757674111E+03 -0.58110177504E+03  0.72450280741E+03  0.71255105685E+02 0.  0.
         11    1    3    3    0    0 -0.17509096044E+03  0.14912054125E+03 -0.92453077739E+02  0.24787366103E+03  0.00000000000E+00 0. -1.
        -11    1    3    3    0    0  0.76947924872E+01  0.93627792247E+01 -0.23077677450E+02  0.26066274431E+02  0.00000000000E+00 0.  1.
          2    1    6    6  502    0  0.30698470174E+02  0.37691384857E+02 -0.74032835373E+02  0.88565779378E+02  0.00000000000E+00 0. -1.
          1    1    5    5  503    0 -0.30531466973E+02 -0.19070907540E+02 -0.20927755295E+03  0.21235103993E+03  0.00000000000E+00 0. -1.
         -2    1    5    5    0  503 -0.19016289050E+03 -0.31698915404E+03 -0.14102088602E+04  0.14578522141E+04  0.00000000000E+00 0.  1.
         -1    1    6    6    0  502  0.35739205525E+03  0.13988535625E+03 -0.50706893967E+03  0.63593702804E+03  0.00000000000E+00 0.  1.
<mgrwt>
<rscale>  0 0.13256185E+04</rscale>
<asrwt>0</asrwt>
<pdfrwt beam="1">  1        2 0.38344346E+00 0.13256185E+04</pdfrwt>
<pdfrwt beam="2">  1       -2 0.27117465E-01 0.13256185E+04</pdfrwt>
<totfact> 0.42737539E+01</totfact>
</mgrwt>
</event>
<event>
12    1  0.1536832E-007  0.1752184E+04  0.7818608E-02  0.8732149E-01
          1   -1    0    0  501    0  0.00000000000E+00  0.00000000000E+00  0.40263718437E+04  0.40263718437E+04  0.00000000000E+00 0. -1.
         -1   -1    0    0    0  501 -0.00000000000E+00 -0.00000000000E+00 -0.19062747848E+03  0.19062747848E+03  0.00000000000E+00 0.  1.
         23    2    1    2    0    0 -0.49187948105E+03  0.28411523408E+03  0.72474373365E+03  0.92545938158E+03  0.92491607097E+02 0.  0.
        254    2    1    2    0    0  0.49187948105E+03 -0.28411523408E+03  0.31110006316E+04  0.32915399406E+04  0.91282164789E+03 0.  0.
        -24    2    4    4    0    0  0.47338543837E+03 -0.27250409466E+03  0.76056997501E+03  0.93968510290E+03  0.78671156457E+02 0.  0.
         24    2    4    4    0    0  0.18494042679E+02 -0.11611139412E+02  0.23504306566E+04  0.23518548377E+04  0.78867345321E+02 0.  0.
         13    1    3    3    0    0 -0.26451322946E+02  0.44062025058E+02  0.54897017967E+02  0.75198518067E+02  0.00000000000E+00 0. -1.
        -13    1    3    3    0    0 -0.46542815810E+03  0.24005320902E+03  0.66984671568E+03  0.85026086352E+03  0.00000000000E+00 0.  1.
          4    1    6    6  502    0 -0.31034729037E+02 -0.25030785223E+01  0.79622967116E+03  0.79683819502E+03  0.00000000000E+00 0. -1.
          1    1    5    5  503    0  0.13447327975E+03 -0.39219231148E+02  0.17911564428E+03  0.22738431143E+03  0.00000000000E+00 0. -1.
         -2    1    5    5    0  503  0.33891215862E+03 -0.23328486352E+03  0.58145433073E+03  0.71230079147E+03  0.00000000000E+00 0.  1.
         -3    1    6    6    0  502  0.49528771717E+02 -0.91080608894E+01  0.15542009854E+04  0.15550166427E+04  0.00000000000E+00 0.  1.
<mgrwt>
<rscale>  0 0.17521839E+04</rscale>
<asrwt>0</asrwt>
<pdfrwt beam="1">  1        1 0.61944176E+00 0.17521839E+04</pdfrwt>
<pdfrwt beam="2">  1       -1 0.29327307E-01 0.17521839E+04</pdfrwt>
<totfact> 0.92682480E-01</totfact>
</mgrwt>
</event>
<event>
12    1  0.1536832E-007  0.1375649E+04  0.7818608E-02  0.8971636E-01
         -1   -1    0    0    0  501 -0.00000000000E+00  0.00000000000E+00  0.33835661953E+03  0.33835661953E+03  0.00000000000E+00 0.  1.
          1   -1    0    0  501    0  0.00000000000E+00 -0.00000000000E+00 -0.13982369905E+04  0.13982369905E+04  0.00000000000E+00 0. -1.
         23    2    1    2    0    0 -0.10472140133E+03 -0.12011924551E+03  0.13667187828E+03  0.22886569394E+03  0.91132313202E+02 0.  0.
        254    2    1    2    0    0  0.10472140133E+03  0.12011924551E+03 -0.11965522493E+04  0.15077279161E+04  0.90338860894E+03 0.  0.
        -24    2    4    4    0    0 -0.35515662622E+02 -0.26941653729E+03 -0.10054125562E+04  0.10447574300E+04  0.82565408630E+02 0.  0.
         24    2    4    4    0    0  0.14023706395E+03  0.38953578280E+03 -0.19113969311E+03  0.46297048607E+03  0.80017051298E+02 0.  0.
         13    1    3    3    0    0 -0.27514380881E+02 -0.67973540422E+01 -0.80860632364E+01  0.29472522727E+02  0.00000000000E+00 0. -1.
        -13    1    3    3    0    0 -0.77207020449E+02 -0.11332189147E+03  0.14475794151E+03  0.19939317121E+03  0.00000000000E+00 0.  1.
          2    1    6    6  502    0  0.69927082691E+02  0.12124049330E+03 -0.96127921920E+02  0.16979290763E+03  0.00000000000E+00 0. -1.
          1    1    5    5  503    0  0.32872004706E+00  0.63433593201E+00  0.14907652743E+01  0.16531243290E+01  0.00000000000E+00 0. -1.
         -4    1    5    5    0  503 -0.35844382669E+02 -0.27005087322E+03 -0.10069033214E+04  0.10431043057E+04  0.00000000000E+00 0.  1.
         -1    1    6    6    0  502  0.70309981261E+02  0.26829528950E+03 -0.95011771194E+02  0.29317757843E+03  0.00000000000E+00 0.  1.
<mgrwt>
<rscale>  0 0.13756493E+04</rscale>
<asrwt>0</asrwt>
<pdfrwt beam="1">  1        1 0.21511339E+00 0.13756493E+04</pdfrwt>
<pdfrwt beam="2">  1       -1 0.52054864E-01 0.13756493E+04</pdfrwt>
<totfact> 0.27966668E+01</totfact>
</mgrwt>
</event>
<event>
12    1  0.1536832E-007  0.2215118E+04  0.7818608E-02  0.8512162E-01
          1   -1    0    0  501    0  0.00000000000E+00  0.00000000000E+00  0.71101915271E+03  0.71101915271E+03  0.00000000000E+00 0. -1.
         -1   -1    0    0    0  501 -0.00000000000E+00 -0.00000000000E+00 -0.17252523498E+04  0.17252523498E+04  0.00000000000E+00 0.  1.
         23    2    1    2    0    0 -0.38039451590E+03 -0.83487826097E+03 -0.40459880893E+03  0.10068002171E+04  0.90690586622E+02 0.  0.
        254    2    1    2    0    0  0.38039451590E+03  0.83487826097E+03 -0.60963438819E+03  0.14294712855E+04  0.91105014702E+03 0.  0.
        -24    2    4    4    0    0  0.62272539625E+03  0.65955660661E+03 -0.64932145135E+03  0.11183826384E+04  0.79746737660E+02 0.  0.
         24    2    4    4    0    0 -0.24233088035E+03  0.17532165437E+03  0.39687063159E+02  0.31108864711E+03  0.75757146982E+02 0.  0.
         11    1    3    3    0    0 -0.62055592635E+02 -0.18672543311E+03 -0.53787584384E+02  0.20398624508E+03  0.00000000000E+00 0. -1.
        -11    1    3    3    0    0 -0.31833892326E+03 -0.64815282786E+03 -0.35081122454E+03  0.80281397197E+03  0.00000000000E+00 0.  1.
          2    1    6    6  502    0 -0.20794539097E+03  0.14860592485E+03  0.60764471563E+02  0.26271149105E+03  0.00000000000E+00 0. -1.
          1    1    5    5  503    0  0.56188883476E+03  0.59256537504E+03 -0.55309116278E+03  0.98628729114E+03  0.00000000000E+00 0. -1.
         -2    1    5    5    0  503  0.60836561492E+02  0.66991231571E+02 -0.96230288566E+02  0.13209534723E+03  0.00000000000E+00 0.  1.
         -1    1    6    6    0  502 -0.34385489381E+02  0.26715729516E+02 -0.21077408404E+02  0.48377156061E+02  0.00000000000E+00 0.  1.
<mgrwt>
<rscale>  0 0.22151185E+04</rscale>
<asrwt>0</asrwt>
<pdfrwt beam="1">  1        1 0.10938756E+00 0.22151185E+04</pdfrwt>
<pdfrwt beam="2">  1       -1 0.26542344E+00 0.22151185E+04</pdfrwt>
<totfact> 0.13401439E+00</totfact>
</mgrwt>
</event>
<event>
12    1  0.1536832E-007  0.1514226E+04  0.7818608E-02  0.8875048E-01
          1   -1    0    0  501    0  0.00000000000E+00  0.00000000000E+00  0.34580124989E+03  0.34580124989E+03  0.00000000000E+00 0. -1.
         -1   -1    0    0    0  501 -0.00000000000E+00 -0.00000000000E+00 -0.16576573150E+04  0.16576573150E+04  0.00000000000E+00 0.  1.
         23    2    1    2    0    0 -0.12741163383E+03  0.31501280768E+02  0.20152797403E+03  0.25620409224E+03  0.88323028920E+02 0.  0.
        254    2    1    2    0    0  0.12741163383E+03 -0.31501280768E+02 -0.15133840391E+04  0.17472544726E+04  0.86333127309E+03 0.  0.
        -24    2    4    4    0    0 -0.20953241297E+03 -0.33241351134E+03 -0.86499791778E+03  0.95342564872E+03  0.79978092450E+02 0.  0.
         24    2    4    4    0    0  0.33694404680E+03  0.30091223057E+03 -0.64838612134E+03  0.79382882390E+03  0.75366956433E+02 0.  0.
         11    1    3    3    0    0 -0.80107779483E+02  0.45740365884E+02  0.18011356247E+03  0.20236188571E+03  0.00000000000E+00 0. -1.
        -11    1    3    3    0    0 -0.47303854347E+02 -0.14239085116E+02  0.21414411568E+02  0.53842206529E+02  0.00000000000E+00 0.  1.
          4    1    6    6  502    0  0.18045445275E+03  0.12305310829E+03 -0.35399202996E+03  0.41595220189E+03  0.00000000000E+00 0. -1.
          3    1    5    5  503    0 -0.16749128565E+03 -0.27090891830E+03 -0.61526933283E+03  0.69282127905E+03  0.00000000000E+00 0. -1.
         -4    1    5    5    0  503 -0.42041127323E+02 -0.61504593036E+02 -0.24972858495E+03  0.26060436967E+03  0.00000000000E+00 0.  1.
         -3    1    6    6    0  502  0.15648959405E+03  0.17785912228E+03 -0.29439409137E+03  0.37787662201E+03  0.00000000000E+00 0.  1.
<mgrwt>
<rscale>  0 0.15142258E+04</rscale>
<asrwt>0</asrwt>
<pdfrwt beam="1">  1        1 0.53200192E-01 0.15142258E+04</pdfrwt>
<pdfrwt beam="2">  1       -1 0.25502420E+00 0.15142258E+04</pdfrwt>
<totfact> 0.45487923E+00</totfact>
</mgrwt>
</event>
<event>
12    1  0.1536832E-007  0.1441816E+04  0.7818608E-02  0.8924094E-01
          1   -1    0    0  501    0  0.00000000000E+00  0.00000000000E+00  0.15483424635E+04  0.15483424635E+04  0.00000000000E+00 0. -1.
         -1   -1    0    0    0  501 -0.00000000000E+00 -0.00000000000E+00 -0.33565453322E+03  0.33565453322E+03  0.00000000000E+00 0.  1.
         23    2    1    2    0    0 -0.40131177988E+03 -0.19783823542E+02  0.17039302754E+03  0.44551155695E+03  0.89466302037E+02 0.  0.
        254    2    1    2    0    0  0.40131177988E+03  0.19783823542E+02  0.10422949028E+04  0.14384854398E+04  0.90632177058E+03 0.  0.
        -24    2    4    4    0    0  0.22246698547E+03 -0.29387720087E+03  0.99777719060E+03  0.10667505443E+04  0.80882834422E+02 0.  0.
         24    2    4    4    0    0  0.17884479441E+03  0.31366102441E+03  0.44517712184E+02  0.37173489550E+03  0.76395727039E+02 0.  0.
         11    1    3    3    0    0 -0.18363342413E+03  0.59838238212E+01  0.12342298480E+03  0.22133746584E+03  0.00000000000E+00 0. -1.
        -11    1    3    3    0    0 -0.21767835575E+03 -0.25767647363E+02  0.46970042731E+02  0.22417409112E+03  0.00000000000E+00 0.  1.
          4    1    6    6  502    0  0.12581671346E+03  0.25739774469E+03  0.60415542770E+02  0.29280280423E+03  0.00000000000E+00 0. -1.
          3    1    5    5  503    0  0.22326123580E+03 -0.25713079140E+03  0.89437057672E+03  0.95700603541E+03  0.00000000000E+00 0. -1.
         -4    1    5    5    0  503 -0.79425033123E+00 -0.36746409464E+02  0.10340661387E+03  0.10974450891E+03  0.00000000000E+00 0.  1.
         -3    1    6    6    0  502  0.53028080952E+02  0.56263279723E+02 -0.15897830587E+02  0.78932091268E+02  0.00000000000E+00 0.  1.
<mgrwt>
<rscale>  0 0.14418158E+04</rscale>
<asrwt>0</asrwt>
<pdfrwt beam="1">  1        1 0.23820653E+00 0.14418158E+04</pdfrwt>
<pdfrwt beam="2">  1       -1 0.51639160E-01 0.14418158E+04</pdfrwt>
<totfact> 0.22211641E+01</totfact>
</mgrwt>
</event>
<event>
12    1  0.1536832E-007  0.1825477E+04  0.7818608E-02  0.8692867E-01
          2   -1    0    0  501    0  0.00000000000E+00  0.00000000000E+00  0.28943650970E+04  0.28943650970E+04  0.00000000000E+00 0. -1.
         -2   -1    0    0    0  501 -0.00000000000E+00 -0.00000000000E+00 -0.28783218480E+03  0.28783218480E+03  0.00000000000E+00 0.  1.
         23    2    1    2    0    0  0.37176234770E+02 -0.49074788295E+03  0.18017114706E+04  0.18700010917E+04  0.92327149505E+02 0.  0.
        254    2    1    2    0    0 -0.37176234770E+02  0.49074788295E+03  0.80482144155E+03  0.13121961901E+04  0.91208866422E+03 0.  0.
        -24    2    4    4    0    0  0.70293175046E+02  0.28819059352E+03 -0.14024123006E+03  0.33684712689E+03  0.76180283771E+02 0.  0.
         24    2    4    4    0    0 -0.10746940982E+03  0.20255728943E+03  0.94506267161E+03  0.97534906317E+03  0.74720895505E+02 0.  0.
         13    1    3    3    0    0  0.66100435161E+02 -0.35293426262E+03  0.12437620120E+04  0.12945562189E+04  0.00000000000E+00 0.  1.
        -13    1    3    3    0    0 -0.28924200391E+02 -0.13781362033E+03  0.55794945860E+03  0.57544487283E+03  0.00000000000E+00 0. -1.
          4    1    6    6  502    0 -0.23890396458E+02  0.60782759273E+02  0.15278025688E+03  0.16615384967E+03  0.00000000000E+00 0. -1.
          1    1    5    5  503    0  0.88955223008E+01  0.30691759846E+02  0.86837052782E+01  0.33113761140E+02  0.00000000000E+00 0. -1.
         -2    1    5    5    0  503  0.61397652745E+02  0.25749883368E+03 -0.14892493534E+03  0.30373336575E+03  0.00000000000E+00 0.  1.
         -1    1    6    6    0  502 -0.83579013358E+02  0.14177453015E+03  0.79228241472E+03  0.80919521350E+03  0.00000000000E+00 0.  1.
<mgrwt>
<rscale>  0 0.18254768E+04</rscale>
<asrwt>0</asrwt>
<pdfrwt beam="1">  1        2 0.44528692E+00 0.18254768E+04</pdfrwt>
<pdfrwt beam="2">  1       -2 0.44281877E-01 0.18254768E+04</pdfrwt>
<totfact> 0.92551330E+00</totfact>
</mgrwt>
</event>
<event>
12    1  0.1536832E-007  0.1189502E+04  0.7818608E-02  0.9122096E-01
          2   -1    0    0  501    0  0.00000000000E+00  0.00000000000E+00  0.25279328861E+04  0.25279328861E+04  0.00000000000E+00 0. -1.
         -2   -1    0    0    0  501 -0.00000000000E+00 -0.00000000000E+00 -0.13992800014E+03  0.13992800014E+03  0.00000000000E+00 0.  1.
         23    2    1    2    0    0  0.16305864408E+03 -0.18857811155E+03  0.52584325253E+03  0.58898222370E+03  0.90769532545E+02 0.  0.
        254    2    1    2    0    0 -0.16305864408E+03  0.18857811155E+03  0.18621616334E+04  0.20788786626E+04  0.88991051178E+03 0.  0.
        -24    2    4    4    0    0  0.18292522089E+03  0.49485686012E+02  0.16063294819E+04  0.16194929695E+04  0.80948157047E+02 0.  0.
         24    2    4    4    0    0 -0.34598386497E+03  0.13909242554E+03  0.25583215150E+03  0.45938569305E+03  0.80830610411E+02 0.  0.
         13    1    3    3    0    0  0.13246362453E+03 -0.96802813997E+02  0.27624795940E+03  0.32129477383E+03  0.00000000000E+00 0.  1.
        -13    1    3    3    0    0  0.30595019550E+02 -0.91775297556E+02  0.24959529314E+03  0.26768744987E+03  0.00000000000E+00 0. -1.
          4    1    6    6  502    0 -0.30420806441E+03  0.10683564625E+03  0.24634171484E+03  0.40575934029E+03  0.00000000000E+00 0. -1.
          3    1    5    5  503    0  0.19100858337E+03  0.47764448849E+02  0.15044821112E+04  0.15173108266E+04  0.00000000000E+00 0. -1.
         -4    1    5    5    0  503 -0.80833624811E+01  0.17212371626E+01  0.10184737072E+03  0.10218214291E+03  0.00000000000E+00 0.  1.
         -3    1    6    6    0  502 -0.41775800559E+02  0.32256779289E+02  0.94904366536E+01  0.53626352760E+02  0.00000000000E+00 0.  1.
<mgrwt>
<rscale>  0 0.11895017E+04</rscale>
<asrwt>0</asrwt>
<pdfrwt beam="1">  1        2 0.38891272E+00 0.11895017E+04</pdfrwt>
<pdfrwt beam="2">  1       -2 0.21527387E-01 0.11895017E+04</pdfrwt>
<totfact> 0.62578059E+01</totfact>
</mgrwt>
</event>
<event>
12    1  0.1536832E-007  0.2450467E+04  0.7818608E-02  0.8420848E-01
          2   -1    0    0  501    0  0.00000000000E+00  0.00000000000E+00  0.23801389195E+04  0.23801389195E+04  0.00000000000E+00 0. -1.
         -2   -1    0    0    0  501 -0.00000000000E+00 -0.00000000000E+00 -0.63071810937E+03  0.63071810937E+03  0.00000000000E+00 0.  1.
         23    2    1    2    0    0  0.51774900280E+03 -0.85944724431E+03  0.34151911314E+03  0.10638132873E+04  0.91377294584E+02 0.  0.
        254    2    1    2    0    0 -0.51774900280E+03  0.85944724431E+03  0.14079016970E+04  0.19470437415E+04  0.89558838062E+03 0.  0.
        -24    2    4    4    0    0  0.18114605344E+03  0.51511878455E+02  0.50775078780E+03  0.54725231425E+03  0.78783669940E+02 0.  0.
         24    2    4    4    0    0 -0.69889505624E+03  0.80793536586E+03  0.90015090917E+03  0.13997914273E+04  0.89053498490E+02 0.  0.
         13    1    3    3    0    0  0.28213792296E+03 -0.38360928808E+03  0.17522633223E+03  0.50740729299E+03  0.00000000000E+00 0.  1.
        -13    1    3    3    0    0  0.23561107984E+03 -0.47583795623E+03  0.16629278090E+03  0.55640599432E+03  0.00000000000E+00 0. -1.
          2    1    6    6  502    0 -0.28058909513E+03  0.37836252868E+03  0.36147557780E+03  0.59376176768E+03  0.00000000000E+00 0. -1.
          1    1    5    5  503    0  0.18574235905E+03  0.42817762974E+02  0.45055344035E+03  0.48921568595E+03  0.00000000000E+00 0. -1.
         -2    1    5    5    0  503 -0.45963056152E+01  0.86941154808E+01  0.57197347451E+02  0.58036628303E+02  0.00000000000E+00 0.  1.
         -1    1    6    6    0  502 -0.41830596111E+03  0.42957283718E+03  0.53867533136E+03  0.80602965960E+03  0.00000000000E+00 0.  1.
<mgrwt>
<rscale>  0 0.24504667E+04</rscale>
<asrwt>0</asrwt>
<pdfrwt beam="1">  1        2 0.36617521E+00 0.24504667E+04</pdfrwt>
<pdfrwt beam="2">  1       -2 0.97033556E-01 0.24504667E+04</pdfrwt>
<totfact> 0.32405792E+00</totfact>
</mgrwt>
</event>
<event>
12    1  0.1536832E-007  0.3095280E+04  0.7818608E-02  0.8217035E-01
         -2   -1    0    0    0  501 -0.00000000000E+00  0.00000000000E+00  0.67428830336E+03  0.67428830336E+03  0.00000000000E+00 0.  1.
          2   -1    0    0  501    0  0.00000000000E+00 -0.00000000000E+00 -0.35521736433E+04  0.35521736433E+04  0.00000000000E+00 0. -1.
         23    2    1    2    0    0 -0.88268219010E+03  0.22951668237E+03  0.15713146661E+03  0.93007587703E+03  0.92439618284E+02 0.  0.
        254    2    1    2    0    0  0.88268219010E+03 -0.22951668237E+03 -0.30350168066E+04  0.32963860697E+04  0.90720909817E+03 0.  0.
        -24    2    4    4    0    0  0.11435441836E+03 -0.43466126064E+03 -0.14671670615E+04  0.15366517929E+04  0.81928028730E+02 0.  0.
         24    2    4    4    0    0  0.76832777174E+03  0.20514457827E+03 -0.15678497451E+04  0.17597342767E+04  0.78102744401E+02 0.  0.
         13    1    3    3    0    0 -0.71856964321E+03  0.21669928837E+03  0.14955543090E+03  0.76528931825E+03  0.00000000000E+00 0.  1.
        -13    1    3    3    0    0 -0.16411254689E+03  0.12817393997E+02  0.75760357088E+01  0.16478655878E+03  0.00000000000E+00 0. -1.
          2    1    6    6  502    0  0.41448915981E+03  0.75850286094E+02 -0.87108502789E+03  0.96764851848E+03  0.00000000000E+00 0. -1.
          1    1    5    5  503    0  0.76919198792E+02 -0.30386114233E+03 -0.88724914232E+03  0.94098841518E+03  0.00000000000E+00 0. -1.
         -2    1    5    5    0  503  0.37435219569E+02 -0.13080011832E+03 -0.57991791919E+03  0.59566337776E+03  0.00000000000E+00 0.  1.
         -1    1    6    6    0  502  0.35383861192E+03  0.12929429218E+03 -0.69676471721E+03  0.79208575825E+03  0.00000000000E+00 0.  1.
<mgrwt>
<rscale>  0 0.30952797E+04</rscale>
<asrwt>0</asrwt>
<pdfrwt beam="1">  1        2 0.54648826E+00 0.30952797E+04</pdfrwt>
<pdfrwt beam="2">  1       -2 0.10373666E+00 0.30952797E+04</pdfrwt>
<totfact> 0.47956663E-01</totfact>
</mgrwt>
</event>
<event>
12    1  0.1536832E-007  0.1653064E+04  0.7818608E-02  0.8788596E-01
          1   -1    0    0  501    0  0.00000000000E+00  0.00000000000E+00  0.22258205257E+04  0.22258205257E+04  0.00000000000E+00 0. -1.
         -1   -1    0    0    0  501 -0.00000000000E+00 -0.00000000000E+00 -0.30692299238E+03  0.30692299238E+03  0.00000000000E+00 0.  1.
         23    2    1    2    0    0 -0.21383240419E+03  0.17392481752E+03 -0.10079220755E+03  0.30788046645E+03  0.93043932027E+02 0.  0.
        254    2    1    2    0    0  0.21383240419E+03 -0.17392481752E+03  0.20196897409E+04  0.22248630517E+04  0.89156873539E+03 0.  0.
        -24    2    4    4    0    0  0.97726775645E+02 -0.36480125637E+03  0.19327063316E+04  0.19709035529E+04  0.80477147119E+02 0.  0.
         24    2    4    4    0    0  0.11610562854E+03  0.19087643885E+03  0.86983409246E+02  0.25395949873E+03  0.83755487149E+02 0.  0.
         13    1    3    3    0    0 -0.37436332479E+02  0.26980652798E+01 -0.39567450779E+02  0.54537525676E+02  0.00000000000E+00 0. -1.
        -13    1    3    3    0    0 -0.17639607171E+03  0.17122675224E+03 -0.61224756773E+02  0.25334294077E+03  0.00000000000E+00 0.  1.
          4    1    6    6  502    0  0.61924071216E+02  0.16833588751E+03  0.57997714048E+02  0.18850808061E+03  0.00000000000E+00 0. -1.
          1    1    5    5  503    0  0.32958039234E+02 -0.23987048619E+03  0.10939479795E+04  0.11204223598E+04  0.00000000000E+00 0. -1.
         -2    1    5    5    0  503  0.64768736412E+02 -0.12493077018E+03  0.83875835214E+03  0.85048119311E+03  0.00000000000E+00 0.  1.
         -3    1    6    6    0  502  0.54181557325E+02  0.22540551339E+02  0.28985695198E+02  0.65451418128E+02  0.00000000000E+00 0.  1.
<mgrwt>
<rscale>  0 0.16530644E+04</rscale>
<asrwt>0</asrwt>
<pdfrwt beam="1">  1        1 0.34243392E+00 0.16530644E+04</pdfrwt>
<pdfrwt beam="2">  1       -1 0.47218923E-01 0.16530644E+04</pdfrwt>
<totfact> 0.89488079E+00</totfact>
</mgrwt>
</event>
<event>
12    1  0.1536832E-007  0.3909876E+04  0.7818608E-02  0.8022978E-01
          1   -1    0    0  501    0  0.00000000000E+00  0.00000000000E+00  0.28929388398E+04  0.28929388398E+04  0.00000000000E+00 0. -1.
         -1   -1    0    0    0  501 -0.00000000000E+00 -0.00000000000E+00 -0.13210727601E+04  0.13210727601E+04  0.00000000000E+00 0.  1.
         23    2    1    2    0    0  0.34323141868E+03 -0.17999539008E+04  0.53137510843E+03  0.19100792600E+04  0.91659271750E+02 0.  0.
        254    2    1    2    0    0 -0.34323141868E+03  0.17999539008E+04  0.10404909713E+04  0.23039323399E+04  0.93157979448E+03 0.  0.
        -24    2    4    4    0    0 -0.28082086913E+03  0.42748060178E+02  0.14803797308E+03  0.33040750561E+03  0.81031605598E+02 0.  0.
         24    2    4    4    0    0 -0.62410549553E+02  0.17572058406E+04  0.89245299827E+03  0.19735248342E+04  0.81611729076E+02 0.  0.
         11    1    3    3    0    0  0.70144825412E+01 -0.27396968998E+02 -0.30082342316E+01  0.28440224134E+02  0.00000000000E+00 0. -1.
        -11    1    3    3    0    0  0.33621693614E+03 -0.17725569318E+04  0.53438334266E+03  0.18816390359E+04  0.00000000000E+00 0.  1.
          2    1    6    6  502    0 -0.26045979878E+02  0.15052231944E+04  0.77280943765E+03  0.16922203417E+04  0.00000000000E+00 0. -1.
          3    1    5    5  503    0 -0.22694103341E+03  0.62189771287E+02  0.13631380186E+03  0.27193979641E+03  0.00000000000E+00 0. -1.
         -4    1    5    5    0  503 -0.53879835723E+02 -0.19441711109E+02  0.11724171219E+02  0.58467709201E+02  0.00000000000E+00 0.  1.
         -1    1    6    6    0  502 -0.36364569675E+02  0.25198264617E+03  0.11964356062E+03  0.28130449249E+03  0.00000000000E+00 0.  1.
<mgrwt>
<rscale>  0 0.39098761E+04</rscale>
<asrwt>0</asrwt>
<pdfrwt beam="1">  1        1 0.44506751E+00 0.39098761E+04</pdfrwt>
<pdfrwt beam="2">  1       -1 0.20324196E+00 0.39098761E+04</pdfrwt>
<totfact> 0.80539911E-02</totfact>
</mgrwt>
</event>
<event>
12    1  0.1536832E-007  0.2762595E+04  0.7818608E-02  0.8314976E-01
         -2   -1    0    0    0  501 -0.00000000000E+00  0.00000000000E+00  0.12288927659E+04  0.12288927659E+04  0.00000000000E+00 0.  1.
          2   -1    0    0  501    0  0.00000000000E+00 -0.00000000000E+00 -0.15526028048E+04  0.15526028048E+04  0.00000000000E+00 0. -1.
         23    2    1    2    0    0 -0.11575538231E+04 -0.83775280742E+02 -0.54243422350E+03  0.12843079898E+04  0.90900906585E+02 0.  0.
        254    2    1    2    0    0  0.11575538231E+04  0.83775280742E+02  0.21872418459E+03  0.14971875810E+04  0.92020716831E+03 0.  0.
        -24    2    4    4    0    0  0.67041652819E+03 -0.30383906301E+03  0.40322568486E+03  0.84301300414E+03  0.79394425122E+02 0.  0.
         24    2    4    4    0    0  0.48713729491E+03  0.38761434375E+03 -0.18450150027E+03  0.65417457682E+03  0.79724210778E+02 0.  0.
         13    1    3    3    0    0 -0.92678990525E+03 -0.37665194726E+02 -0.45628629627E+03  0.10337095238E+04  0.00000000000E+00 0. -1.
        -13    1    3    3    0    0 -0.23076391785E+03 -0.46110086017E+02 -0.86147927229E+02  0.25059846604E+03  0.00000000000E+00 0.  1.
          4    1    6    6  502    0  0.29142147005E+03  0.23467723560E+03 -0.69947567813E+02  0.38064752772E+03  0.00000000000E+00 0. -1.
          3    1    5    5  503    0  0.96626675927E+02 -0.55965478757E+02  0.32494513690E+02  0.11629592741E+03  0.00000000000E+00 0. -1.
         -4    1    5    5    0  503  0.57378985226E+03 -0.24787358425E+03  0.37073117117E+03  0.72671707672E+03  0.00000000000E+00 0.  1.
         -3    1    6    6    0  502  0.19571582486E+03  0.15293710815E+03 -0.11455393245E+03  0.27352704911E+03  0.00000000000E+00 0.  1.
<mgrwt>
<rscale>  0 0.27625947E+04</rscale>
<asrwt>0</asrwt>
<pdfrwt beam="1">  1        2 0.23886197E+00 0.27625947E+04</pdfrwt>
<pdfrwt beam="2">  1       -2 0.18906043E+00 0.27625947E+04</pdfrwt>
<totfact> 0.16277111E+00</totfact>
</mgrwt>
</event>
<event>
12    1  0.1536832E-007  0.1694249E+04  0.7818608E-02  0.8764651E-01
          1   -1    0    0  501    0  0.00000000000E+00  0.00000000000E+00  0.21586277662E+04  0.21586277662E+04  0.00000000000E+00 0. -1.
         -1   -1    0    0    0  501 -0.00000000000E+00 -0.00000000000E+00 -0.33244269273E+03  0.33244269273E+03  0.00000000000E+00 0.  1.
         23    2    1    2    0    0  0.29559398979E+03 -0.26297076218E+03  0.13312816318E+04  0.13917864213E+04  0.90715107744E+02 0.  0.
        254    2    1    2    0    0 -0.29559398979E+03  0.26297076218E+03  0.49490344175E+03  0.10992840377E+04  0.89831316943E+03 0.  0.
        -24    2    4    4    0    0  0.12138815881E+03 -0.83778234495E+02  0.52446320826E+03  0.55020122284E+03  0.76849535581E+02 0.  0.
         24    2    4    4    0    0 -0.41698214860E+03  0.34674899667E+03 -0.29559766509E+02  0.54908281488E+03  0.80679482286E+02 0.  0.
         13    1    3    3    0    0  0.15448809812E+03 -0.13196397722E+03  0.52780206035E+03  0.56555820095E+03  0.00000000000E+00 0. -1.
        -13    1    3    3    0    0  0.14110589166E+03 -0.13100678496E+03  0.80347957141E+03  0.82622822031E+03  0.00000000000E+00 0.  1.
          2    1    6    6  502    0 -0.13343317492E+03  0.10736158175E+03 -0.46968934765E+02  0.17758660490E+03  0.00000000000E+00 0. -1.
          1    1    5    5  503    0  0.39581804971E+02 -0.18204424480E+02  0.29143653080E+03  0.29467502752E+03  0.00000000000E+00 0. -1.
         -2    1    5    5    0  503  0.81806353841E+02 -0.65573810015E+02  0.23302667746E+03  0.25552619532E+03  0.00000000000E+00 0.  1.
         -1    1    6    6    0  502 -0.28354897368E+03  0.23938741492E+03  0.17409168256E+02  0.37149620998E+03  0.00000000000E+00 0.  1.
<mgrwt>
<rscale>  0 0.16942491E+04</rscale>
<asrwt>0</asrwt>
<pdfrwt beam="1">  1        1 0.33209657E+00 0.16942491E+04</pdfrwt>
<pdfrwt beam="2">  1       -1 0.51145031E-01 0.16942491E+04</pdfrwt>
<totfact> 0.85125614E+00</totfact>
</mgrwt>
</event>
<event>
12    1  0.1536832E-007  0.1249591E+04  0.7818608E-02  0.9070524E-01
          4   -1    0    0  501    0  0.00000000000E+00  0.00000000000E+00  0.10599290478E+04  0.10599290478E+04  0.00000000000E+00 0. -1.
         -4   -1    0    0    0  501 -0.00000000000E+00 -0.00000000000E+00 -0.36829781498E+03  0.36829781498E+03  0.00000000000E+00 0.  1.
         23    2    1    2    0    0  0.13814020747E+02  0.18385505516E+03  0.41506817388E+03  0.46688893780E+03  0.10821359804E+03 0.  0.
        254    2    1    2    0    0 -0.13814020747E+02 -0.18385505516E+03  0.27656305892E+03  0.96133792496E+03  0.90204765502E+03 0.  0.
        -24    2    4    4    0    0  0.30631500396E+03 -0.39620898984E+03  0.25786595327E+03  0.56872297470E+03  0.78361513608E+02 0.  0.
         24    2    4    4    0    0 -0.32012902471E+03  0.21235393468E+03  0.18697105657E+02  0.39261495025E+03  0.78867809454E+02 0.  0.
         13    1    3    3    0    0 -0.23138975081E+02  0.39218821636E+02  0.19980539157E+03  0.20492857936E+03  0.00000000000E+00 0. -1.
        -13    1    3    3    0    0  0.36952995828E+02  0.14463623352E+03  0.21526278231E+03  0.26196035844E+03  0.00000000000E+00 0.  1.
          2    1    6    6  502    0 -0.32344016743E+03  0.21001809359E+03  0.23465878033E+02  0.38635707444E+03  0.00000000000E+00 0. -1.
          3    1    5    5  503    0  0.15550612772E+03 -0.16001401014E+03  0.81176972189E+02  0.23743702326E+03  0.00000000000E+00 0. -1.
         -4    1    5    5    0  503  0.15080887624E+03 -0.23619497970E+03  0.17668898108E+03  0.33128595144E+03  0.00000000000E+00 0.  1.
         -1    1    6    6    0  502  0.33111427185E+01  0.23358410947E+01 -0.47687723759E+01  0.62578758133E+01  0.00000000000E+00 0.  1.
<mgrwt>
<rscale>  0 0.12495912E+04</rscale>
<asrwt>0</asrwt>
<pdfrwt beam="1">  1        4 0.16306601E+00 0.12495912E+04</pdfrwt>
<pdfrwt beam="2">  1       -4 0.56661203E-01 0.12495912E+04</pdfrwt>
<totfact> 0.13817751E+00</totfact>
</mgrwt>
</event>
<event>
12    1  0.1536832E-007  0.1458159E+04  0.7818608E-02  0.8912763E-01
          1   -1    0    0  501    0  0.00000000000E+00  0.00000000000E+00  0.32786522013E+04  0.32786522013E+04  0.00000000000E+00 0. -1.
         -1   -1    0    0    0  501 -0.00000000000E+00 -0.00000000000E+00 -0.16212676172E+03  0.16212676172E+03  0.00000000000E+00 0.  1.
         23    2    1    2    0    0 -0.31978052880E+03  0.40411984241E+02  0.26876977386E+03  0.42974597339E+03  0.92475376408E+02 0.  0.
        254    2    1    2    0    0  0.31978052880E+03 -0.40411984241E+02  0.28477556657E+04  0.30110329896E+04  0.92342548042E+03 0.  0.
        -24    2    4    4    0    0 -0.19831430091E+03  0.17944345985E+03  0.17764078608E+04  0.17982173125E+04  0.80200362037E+02 0.  0.
         24    2    4    4    0    0  0.51809482970E+03 -0.21985544409E+03  0.10713478050E+04  0.12128156771E+04  0.79856612499E+02 0.  0.
         11    1    3    3    0    0 -0.79784051801E+02 -0.29552844284E+02  0.60996567212E+02  0.10468737621E+03  0.00000000000E+00 0. -1.
        -11    1    3    3    0    0 -0.23999647699E+03  0.69964828525E+02  0.20777320664E+03  0.32505859718E+03  0.00000000000E+00 0.  1.
          4    1    6    6  502    0  0.46987357973E+03 -0.18103308065E+03  0.98883184491E+03  0.11096587650E+04  0.00000000000E+00 0. -1.
          3    1    5    5  503    0 -0.16096591796E+03  0.11527395434E+03  0.10928637485E+04  0.11106526388E+04  0.00000000000E+00 0. -1.
         -4    1    5    5    0  503 -0.37348382943E+02  0.64169505511E+02  0.68354411227E+03  0.68756467374E+03  0.00000000000E+00 0.  1.
         -3    1    6    6    0  502  0.48221249972E+02 -0.38822363436E+02  0.82515960045E+02  0.10315691210E+03  0.00000000000E+00 0.  1.
<mgrwt>
<rscale>  0 0.14581595E+04</rscale>
<asrwt>0</asrwt>
<pdfrwt beam="1">  1        1 0.50440798E+00 0.14581595E+04</pdfrwt>
<pdfrwt beam="2">  1       -1 0.24942581E-01 0.14581595E+04</pdfrwt>
<totfact> 0.51107958E+00</totfact>
</mgrwt>
</event>
<event>
12    1  0.1536832E-007  0.3500973E+04  0.7818608E-02  0.8113559E-01
         -2   -1    0    0    0  501 -0.00000000000E+00  0.00000000000E+00  0.19461080672E+04  0.19461080672E+04  0.00000000000E+00 0.  1.
          2   -1    0    0  501    0  0.00000000000E+00 -0.00000000000E+00 -0.15745290937E+04  0.15745290937E+04  0.00000000000E+00 0. -1.
         23    2    1    2    0    0  0.14745874605E+04  0.35970714318E+03  0.77617044361E+03  0.17072028809E+04  0.91124702749E+02 0.  0.
        254    2    1    2    0    0 -0.14745874605E+04 -0.35970714318E+03 -0.40459147011E+03  0.18134342800E+04  0.90611932033E+03 0.  0.
        -24    2    4    4    0    0 -0.44755148384E+03 -0.32407478225E+03  0.22935762435E+03  0.60304451357E+03  0.75703172517E+02 0.  0.
         24    2    4    4    0    0 -0.10270359767E+04 -0.35632360936E+02 -0.63394909446E+03  0.12103897665E+04  0.84138990926E+02 0.  0.
         13    1    3    3    0    0  0.10089467283E+04  0.20888193110E+03  0.50086335033E+03  0.11456305064E+04  0.00000000000E+00 0.  1.
        -13    1    3    3    0    0  0.46564073228E+03  0.15082521208E+03  0.27530709328E+03  0.56157237447E+03  0.00000000000E+00 0. -1.
          2    1    6    6  502    0 -0.91554616638E+03 -0.11400839111E+02 -0.58275541346E+03  0.10853380275E+04  0.00000000000E+00 0. -1.
          3    1    5    5  503    0 -0.43015672530E+03 -0.31091070354E+03  0.20162714368E+03  0.56776207954E+03  0.00000000000E+00 0. -1.
         -4    1    5    5    0  503 -0.17394758538E+02 -0.13164078707E+02  0.27730480678E+02  0.35282434035E+02  0.00000000000E+00 0.  1.
         -1    1    6    6    0  502 -0.11148981031E+03 -0.24231521824E+02 -0.51193681001E+02  0.12505173900E+03  0.00000000000E+00 0.  1.
<mgrwt>
<rscale>  0 0.35009734E+04</rscale>
<asrwt>0</asrwt>
<pdfrwt beam="1">  1        2 0.24223525E+00 0.35009734E+04</pdfrwt>
<pdfrwt beam="2">  1       -2 0.29940124E+00 0.35009734E+04</pdfrwt>
<totfact> 0.30348761E-01</totfact>
</mgrwt>
</event>
<event>
12    1  0.1536832E-007  0.2250381E+04  0.7818608E-02  0.8497746E-01
         -2   -1    0    0    0  501 -0.00000000000E+00  0.00000000000E+00  0.46822138874E+03  0.46822138874E+03  0.00000000000E+00 0.  1.
          2   -1    0    0  501    0  0.00000000000E+00 -0.00000000000E+00 -0.27039626355E+04  0.27039626355E+04  0.00000000000E+00 0. -1.
         23    2    1    2    0    0  0.75632795699E+03 -0.72817688305E+02 -0.15231995503E+03  0.78047760157E+03  0.92787518516E+02 0.  0.
        254    2    1    2    0    0 -0.75632795699E+03  0.72817688305E+02 -0.20834212918E+04  0.23917064227E+04  0.89570136719E+03 0.  0.
        -24    2    4    4    0    0 -0.64247352434E+03  0.21666195873E+03 -0.20830728438E+04  0.21921133718E+04  0.80336345303E+02 0.  0.
         24    2    4    4    0    0 -0.11385443265E+03 -0.14384427042E+03 -0.34844800718E+00  0.19959305096E+03  0.78633698931E+02 0.  0.
         13    1    3    3    0    0  0.52965606495E+03 -0.55658218008E+02 -0.14942924789E+03  0.55313875700E+03  0.00000000000E+00 0.  1.
        -13    1    3    3    0    0  0.22667189204E+03 -0.17159470297E+02 -0.28907071451E+01  0.22733884457E+03  0.00000000000E+00 0. -1.
          2    1    6    6  502    0 -0.11712050288E+03 -0.95645302649E+02  0.20117025783E+01  0.15122593382E+03  0.00000000000E+00 0. -1.
          1    1    5    5  503    0 -0.27372035734E+03  0.95299196965E+02 -0.10197998815E+04  0.10601870445E+04  0.00000000000E+00 0. -1.
         -4    1    5    5    0  503 -0.36875316700E+03  0.12136276176E+03 -0.10632729623E+04  0.11319263273E+04  0.00000000000E+00 0.  1.
         -1    1    6    6    0  502  0.32660702305E+01 -0.48198967772E+02 -0.23601505855E+01  0.48367117134E+02  0.00000000000E+00 0.  1.
<mgrwt>
<rscale>  0 0.22503805E+04</rscale>
<asrwt>0</asrwt>
<pdfrwt beam="1">  1        2 0.41599425E+00 0.22503805E+04</pdfrwt>
<pdfrwt beam="2">  1       -2 0.72034060E-01 0.22503805E+04</pdfrwt>
<totfact> 0.41982858E+00</totfact>
</mgrwt>
</event>
<event>
12    1  0.1536832E-007  0.1613180E+04  0.7818608E-02  0.8812492E-01
         -2   -1    0    0    0  501 -0.00000000000E+00  0.00000000000E+00  0.41878731328E+03  0.41878731328E+03  0.00000000000E+00 0.  1.
          2   -1    0    0  501    0  0.00000000000E+00 -0.00000000000E+00 -0.15535031334E+04  0.15535031334E+04  0.00000000000E+00 0. -1.
         23    2    1    2    0    0  0.53013736135E+03 -0.10213353605E+03 -0.55331968958E+03  0.77841289636E+03  0.91033385383E+02 0.  0.
        254    2    1    2    0    0 -0.53013736135E+03  0.10213353605E+03 -0.58139613054E+03  0.11938775503E+04  0.89210159931E+03 0.  0.
        -24    2    4    4    0    0 -0.70470672079E+03  0.29974945898E+02 -0.16386888045E+03  0.72872976970E+03  0.81755779993E+02 0.  0.
         24    2    4    4    0    0  0.17456935944E+03  0.72158590155E+02 -0.41752725009E+03  0.46514778063E+03  0.79700250129E+02 0.  0.
         11    1    3    3    0    0  0.75121700546E+01  0.10095330916E+02 -0.17496282672E+02  0.21551526920E+02  0.00000000000E+00 0.  1.
        -11    1    3    3    0    0  0.52262519129E+03 -0.11222886697E+03 -0.53582340691E+03  0.75686136944E+03  0.00000000000E+00 0. -1.
          4    1    6    6  502    0  0.14206947237E+03  0.28743888611E+02 -0.24907519520E+03  0.28818119123E+03  0.00000000000E+00 0. -1.
          1    1    5    5  503    0 -0.84833431603E+02 -0.17918062223E+02 -0.40668214566E+01  0.86800386566E+02  0.00000000000E+00 0. -1.
         -2    1    5    5    0  503 -0.61987328918E+03  0.47893008121E+02 -0.15980205899E+03  0.64192938313E+03  0.00000000000E+00 0.  1.
         -3    1    6    6    0  502  0.32499887070E+02  0.43414701544E+02 -0.16845205488E+03  0.17696658940E+03  0.00000000000E+00 0.  1.
<mgrwt>
<rscale>  0 0.16131800E+04</rscale>
<asrwt>0</asrwt>
<pdfrwt beam="1">  1        2 0.23900048E+00 0.16131800E+04</pdfrwt>
<pdfrwt beam="2">  1       -2 0.64428818E-01 0.16131800E+04</pdfrwt>
<totfact> 0.25238576E+01</totfact>
</mgrwt>
</event>
<event>
12    1  0.1536832E-007  0.3218265E+04  0.7818608E-02  0.8184010E-01
          2   -1    0    0  501    0  0.00000000000E+00  0.00000000000E+00  0.16006808205E+04  0.16006808205E+04  0.00000000000E+00 0. -1.
         -2   -1    0    0    0  501 -0.00000000000E+00 -0.00000000000E+00 -0.16176289560E+04  0.16176289560E+04  0.00000000000E+00 0.  1.
         23    2    1    2    0    0  0.49616221007E+03 -0.13491888421E+04 -0.36343004074E+03  0.14855548425E+04  0.91128070383E+02 0.  0.
        254    2    1    2    0    0 -0.49616221007E+03  0.13491888421E+04  0.34648190521E+03  0.17327549340E+04  0.90327320362E+03 0.  0.
        -24    2    4    4    0    0 -0.13494307732E+03  0.58305242221E+03 -0.29078549631E+03  0.67007622864E+03  0.79285472604E+02 0.  0.
         24    2    4    4    0    0 -0.36121913275E+03  0.76613641988E+03  0.63726740152E+03  0.10626787054E+04  0.75710065868E+02 0.  0.
         11    1    3    3    0    0  0.10587293511E+03 -0.19807531296E+03 -0.68456576861E+02  0.23479610497E+03  0.00000000000E+00 0. -1.
        -11    1    3    3    0    0  0.39028927497E+03 -0.11511135291E+04 -0.29497346388E+03  0.12507587375E+04  0.00000000000E+00 0.  1.
          4    1    6    6  502    0 -0.22673093000E+03  0.49325885145E+03  0.36278458123E+03  0.65293480650E+03  0.00000000000E+00 0. -1.
          1    1    5    5  503    0 -0.52375985684E+02  0.12974485726E+03 -0.96810970645E+02  0.17014504371E+03  0.00000000000E+00 0. -1.
         -2    1    5    5    0  503 -0.82567091639E+02  0.45330756494E+03 -0.19397452566E+03  0.49993118493E+03  0.00000000000E+00 0.  1.
         -3    1    6    6    0  502 -0.13448820275E+03  0.27287756843E+03  0.27448282029E+03  0.40974389887E+03  0.00000000000E+00 0.  1.
<mgrwt>
<rscale>  0 0.32182652E+04</rscale>
<asrwt>0</asrwt>
<pdfrwt beam="1">  1        2 0.24625859E+00 0.32182652E+04</pdfrwt>
<pdfrwt beam="2">  1       -2 0.24886599E+00 0.32182652E+04</pdfrwt>
<totfact> 0.61180008E-01</totfact>
</mgrwt>
</event>
<event>
12    1  0.1536832E-007  0.2253825E+04  0.7818608E-02  0.8496353E-01
          2   -1    0    0  501    0  0.00000000000E+00  0.00000000000E+00  0.11071748851E+04  0.11071748851E+04  0.00000000000E+00 0. -1.
         -2   -1    0    0    0  501 -0.00000000000E+00 -0.00000000000E+00 -0.11470024622E+04  0.11470024622E+04  0.00000000000E+00 0.  1.
         23    2    1    2    0    0  0.78772330442E+02  0.21898159510E+03  0.89845773495E+03  0.93224345298E+03  0.87712798939E+02 0.  0.
        254    2    1    2    0    0 -0.78772330442E+02 -0.21898159510E+03 -0.93828531212E+03  0.13219338943E+04  0.90164953005E+03 0.  0.
        -24    2    4    4    0    0 -0.24070765000E+03 -0.50223098853E+03 -0.41248994522E+03  0.69772858733E+03  0.80629325030E+02 0.  0.
         24    2    4    4    0    0  0.16193531956E+03  0.28324939343E+03 -0.52579536690E+03  0.62420530702E+03  0.81964814791E+02 0.  0.
         11    1    3    3    0    0  0.42676700387E+01  0.13551098873E+03  0.44560297318E+03  0.46577188706E+03  0.00000000000E+00 0.  1.
        -11    1    3    3    0    0  0.74504660404E+02  0.83470606377E+02  0.45285476177E+03  0.46647156591E+03  0.00000000000E+00 0. -1.
          4    1    6    6  502    0  0.13345383014E+03  0.22628302337E+03 -0.47473599228E+03  0.54257551900E+03  0.00000000000E+00 0. -1.
          3    1    5    5  503    0 -0.18140318740E+03 -0.35704736870E+03 -0.25112606723E+03  0.47270946842E+03  0.00000000000E+00 0. -1.
         -4    1    5    5    0  503 -0.59304462603E+02 -0.14518361983E+03 -0.16136387799E+03  0.22501911890E+03  0.00000000000E+00 0.  1.
         -3    1    6    6    0  502  0.28481489417E+02  0.56966370055E+02 -0.51059374614E+02  0.81629788023E+02  0.00000000000E+00 0.  1.
<mgrwt>
<rscale>  0 0.22538255E+04</rscale>
<asrwt>0</asrwt>
<pdfrwt beam="1">  1        2 0.17033460E+00 0.22538255E+04</pdfrwt>
<pdfrwt beam="2">  1       -2 0.17646192E+00 0.22538255E+04</pdfrwt>
<totfact> 0.37656969E+00</totfact>
</mgrwt>
</event>
<event>
12    1  0.1536832E-007  0.1550418E+04  0.7818608E-02  0.8851601E-01
         -2   -1    0    0    0  501 -0.00000000000E+00  0.00000000000E+00  0.13566313562E+03  0.13566313562E+03  0.00000000000E+00 0.  1.
          2   -1    0    0  501    0  0.00000000000E+00 -0.00000000000E+00 -0.44297154182E+04  0.44297154182E+04  0.00000000000E+00 0. -1.
         23    2    1    2    0    0 -0.67046714753E+02 -0.31370571781E+02 -0.29477755536E+04  0.29501313614E+04  0.91733093659E+02 0.  0.
        254    2    1    2    0    0  0.67046714753E+02  0.31370571781E+02 -0.13462767290E+04  0.16152471924E+04  0.88942851700E+03 0.  0.
        -24    2    4    4    0    0 -0.33945042667E+03 -0.20832098058E+03 -0.51615959633E+03  0.65691471261E+03  0.80572871623E+02 0.  0.
         24    2    4    4    0    0  0.40649714142E+03  0.23969155236E+03 -0.83011713268E+03  0.95833247983E+03  0.81330939171E+02 0.  0.
         11    1    3    3    0    0 -0.64708150205E+02  0.18990084601E+02 -0.17149989142E+04  0.17163242828E+04  0.00000000000E+00 0.  1.
        -11    1    3    3    0    0 -0.23385645478E+01 -0.50360656382E+02 -0.12327766394E+04  0.12338070786E+04  0.00000000000E+00 0. -1.
          2    1    6    6  502    0  0.36778582465E+03  0.20429856262E+03 -0.68339693684E+03  0.80251834171E+03  0.00000000000E+00 0. -1.
          3    1    5    5  503    0 -0.29686457787E+03 -0.20634156721E+03 -0.43847152283E+03  0.56829806993E+03  0.00000000000E+00 0. -1.
         -4    1    5    5    0  503 -0.42585848795E+02 -0.19794133676E+01 -0.77688073505E+02  0.88616642679E+02  0.00000000000E+00 0.  1.
         -1    1    6    6    0  502  0.38711316768E+02  0.35392989740E+02 -0.14672019584E+03  0.15581413812E+03  0.00000000000E+00 0.  1.
<mgrwt>
<rscale>  0 0.15504181E+04</rscale>
<asrwt>0</asrwt>
<pdfrwt beam="1">  1        2 0.68149460E+00 0.15504181E+04</pdfrwt>
<pdfrwt beam="2">  1       -2 0.20871254E-01 0.15504181E+04</pdfrwt>
<totfact> 0.28327601E+00</totfact>
</mgrwt>
</event>
<event>
12    1  0.1536832E-007  0.1389036E+04  0.7818608E-02  0.8961793E-01
          1   -1    0    0  501    0  0.00000000000E+00  0.00000000000E+00  0.42813543344E+03  0.42813543344E+03  0.00000000000E+00 0. -1.
         -1   -1    0    0    0  501 -0.00000000000E+00 -0.00000000000E+00 -0.11266420120E+04  0.11266420120E+04  0.00000000000E+00 0.  1.
         23    2    1    2    0    0  0.22253542259E+03  0.12070165766E+03  0.12973883554E+03  0.30087953046E+03  0.98007254518E+02 0.  0.
        254    2    1    2    0    0 -0.22253542259E+03 -0.12070165766E+03 -0.82824541413E+03  0.12538979150E+04  0.90674065242E+03 0.  0.
        -24    2    4    4    0    0 -0.48485327649E+03 -0.10040577402E+03 -0.84048438731E+03  0.97877939464E+03  0.80194007803E+02 0.  0.
         24    2    4    4    0    0  0.26231785390E+03 -0.20295883641E+02  0.12238973178E+02  0.27511852037E+03  0.79484768450E+02 0.  0.
         11    1    3    3    0    0  0.15868122857E+03  0.13133625498E+03  0.88958787372E+02  0.22437158916E+03  0.00000000000E+00 0. -1.
        -11    1    3    3    0    0  0.63854194018E+02 -0.10634597322E+02  0.40780048163E+02  0.76507941301E+02  0.00000000000E+00 0.  1.
          4    1    6    6  502    0  0.12062622496E+03 -0.29113375742E+02  0.40173102739E+02  0.13043064432E+03  0.00000000000E+00 0. -1.
          1    1    5    5  503    0 -0.27154705764E+03 -0.21581431512E+02 -0.49888949175E+03  0.56841383487E+03  0.00000000000E+00 0. -1.
         -2    1    5    5    0  503 -0.21330621884E+03 -0.78824342504E+02 -0.34159489556E+03  0.41036555976E+03  0.00000000000E+00 0.  1.
         -3    1    6    6    0  502  0.14169162895E+03  0.88174921009E+01 -0.27934129561E+02  0.14468787605E+03  0.00000000000E+00 0.  1.
<mgrwt>
<rscale>  0 0.13890362E+04</rscale>
<asrwt>0</asrwt>
<pdfrwt beam="1">  1        1 0.65866990E-01 0.13890362E+04</pdfrwt>
<pdfrwt beam="2">  1       -1 0.17332954E+00 0.13890362E+04</pdfrwt>
<totfact> 0.12432513E+01</totfact>
</mgrwt>
</event>
<event>
12    1  0.1536832E-007  0.2823390E+04  0.7818608E-02  0.8296043E-01
         -2   -1    0    0    0  501 -0.00000000000E+00  0.00000000000E+00  0.29794697968E+04  0.29794697968E+04  0.00000000000E+00 0.  1.
          2   -1    0    0  501    0  0.00000000000E+00 -0.00000000000E+00 -0.66887166658E+03  0.66887166658E+03  0.00000000000E+00 0. -1.
         23    2    1    2    0    0 -0.18830881964E+03 -0.47137029208E+03  0.25191561769E+04  0.25712997880E+04  0.88230338198E+02 0.  0.
        254    2    1    2    0    0  0.18830881964E+03  0.47137029208E+03 -0.20855804671E+03  0.10770416753E+04  0.92675355285E+03 0.  0.
        -24    2    4    4    0    0  0.97518475814E+02  0.92333518749E+02 -0.53829620866E+03  0.56060104769E+03  0.80469836597E+02 0.  0.
         24    2    4    4    0    0  0.90790343826E+02  0.37903677333E+03  0.32973816196E+03  0.51644062763E+03  0.77922425176E+02 0.  0.
         11    1    3    3    0    0 -0.40313649838E+02 -0.16684390222E+03  0.10240001287E+04  0.10382862523E+04  0.00000000000E+00 0.  1.
        -11    1    3    3    0    0 -0.14799516980E+03 -0.30452638986E+03  0.14951560482E+04  0.15330135357E+04  0.00000000000E+00 0. -1.
          2    1    6    6  502    0  0.30894789074E+02  0.13821304046E+03  0.17022320790E+03  0.22143457962E+03  0.00000000000E+00 0. -1.
          1    1    5    5  503    0  0.33781068849E+02  0.54374224996E+02 -0.12227916673E+03  0.13802141708E+03  0.00000000000E+00 0. -1.
         -2    1    5    5    0  503  0.63737406965E+02  0.37959293753E+02 -0.41601704194E+03  0.42257963062E+03  0.00000000000E+00 0.  1.
         -1    1    6    6    0  502  0.59895554752E+02  0.24082373286E+03  0.15951495406E+03  0.29500604800E+03  0.00000000000E+00 0.  1.
<mgrwt>
<rscale>  0 0.28233901E+04</rscale>
<asrwt>0</asrwt>
<pdfrwt beam="1">  1        2 0.10290333E+00 0.28233901E+04</pdfrwt>
<pdfrwt beam="2">  1       -2 0.45837996E+00 0.28233901E+04</pdfrwt>
<totfact> 0.11495654E-01</totfact>
</mgrwt>
</event>
<event>
12    1  0.1536832E-007  0.1536074E+04  0.7818608E-02  0.8860812E-01
         -2   -1    0    0    0  501 -0.00000000000E+00  0.00000000000E+00  0.51080133002E+03  0.51080133002E+03  0.00000000000E+00 0.  1.
          2   -1    0    0  501    0  0.00000000000E+00 -0.00000000000E+00 -0.11548150460E+04  0.11548150460E+04  0.00000000000E+00 0. -1.
         23    2    1    2    0    0  0.36238184822E+03  0.32589528487E+03 -0.33005645049E+03  0.59578285744E+03  0.92149943509E+02 0.  0.
        254    2    1    2    0    0 -0.36238184822E+03 -0.32589528487E+03 -0.31395726550E+03  0.10698335186E+04  0.89913639249E+03 0.  0.
        -24    2    4    4    0    0 -0.45064508432E+03  0.27763281672E+02 -0.47789344044E+03  0.66247290145E+03  0.81464181823E+02 0.  0.
         24    2    4    4    0    0  0.88263236094E+02 -0.35365856654E+03  0.16393617494E+03  0.40736061713E+03  0.78757998965E+02 0.  0.
         11    1    3    3    0    0  0.28347694144E+03  0.26173397247E+03 -0.21299922144E+03  0.44071818321E+03  0.00000000000E+00 0. -1.
        -11    1    3    3    0    0  0.78904906779E+02  0.64161312400E+02 -0.11705722905E+03  0.15506467423E+03  0.00000000000E+00 0.  1.
          4    1    6    6  502    0  0.46599650036E+02 -0.10038924363E+03  0.18093938101E+02  0.11214686004E+03  0.00000000000E+00 0. -1.
          3    1    5    5  503    0 -0.94146611410E+02  0.33373087733E+01 -0.56022124597E+02  0.10960474677E+03  0.00000000000E+00 0. -1.
         -4    1    5    5    0  503 -0.35649847291E+03  0.24425972898E+02 -0.42187131584E+03  0.55286815468E+03  0.00000000000E+00 0.  1.
         -3    1    6    6    0  502  0.41663586058E+02 -0.25326932291E+03  0.14584223684E+03  0.29521375709E+03  0.00000000000E+00 0.  1.
<mgrwt>
<rscale>  0 0.15360743E+04</rscale>
<asrwt>0</asrwt>
<pdfrwt beam="1">  1        2 0.17766385E+00 0.15360743E+04</pdfrwt>
<pdfrwt beam="2">  1       -2 0.78584821E-01 0.15360743E+04</pdfrwt>
<totfact> 0.27963823E+01</totfact>
</mgrwt>
</event>
<event>
12    1  0.1536832E-007  0.1422927E+04  0.7818608E-02  0.8937388E-01
         -2   -1    0    0    0  501 -0.00000000000E+00  0.00000000000E+00  0.67739547661E+03  0.67739547661E+03  0.00000000000E+00 0.  1.
          2   -1    0    0  501    0  0.00000000000E+00 -0.00000000000E+00 -0.74724516029E+03  0.74724516029E+03  0.00000000000E+00 0. -1.
         23    2    1    2    0    0 -0.28889993283E+03 -0.30644839214E+03 -0.39975314878E+02  0.43220743629E+03  0.88495502415E+02 0.  0.
        254    2    1    2    0    0  0.28889993283E+03  0.30644839214E+03 -0.29874368794E+02  0.99243320061E+03  0.89814107552E+03 0.  0.
        -24    2    4    4    0    0  0.11395106969E+03 -0.31267061743E+03  0.18494513587E+02  0.34225013312E+03  0.77751818639E+02 0.  0.
         24    2    4    4    0    0  0.17494886314E+03  0.61911900956E+03 -0.48368882381E+02  0.65018306750E+03  0.80517201631E+02 0.  0.
         11    1    3    3    0    0 -0.90292625892E+01  0.47319729824E+01 -0.70453366161E+01  0.12391768205E+02  0.00000000000E+00 0. -1.
        -11    1    3    3    0    0 -0.27987067024E+03 -0.31118036512E+03 -0.32929978262E+02  0.41981566808E+03  0.00000000000E+00 0.  1.
          4    1    6    6  502    0  0.18065877860E+03  0.61580503559E+03 -0.47343971160E+02  0.64350204953E+03  0.00000000000E+00 0. -1.
          3    1    5    5  503    0  0.76423510452E+02 -0.23825375465E+03 -0.18854940090E+02  0.25092013335E+03  0.00000000000E+00 0. -1.
         -4    1    5    5    0  503  0.37527559237E+02 -0.74416862777E+02  0.37349453677E+02  0.91329999769E+02  0.00000000000E+00 0.  1.
         -3    1    6    6    0  502 -0.57099154591E+01  0.33139739715E+01 -0.10249112218E+01  0.66810179648E+01  0.00000000000E+00 0.  1.
<mgrwt>
<rscale>  0 0.14229273E+04</rscale>
<asrwt>0</asrwt>
<pdfrwt beam="1">  1        2 0.11496079E+00 0.14229273E+04</pdfrwt>
<pdfrwt beam="2">  1       -2 0.10421469E+00 0.14229273E+04</pdfrwt>
<totfact> 0.27407805E+01</totfact>
</mgrwt>
</event>
<event>
12    1  0.1536832E-007  0.2789057E+04  0.7818608E-02  0.8306674E-01
         -2   -1    0    0    0  501 -0.00000000000E+00  0.00000000000E+00  0.98246975949E+03  0.98246975949E+03  0.00000000000E+00 0.  1.
          2   -1    0    0  501    0  0.00000000000E+00 -0.00000000000E+00 -0.19794097306E+04  0.19794097306E+04  0.00000000000E+00 0. -1.
         23    2    1    2    0    0  0.10950617484E+04 -0.30467332007E+03  0.10018198268E+03  0.11446720378E+04  0.90838205208E+02 0.  0.
        254    2    1    2    0    0 -0.10950617484E+04  0.30467332007E+03 -0.10971219537E+04  0.18172074523E+04  0.89809814521E+03 0.  0.
        -24    2    4    4    0    0 -0.43862158065E+03  0.27976157267E+03  0.10980109875E+02  0.52659999015E+03  0.80818056483E+02 0.  0.
         24    2    4    4    0    0 -0.65644016779E+03  0.24911747403E+02 -0.11081020636E+04  0.12906074621E+04  0.79013599503E+02 0.  0.
         13    1    3    3    0    0  0.82441567460E+03 -0.22295380164E+03  0.11407634576E+03  0.86161651264E+03  0.00000000000E+00 0. -1.
        -13    1    3    3    0    0  0.27064607384E+03 -0.81719518428E+02 -0.13894363083E+02  0.28305552512E+03  0.00000000000E+00 0.  1.
          2    1    6    6  502    0 -0.39155616305E+03 -0.19610963500E+02 -0.62240999717E+03  0.73559161448E+03  0.00000000000E+00 0. -1.
          1    1    5    5  503    0 -0.30323912999E+03  0.21225439069E+03  0.40879441720E+02  0.37239364264E+03  0.00000000000E+00 0. -1.
         -2    1    5    5    0  503 -0.13538245066E+03  0.67507181972E+02 -0.29899331844E+02  0.15420634750E+03  0.00000000000E+00 0.  1.
         -1    1    6    6    0  502 -0.26488400474E+03  0.44522710903E+02 -0.48569206645E+03  0.55501584767E+03  0.00000000000E+00 0.  1.
<mgrwt>
<rscale>  0 0.27890573E+04</rscale>
<asrwt>0</asrwt>
<pdfrwt beam="1">  1        2 0.30452457E+00 0.27890573E+04</pdfrwt>
<pdfrwt beam="2">  1       -2 0.15114920E+00 0.27890573E+04</pdfrwt>
<totfact> 0.17542627E+00</totfact>
</mgrwt>
</event>
<event>
12    1  0.1536832E-007  0.1169480E+04  0.7818608E-02  0.9139998E-01
          1   -1    0    0  501    0  0.00000000000E+00  0.00000000000E+00  0.11570496908E+04  0.11570496908E+04  0.00000000000E+00 0. -1.
         -1   -1    0    0    0  501 -0.00000000000E+00 -0.00000000000E+00 -0.29551078877E+03  0.29551078877E+03  0.00000000000E+00 0.  1.
         23    2    1    2    0    0  0.43884536159E+02 -0.18493008277E+03  0.40066967197E+02  0.21488412688E+03  0.91895800205E+02 0.  0.
        254    2    1    2    0    0 -0.43884536159E+02  0.18493008277E+03  0.82147193486E+03  0.12376763527E+04  0.90603621688E+03 0.  0.
        -24    2    4    4    0    0  0.42357151447E+03  0.84146573678E+02  0.43541498030E+03  0.61812231755E+03  0.77430747497E+02 0.  0.
         24    2    4    4    0    0 -0.46745605063E+03  0.10078350909E+03  0.38605695457E+03  0.61955403518E+03  0.78324679143E+02 0.  0.
         11    1    3    3    0    0  0.35931724994E+02 -0.99046215766E+02  0.66596683346E+02  0.12464493552E+03  0.00000000000E+00 0. -1.
        -11    1    3    3    0    0  0.79528111649E+01 -0.85883867006E+02 -0.26529716150E+02  0.90239191355E+02  0.00000000000E+00 0.  1.
          4    1    6    6  502    0 -0.16426310825E+03  0.27091525463E+02  0.89169253708E+02  0.18885834716E+03  0.00000000000E+00 0. -1.
          3    1    5    5  503    0  0.17442684189E+03  0.69626456175E+02  0.21121634529E+03  0.28263918888E+03  0.00000000000E+00 0. -1.
         -2    1    5    5    0  503  0.24914467258E+03  0.14520117502E+02  0.22419863501E+03  0.33548312868E+03  0.00000000000E+00 0.  1.
         -3    1    6    6    0  502 -0.30319294237E+03  0.73691983631E+02  0.29688770086E+03  0.43069568802E+03  0.00000000000E+00 0.  1.
<mgrwt>
<rscale>  0 0.11694797E+04</rscale>
<asrwt>0</asrwt>
<pdfrwt beam="1">  1        1 0.17800764E+00 0.11694797E+04</pdfrwt>
<pdfrwt beam="2">  1       -1 0.45463199E-01 0.11694797E+04</pdfrwt>
<totfact> 0.54742904E+01</totfact>
</mgrwt>
</event>
<event>
12    1  0.1536832E-007  0.1790902E+04  0.7818608E-02  0.8711152E-01
          1   -1    0    0  501    0  0.00000000000E+00  0.00000000000E+00  0.13843422622E+04  0.13843422622E+04  0.00000000000E+00 0. -1.
         -1   -1    0    0    0  501 -0.00000000000E+00 -0.00000000000E+00 -0.57921575683E+03  0.57921575683E+03  0.00000000000E+00 0.  1.
         23    2    1    2    0    0 -0.47270010348E+03  0.39053404657E+03  0.60113583663E+03  0.86364445519E+03  0.92494440641E+02 0.  0.
        254    2    1    2    0    0  0.47270010348E+03 -0.39053404657E+03  0.20399066870E+03  0.10999135638E+04  0.89007607852E+03 0.  0.
        -24    2    4    4    0    0  0.51323679385E+03  0.25262831241E+02  0.37528721578E+03  0.64123748227E+03  0.79339757566E+02 0.  0.
         24    2    4    4    0    0 -0.40536690373E+02 -0.41579687781E+03 -0.17129654709E+03  0.45867608153E+03  0.80690605759E+02 0.  0.
         11    1    3    3    0    0 -0.32310491494E+02  0.37727235439E+02  0.19780601454E+02  0.53465730598E+02  0.00000000000E+00 0.  1.
        -11    1    3    3    0    0 -0.44038961198E+03  0.35280681113E+03  0.58135523517E+03  0.81017872460E+03  0.00000000000E+00 0. -1.
          2    1    6    6  502    0 -0.39841205442E+02 -0.14883768985E+03 -0.95065092506E+02  0.18104516394E+03  0.00000000000E+00 0. -1.
          3    1    5    5  503    0  0.43498025675E+03 -0.20117946094E+01  0.33533170290E+03  0.54923512456E+03  0.00000000000E+00 0. -1.
         -4    1    5    5    0  503  0.78256537103E+02  0.27274625851E+02  0.39955512886E+02  0.92002357713E+02  0.00000000000E+00 0.  1.
         -1    1    6    6    0  502 -0.69548493098E+00 -0.26695918796E+03 -0.76231454579E+02  0.27763091759E+03  0.00000000000E+00 0.  1.
<mgrwt>
<rscale>  0 0.17909024E+04</rscale>
<asrwt>0</asrwt>
<pdfrwt beam="1">  1        1 0.21297573E+00 0.17909024E+04</pdfrwt>
<pdfrwt beam="2">  1       -1 0.89110117E-01 0.17909024E+04</pdfrwt>
<totfact> 0.91885715E+00</totfact>
</mgrwt>
</event>
<event>
12    1  0.1536832E-007  0.1705042E+04  0.7818608E-02  0.8758494E-01
          1   -1    0    0  501    0  0.00000000000E+00  0.00000000000E+00  0.13140380206E+04  0.13140380206E+04  0.00000000000E+00 0. -1.
         -1   -1    0    0    0  501 -0.00000000000E+00 -0.00000000000E+00 -0.55309814382E+03  0.55309814382E+03  0.00000000000E+00 0.  1.
         23    2    1    2    0    0  0.45065763095E+03  0.21038455377E+03 -0.10665626635E+03  0.51639841880E+03  0.89094371242E+02 0.  0.
        254    2    1    2    0    0 -0.45065763095E+03 -0.21038455377E+03  0.86759614316E+03  0.13507377457E+04  0.90797325354E+03 0.  0.
        -24    2    4    4    0    0 -0.37792175902E+03 -0.47338193575E+03  0.87453052749E+03  0.10668028244E+04  0.79682555480E+02 0.  0.
         24    2    4    4    0    0 -0.72735871931E+02  0.26299738198E+03 -0.69343843262E+01  0.28393492125E+03  0.78184549780E+02 0.  0.
         13    1    3    3    0    0  0.25397960211E+03  0.10218028004E+03 -0.15763780550E+02  0.27421696646E+03  0.00000000000E+00 0. -1.
        -13    1    3    3    0    0  0.19667802883E+03  0.10820427373E+03 -0.90892485797E+02  0.24218145233E+03  0.00000000000E+00 0.  1.
          2    1    6    6  502    0 -0.48162652764E+02  0.50994516492E+02  0.37686275759E+01  0.70244461613E+02  0.00000000000E+00 0. -1.
          3    1    5    5  503    0 -0.13641764912E+03 -0.23404172053E+03  0.38137639393E+03  0.46779616906E+03  0.00000000000E+00 0. -1.
         -4    1    5    5    0  503 -0.24150410990E+03 -0.23934021522E+03  0.49315413356E+03  0.59900665536E+03  0.00000000000E+00 0.  1.
         -1    1    6    6    0  502 -0.24573219167E+02  0.21200286549E+03 -0.10703011902E+02  0.21369045963E+03  0.00000000000E+00 0.  1.
<mgrwt>
<rscale>  0 0.17050419E+04</rscale>
<asrwt>0</asrwt>
<pdfrwt beam="1">  1        1 0.20215970E+00 0.17050419E+04</pdfrwt>
<pdfrwt beam="2">  1       -1 0.85092022E-01 0.17050419E+04</pdfrwt>
<totfact> 0.11484452E+01</totfact>
</mgrwt>
</event>
<event>
12    1  0.1536832E-007  0.2663502E+04  0.7818608E-02  0.8346945E-01
          2   -1    0    0  501    0  0.00000000000E+00  0.00000000000E+00  0.25379530161E+04  0.25379530161E+04  0.00000000000E+00 0. -1.
         -2   -1    0    0    0  501 -0.00000000000E+00 -0.00000000000E+00 -0.69881548944E+03  0.69881548944E+03  0.00000000000E+00 0.  1.
         23    2    1    2    0    0 -0.31196963659E+03 -0.37586533857E+03 -0.48820603409E+03  0.69641021570E+03  0.89678592322E+02 0.  0.
        254    2    1    2    0    0  0.31196963659E+03  0.37586533857E+03  0.23273435607E+04  0.25403582898E+04  0.89347209475E+03 0.  0.
        -24    2    4    4    0    0  0.49495662723E+03  0.16030570870E+03  0.64499527787E+03  0.83254829540E+03  0.80235731606E+02 0.  0.
         24    2    4    4    0    0 -0.18298699063E+03  0.21555962987E+03  0.16823482829E+04  0.17078099944E+04  0.79806261796E+02 0.  0.
         13    1    3    3    0    0 -0.11738579749E+03 -0.78404402454E+02 -0.13616716404E+03  0.19613304754E+03  0.00000000000E+00 0. -1.
        -13    1    3    3    0    0 -0.19458383910E+03 -0.29746093611E+03 -0.35203887005E+03  0.50027716816E+03  0.00000000000E+00 0.  1.
          4    1    6    6  502    0 -0.12321003860E+02  0.21536242134E+02  0.33426544916E+03  0.33518503452E+03  0.00000000000E+00 0. -1.
          1    1    5    5  503    0  0.23024621845E+03  0.10163421908E+03  0.26205940914E+03  0.36334277139E+03  0.00000000000E+00 0. -1.
         -2    1    5    5    0  503  0.26471040877E+03  0.58671489617E+02  0.38293586873E+03  0.46920552401E+03  0.00000000000E+00 0.  1.
         -3    1    6    6    0  502 -0.17066598677E+03  0.19402338773E+03  0.13480828337E+04  0.13726249599E+04  0.00000000000E+00 0.  1.
<mgrwt>
<rscale>  0 0.26635021E+04</rscale>
<asrwt>0</asrwt>
<pdfrwt beam="1">  1        2 0.39045430E+00 0.26635021E+04</pdfrwt>
<pdfrwt beam="2">  1       -2 0.10751008E+00 0.26635021E+04</pdfrwt>
<totfact> 0.20212412E+00</totfact>
</mgrwt>
</event>
<event>
12    1  0.1536832E-007  0.1883555E+04  0.7818608E-02  0.8663086E-01
          2   -1    0    0  501    0  0.00000000000E+00  0.00000000000E+00  0.10763491131E+04  0.10763491131E+04  0.00000000000E+00 0. -1.
         -2   -1    0    0    0  501 -0.00000000000E+00 -0.00000000000E+00 -0.82403052706E+03  0.82403052706E+03  0.00000000000E+00 0.  1.
         23    2    1    2    0    0 -0.55817441407E+03 -0.15721517905E+03 -0.34840623053E+03  0.68264518364E+03  0.91335952567E+02 0.  0.
        254    2    1    2    0    0  0.55817441407E+03  0.15721517905E+03  0.60072481659E+03  0.12177344565E+04  0.88641503391E+03 0.  0.
        -24    2    4    4    0    0 -0.14289244875E+03 -0.11237337435E+03  0.38369901703E+03  0.43193090997E+03  0.79330625512E+02 0.  0.
         24    2    4    4    0    0  0.70106686282E+03  0.26958855340E+03  0.21702579956E+03  0.78580354658E+03  0.78830716548E+02 0.  0.
         13    1    3    3    0    0 -0.48468212100E+03 -0.16718201812E+03 -0.30977939823E+03  0.59902409064E+03  0.00000000000E+00 0.  1.
        -13    1    3    3    0    0 -0.73492293064E+02  0.99668390629E+01 -0.38626832296E+02  0.83621092996E+02  0.00000000000E+00 0. -1.
          4    1    6    6  502    0  0.68781695695E+03  0.25403722456E+03  0.21910559597E+03  0.76526749566E+03  0.00000000000E+00 0. -1.
          3    1    5    5  503    0 -0.10597127477E+03 -0.37483901332E+02  0.18605706072E+03  0.21737567430E+03  0.00000000000E+00 0. -1.
         -4    1    5    5    0  503 -0.36921173981E+02 -0.74889473014E+02  0.19764195631E+03  0.21455523566E+03  0.00000000000E+00 0.  1.
         -3    1    6    6    0  502  0.13249905874E+02  0.15551328836E+02 -0.20797964102E+01  0.20536050919E+02  0.00000000000E+00 0.  1.
<mgrwt>
<rscale>  0 0.18835546E+04</rscale>
<asrwt>0</asrwt>
<pdfrwt beam="1">  1        2 0.16559217E+00 0.18835546E+04</pdfrwt>
<pdfrwt beam="2">  1       -2 0.12677393E+00 0.18835546E+04</pdfrwt>
<totfact> 0.97808664E+00</totfact>
</mgrwt>
</event>
<event>
12    1  0.1536832E-007  0.2534669E+04  0.7818608E-02  0.8390738E-01
          1   -1    0    0  501    0  0.00000000000E+00  0.00000000000E+00  0.21145931795E+04  0.21145931795E+04  0.00000000000E+00 0. -1.
         -1   -1    0    0    0  501 -0.00000000000E+00 -0.00000000000E+00 -0.75954881682E+03  0.75954881682E+03  0.00000000000E+00 0.  1.
         23    2    1    2    0    0  0.26194082880E+03  0.10412659577E+04  0.87876236274E+03  0.13916847245E+04  0.10823719271E+03 0.  0.
        254    2    1    2    0    0 -0.26194082880E+03 -0.10412659577E+04  0.47628199993E+03  0.14824572718E+04  0.90442646293E+03 0.  0.
        -24    2    4    4    0    0 -0.50447381905E+03 -0.25130574655E+03  0.25150558003E+03  0.62243042439E+03  0.80722760539E+02 0.  0.
         24    2    4    4    0    0  0.24253299025E+03 -0.78996021112E+03  0.22477641990E+03  0.86002684741E+03  0.79135028915E+02 0.  0.
         11    1    3    3    0    0  0.25493476430E+03  0.10405141677E+04  0.86789289344E+03  0.13787311346E+04  0.00000000000E+00 0. -1.
        -11    1    3    3    0    0  0.70060644958E+01  0.75179002404E+00  0.10869469302E+02  0.12953589883E+02  0.00000000000E+00 0.  1.
          2    1    6    6  502    0  0.94438500602E+02 -0.36030149481E+03  0.63818411019E+02  0.37790023438E+03  0.00000000000E+00 0. -1.
          3    1    5    5  503    0 -0.99450946563E+02 -0.15438513464E+02  0.42716978014E+02  0.10933242283E+03  0.00000000000E+00 0. -1.
         -4    1    5    5    0  503 -0.40502287248E+03 -0.23586723309E+03  0.20878860202E+03  0.51309800157E+03  0.00000000000E+00 0.  1.
         -1    1    6    6    0  502  0.14809448965E+03 -0.42965871631E+03  0.16095800888E+03  0.48212661302E+03  0.00000000000E+00 0.  1.
<mgrwt>
<rscale>  0 0.25346690E+04</rscale>
<asrwt>0</asrwt>
<pdfrwt beam="1">  1        1 0.32532203E+00 0.25346690E+04</pdfrwt>
<pdfrwt beam="2">  1       -1 0.11685367E+00 0.25346690E+04</pdfrwt>
<totfact> 0.14568187E+00</totfact>
</mgrwt>
</event>
<event>
12    1  0.1583821E-007  0.2433224E+04  0.7818608E-02  0.8427169E-01
         -1   -1    0    0    0  501 -0.00000000000E+00  0.00000000000E+00  0.10642491406E+04  0.10642491406E+04  0.00000000000E+00 0.  1.
          1   -1    0    0  501    0  0.00000000000E+00 -0.00000000000E+00 -0.13907881920E+04  0.13907881920E+04  0.00000000000E+00 0. -1.
         23    2    1    2    0    0  0.11881712923E+03 -0.27085053891E+03 -0.11614962693E+04  0.12028799796E+04  0.10182896013E+03 0.  0.
        254    2    1    2    0    0 -0.11881712923E+03  0.27085053891E+03  0.83495721782E+03  0.12521573531E+04  0.88502370398E+03 0.  0.
        -24    2    4    4    0    0 -0.37664637113E+03  0.22292146257E+03  0.86854166324E+03  0.97582831780E+03  0.79497280907E+02 0.  0.
         24    2    4    4    0    0  0.25782924190E+03  0.47929076341E+02 -0.33584445416E+02  0.27632903526E+03  0.80353633524E+02 0.  0.
         11    1    3    3    0    0  0.30902138479E+02 -0.14508914848E+03 -0.72980739350E+03  0.74473125004E+03  0.00000000000E+00 0. -1.
        -11    1    3    3    0    0  0.87914990754E+02 -0.12576139043E+03 -0.43168887575E+03  0.45814872953E+03  0.00000000000E+00 0.  1.
          4    1    6    6  502    0  0.25722748900E+03  0.58039315407E+02 -0.35334302315E+02  0.26605085256E+03  0.00000000000E+00 0. -1.
          3    1    5    5  503    0 -0.35012768185E+03  0.19062946230E+03  0.82004674078E+03  0.91181447815E+03  0.00000000000E+00 0. -1.
         -4    1    5    5    0  503 -0.26518689276E+02  0.32292000267E+02  0.48494922464E+02  0.64013839652E+02  0.00000000000E+00 0.  1.
         -3    1    6    6    0  502  0.60175290127E+00 -0.10110239067E+02  0.17498568996E+01  0.10278182704E+02  0.00000000000E+00 0.  1.
<mgrwt>
<rscale>  0 0.24332243E+04</rscale>
<asrwt>0</asrwt>
<pdfrwt beam="1">  1        1 0.21396741E+00 0.24332243E+04</pdfrwt>
<pdfrwt beam="2">  1       -1 0.16373064E+00 0.24332243E+04</pdfrwt>
<totfact> 0.19088064E+00</totfact>
</mgrwt>
</event>
<event>
12    1  0.1536832E-007  0.2445317E+04  0.7818608E-02  0.8422730E-01
         -1   -1    0    0    0  501 -0.00000000000E+00  0.00000000000E+00  0.75591761202E+03  0.75591761202E+03  0.00000000000E+00 0.  1.
          1   -1    0    0  501    0  0.00000000000E+00 -0.00000000000E+00 -0.19775885615E+04  0.19775885615E+04  0.00000000000E+00 0. -1.
         23    2    1    2    0    0  0.30021720104E+03  0.71410386227E+03  0.27004537897E+03  0.82557697972E+03  0.92618296383E+02 0.  0.
        254    2    1    2    0    0 -0.30021720104E+03 -0.71410386227E+03 -0.14917163285E+04  0.19079291938E+04  0.90271895412E+03 0.  0.
        -24    2    4    4    0    0 -0.47580295301E+03 -0.55312845262E+03 -0.14849120719E+04  0.16563652658E+04  0.79009476780E+02 0.  0.
         24    2    4    4    0    0  0.17558575197E+03 -0.16097540965E+03 -0.68042565844E+01  0.25156392800E+03  0.80589535023E+02 0.  0.
         11    1    3    3    0    0  0.34392355907E+02  0.12902006719E+03  0.78982137790E+02  0.15513603699E+03  0.00000000000E+00 0. -1.
        -11    1    3    3    0    0  0.26582484514E+03  0.58508379508E+03  0.19106324118E+03  0.67044094273E+03  0.00000000000E+00 0.  1.
          2    1    6    6  502    0  0.32862023496E+01 -0.32089349975E+02  0.14448948465E+02  0.35345404502E+02  0.00000000000E+00 0. -1.
          1    1    5    5  503    0 -0.23254708843E+03 -0.29479534068E+03 -0.84476946716E+03  0.92445545803E+03  0.00000000000E+00 0. -1.
         -2    1    5    5    0  503 -0.24325586458E+03 -0.25833311194E+03 -0.64014260474E+03  0.73190980782E+03  0.00000000000E+00 0.  1.
         -1    1    6    6    0  502  0.17229954962E+03 -0.12888605968E+03 -0.21253205049E+02  0.21621852350E+03  0.00000000000E+00 0.  1.
<mgrwt>
<rscale>  0 0.24453172E+04</rscale>
<asrwt>0</asrwt>
<pdfrwt beam="1">  1        1 0.30424439E+00 0.24453172E+04</pdfrwt>
<pdfrwt beam="2">  1       -1 0.11629502E+00 0.24453172E+04</pdfrwt>
<totfact> 0.18403115E+00</totfact>
</mgrwt>
</event>
<event>
12    1  0.1894923E-007  0.2524484E+04  0.7818608E-02  0.8394315E-01
         -2   -1    0    0    0  501 -0.00000000000E+00  0.00000000000E+00  0.95452217280E+03  0.95452217280E+03  0.00000000000E+00 0.  1.
          2   -1    0    0  501    0  0.00000000000E+00 -0.00000000000E+00 -0.16691648162E+04  0.16691648162E+04  0.00000000000E+00 0. -1.
         23    2    1    2    0    0 -0.94832860725E+03  0.39658091028E+03 -0.70608053224E+03  0.12503910165E+04  0.91238207618E+02 0.  0.
        254    2    1    2    0    0  0.94832860725E+03 -0.39658091028E+03 -0.85621111672E+01  0.13732959725E+04  0.91063985883E+03 0.  0.
        -24    2    4    4    0    0  0.26564817545E+03  0.20653416581E+03 -0.25109660335E+03  0.42722897104E+03  0.79055516673E+02 0.  0.
         24    2    4    4    0    0  0.68268043180E+03 -0.60311507608E+03  0.24253449218E+03  0.94606700141E+03  0.80121309949E+02 0.  0.
         11    1    3    3    0    0 -0.92591420617E+03  0.36984392879E+03 -0.68351677119E+03  0.12088411084E+04  0.00000000000E+00 0. -1.
        -11    1    3    3    0    0 -0.22414401085E+02  0.26736981485E+02 -0.22563761047E+02  0.41549908153E+02  0.00000000000E+00 0.  1.
          4    1    6    6  502    0  0.19503768336E+03 -0.16758123124E+03  0.10602582483E+03  0.27814500270E+03  0.00000000000E+00 0. -1.
          3    1    5    5  503    0  0.27481862329E+02  0.66339552083E+01 -0.48413470657E+02  0.56063591214E+02  0.00000000000E+00 0. -1.
         -4    1    5    5    0  503  0.23816631312E+03  0.19990021060E+03 -0.20268313269E+03  0.37116537983E+03  0.00000000000E+00 0.  1.
         -3    1    6    6    0  502  0.48764274844E+03 -0.43553384484E+03  0.13650866735E+03  0.66792199872E+03  0.00000000000E+00 0.  1.
<mgrwt>
<rscale>  0 0.25244840E+04</rscale>
<asrwt>0</asrwt>
<pdfrwt beam="1">  1        2 0.25679459E+00 0.25244840E+04</pdfrwt>
<pdfrwt beam="2">  1       -2 0.14684957E+00 0.25244840E+04</pdfrwt>
<totfact> 0.28785059E+00</totfact>
</mgrwt>
</event>
<event>
12    1  0.1536832E-007  0.2420665E+04  0.7818608E-02  0.8431807E-01
         -1   -1    0    0    0  501 -0.00000000000E+00  0.00000000000E+00  0.96559152048E+03  0.96559152048E+03  0.00000000000E+00 0.  1.
          1   -1    0    0  501    0  0.00000000000E+00 -0.00000000000E+00 -0.15171066326E+04  0.15171066326E+04  0.00000000000E+00 0. -1.
         23    2    1    2    0    0 -0.23835678308E+03 -0.89396249461E+03  0.23811383414E+03  0.95951538266E+03  0.89379381017E+02 0.  0.
        254    2    1    2    0    0  0.23835678308E+03  0.89396249461E+03 -0.78962894627E+03  0.15231827704E+04  0.91683639843E+03 0.  0.
        -24    2    4    4    0    0  0.25482273664E+03  0.92942246660E+03 -0.28108305235E+03  0.10071030590E+04  0.80548995528E+02 0.  0.
         24    2    4    4    0    0 -0.16465953566E+02 -0.35459971988E+02 -0.50854589392E+03  0.51607971137E+03  0.78681668957E+02 0.  0.
         11    1    3    3    0    0 -0.16239277585E+03 -0.54070124658E+03  0.10380567417E+03  0.57402514727E+03  0.00000000000E+00 0.  1.
        -11    1    3    3    0    0 -0.75964007222E+02 -0.35326124803E+03  0.13430815997E+03  0.38549023539E+03  0.00000000000E+00 0. -1.
          4    1    6    6  502    0  0.17943021404E+02  0.26572250259E+01 -0.32443762611E+03  0.32494428153E+03  0.00000000000E+00 0. -1.
          3    1    5    5  503    0  0.18761380599E+03  0.75767819505E+03 -0.20090026721E+03  0.80600006502E+03  0.00000000000E+00 0. -1.
         -4    1    5    5    0  503  0.67208930657E+02  0.17174427155E+03 -0.80182785143E+02  0.20110299402E+03  0.00000000000E+00 0.  1.
         -3    1    6    6    0  502 -0.34408974970E+02 -0.38117197014E+02 -0.18410826781E+03  0.19113542984E+03  0.00000000000E+00 0.  1.
<mgrwt>
<rscale>  0 0.24206654E+04</rscale>
<asrwt>0</asrwt>
<pdfrwt beam="1">  1        1 0.23340102E+00 0.24206654E+04</pdfrwt>
<pdfrwt beam="2">  1       -1 0.14855254E+00 0.24206654E+04</pdfrwt>
<totfact> 0.20392978E+00</totfact>
</mgrwt>
</event>
<event>
12    1  0.1536832E-007  0.2247935E+04  0.7818608E-02  0.8498737E-01
         -1   -1    0    0    0  501 -0.00000000000E+00  0.00000000000E+00  0.77900506424E+03  0.77900506424E+03  0.00000000000E+00 0.  1.
          1   -1    0    0  501    0  0.00000000000E+00 -0.00000000000E+00 -0.16216884214E+04  0.16216884214E+04  0.00000000000E+00 0. -1.
         23    2    1    2    0    0 -0.44914874356E+03  0.34430192426E+03  0.44892207769E+03  0.72813176541E+03  0.91468175202E+02 0.  0.
        254    2    1    2    0    0  0.44914874356E+03 -0.34430192426E+03 -0.12916054349E+04  0.16725617203E+04  0.89941075142E+03 0.  0.
        -24    2    4    4    0    0  0.18961331337E+02  0.11223582414E+03  0.81544735023E+02  0.16074417717E+03  0.78947668613E+02 0.  0.
         24    2    4    4    0    0  0.43018741223E+03 -0.45653774839E+03 -0.13731501699E+04  0.15118175431E+04  0.81012154135E+02 0.  0.
         13    1    3    3    0    0 -0.15222615464E+03  0.14252401306E+03  0.21576196656E+03  0.30006519737E+03  0.00000000000E+00 0.  1.
        -13    1    3    3    0    0 -0.29692258892E+03  0.20177791119E+03  0.23316011113E+03  0.42806656805E+03  0.00000000000E+00 0. -1.
          2    1    6    6  502    0  0.23400642284E+03 -0.30588210737E+03 -0.83113241809E+03  0.91602618191E+03  0.00000000000E+00 0. -1.
          1    1    5    5  503    0  0.99092663513E+01  0.83491618951E+02  0.95752740774E+02  0.12742696481E+03  0.00000000000E+00 0. -1.
         -2    1    5    5    0  503  0.90520649855E+01  0.28744205188E+02 -0.14208005751E+02  0.33317212366E+02  0.00000000000E+00 0.  1.
         -1    1    6    6    0  502  0.19618098939E+03 -0.15065564102E+03 -0.54201775181E+03  0.59579136117E+03  0.00000000000E+00 0.  1.
<mgrwt>
<rscale>  0 0.22479355E+04</rscale>
<asrwt>0</asrwt>
<pdfrwt beam="1">  1        1 0.24949052E+00 0.22479355E+04</pdfrwt>
<pdfrwt beam="2">  1       -1 0.11984693E+00 0.22479355E+04</pdfrwt>
<totfact> 0.30401797E+00</totfact>
</mgrwt>
</event>
<event>
12    1  0.1536832E-007  0.1482610E+04  0.7818608E-02  0.8896100E-01
         -2   -1    0    0    0  501 -0.00000000000E+00  0.00000000000E+00  0.26017991687E+03  0.26017991687E+03  0.00000000000E+00 0.  1.
          2   -1    0    0  501    0  0.00000000000E+00 -0.00000000000E+00 -0.21121268370E+04  0.21121268370E+04  0.00000000000E+00 0. -1.
         23    2    1    2    0    0 -0.16347970541E+03  0.39476681243E+02  0.10220078342E+03  0.21643987673E+03  0.90095491919E+02 0.  0.
        254    2    1    2    0    0  0.16347970541E+03 -0.39476681243E+02 -0.19541477035E+04  0.21558668771E+04  0.89486575653E+03 0.  0.
        -24    2    4    4    0    0 -0.30218924158E+03 -0.24185872708E+03 -0.78921648312E+03  0.88263484777E+03  0.79797466549E+02 0.  0.
         24    2    4    4    0    0  0.46566894699E+03  0.20238204583E+03 -0.11649312204E+04  0.12732320293E+04  0.79050563707E+02 0.  0.
         11    1    3    3    0    0 -0.11739915764E+03  0.30892763287E+02  0.21748066721E+02  0.12332843729E+03  0.00000000000E+00 0.  1.
        -11    1    3    3    0    0 -0.46080547773E+02  0.85839179552E+01  0.80452716702E+02  0.93111439444E+02  0.00000000000E+00 0. -1.
          2    1    6    6  502    0  0.61757532043E+02  0.38753170822E+02 -0.11156490880E+03  0.13327614149E+03  0.00000000000E+00 0. -1.
          1    1    5    5  503    0 -0.77040452570E+02 -0.88027815564E+02 -0.30897120116E+03  0.33037453109E+03  0.00000000000E+00 0. -1.
         -2    1    5    5    0  503 -0.22514878901E+03 -0.15383091151E+03 -0.48024528196E+03  0.55226031668E+03  0.00000000000E+00 0.  1.
         -1    1    6    6    0  502  0.40391141495E+03  0.16362887501E+03 -0.10533663116E+04  0.11399558879E+04  0.00000000000E+00 0.  1.
<mgrwt>
<rscale>  0 0.14826098E+04</rscale>
<asrwt>0</asrwt>
<pdfrwt beam="1">  1        2 0.32494261E+00 0.14826098E+04</pdfrwt>
<pdfrwt beam="2">  1       -2 0.40027678E-01 0.14826098E+04</pdfrwt>
<totfact> 0.33080374E+01</totfact>
</mgrwt>
</event>
<event>
12    1  0.1536832E-007  0.1594316E+04  0.7818608E-02  0.8824047E-01
          1   -1    0    0  501    0  0.00000000000E+00  0.00000000000E+00  0.25128424425E+04  0.25128424425E+04  0.00000000000E+00 0. -1.
         -1   -1    0    0    0  501 -0.00000000000E+00 -0.00000000000E+00 -0.25288541043E+03  0.25288541043E+03  0.00000000000E+00 0.  1.
         23    2    1    2    0    0  0.93101668277E+02 -0.44485776419E+03  0.12385269884E+04  0.13224510758E+04  0.91440669581E+02 0.  0.
        254    2    1    2    0    0 -0.93101668277E+02  0.44485776419E+03  0.10214300437E+04  0.14432767771E+04  0.91277717442E+03 0.  0.
        -24    2    4    4    0    0  0.72838957619E+02  0.53697656501E+03  0.17878453577E+03  0.57615538270E+03  0.79635228821E+02 0.  0.
         24    2    4    4    0    0 -0.16594062590E+03 -0.92118800815E+02  0.84264550796E+03  0.86712139442E+03  0.76327555945E+02 0.  0.
         11    1    3    3    0    0 -0.50560113150E+01 -0.25034066278E+02  0.30440488740E+02  0.39735262419E+02  0.00000000000E+00 0.  1.
        -11    1    3    3    0    0  0.98157679592E+02 -0.41982369791E+03  0.12080864996E+04  0.12827158134E+04  0.00000000000E+00 0. -1.
          4    1    6    6  502    0 -0.10375156755E+03 -0.87672303847E+02  0.66826010198E+03  0.68192549778E+03  0.00000000000E+00 0. -1.
          1    1    5    5  503    0  0.47133479272E+02  0.36868415742E+03  0.83088530116E+02  0.38085860452E+03  0.00000000000E+00 0. -1.
         -2    1    5    5    0  503  0.25705478347E+02  0.16829240759E+03  0.95696005659E+02  0.19529677818E+03  0.00000000000E+00 0.  1.
         -3    1    6    6    0  502 -0.62189058345E+02 -0.44464969680E+01  0.17438540598E+03  0.18519589664E+03  0.00000000000E+00 0.  1.
<mgrwt>
<rscale>  0 0.15943164E+04</rscale>
<asrwt>0</asrwt>
<pdfrwt beam="1">  1        1 0.38659113E+00 0.15943164E+04</pdfrwt>
<pdfrwt beam="2">  1       -1 0.38905449E-01 0.15943164E+04</pdfrwt>
<totfact> 0.81815272E+00</totfact>
</mgrwt>
</event>
<event>
12    1  0.1536832E-007  0.1201727E+04  0.7818608E-02  0.9111346E-01
         -1   -1    0    0    0  501 -0.00000000000E+00  0.00000000000E+00  0.72629564203E+03  0.72629564203E+03  0.00000000000E+00 0.  1.
          1   -1    0    0  501    0  0.00000000000E+00 -0.00000000000E+00 -0.49709346861E+03  0.49709346861E+03  0.00000000000E+00 0. -1.
         23    2    1    2    0    0 -0.45324166011E+02  0.95654110822E+02  0.28824929364E+03  0.31982338535E+03  0.89416741111E+02 0.  0.
        254    2    1    2    0    0  0.45324166011E+02 -0.95654110822E+02 -0.59047120218E+02  0.90356572529E+03  0.89539961390E+03 0.  0.
        -24    2    4    4    0    0  0.66532029952E+02 -0.29472266438E+03  0.33155061597E+03  0.45570737739E+03  0.80345771197E+02 0.  0.
         24    2    4    4    0    0 -0.21207863941E+02  0.19906855356E+03 -0.39059773618E+03  0.44785834790E+03  0.89064278838E+02 0.  0.
         11    1    3    3    0    0 -0.20426698890E+02  0.31907206076E+02  0.19720199613E+02  0.42710725818E+02  0.00000000000E+00 0. -1.
        -11    1    3    3    0    0 -0.24897467120E+02  0.63746904746E+02  0.26852909403E+03  0.27711265953E+03  0.00000000000E+00 0.  1.
          2    1    6    6  502    0 -0.32163960061E+02  0.19455136199E+02 -0.89703604092E+02  0.97261293629E+02  0.00000000000E+00 0. -1.
          3    1    5    5  503    0  0.21093212402E+02 -0.10449936743E+02  0.15426147720E+02  0.28144108101E+02  0.00000000000E+00 0. -1.
         -4    1    5    5    0  503  0.45438817550E+02 -0.28427272764E+03  0.31612446825E+03  0.42756326929E+03  0.00000000000E+00 0.  1.
         -1    1    6    6    0  502  0.10956096119E+02  0.17961341736E+03 -0.30089413209E+03  0.35059705427E+03  0.00000000000E+00 0.  1.
<mgrwt>
<rscale>  0 0.12017268E+04</rscale>
<asrwt>0</asrwt>
<pdfrwt beam="1">  1        1 0.76475919E-01 0.12017268E+04</pdfrwt>
<pdfrwt beam="2">  1       -1 0.11173779E+00 0.12017268E+04</pdfrwt>
<totfact> 0.32528184E+01</totfact>
</mgrwt>
</event>
<event>
12    1  0.1536832E-007  0.2364890E+04  0.7818608E-02  0.8452766E-01
          4   -1    0    0  501    0  0.00000000000E+00  0.00000000000E+00  0.14433304168E+04  0.14433304168E+04  0.00000000000E+00 0. -1.
         -4   -1    0    0    0  501 -0.00000000000E+00 -0.00000000000E+00 -0.96871559287E+03  0.96871559287E+03  0.00000000000E+00 0.  1.
         23    2    1    2    0    0  0.45659313918E+03 -0.70507936300E+03 -0.36699594988E+03  0.92181877214E+03  0.97209148536E+02 0.  0.
        254    2    1    2    0    0 -0.45659313918E+03  0.70507936300E+03  0.84161077385E+03  0.14902272376E+04  0.89825070112E+03 0.  0.
        -24    2    4    4    0    0 -0.58209797826E+03  0.52813282776E+03  0.20949660458E+03  0.81724097844E+03  0.78940797187E+02 0.  0.
         24    2    4    4    0    0  0.12550483907E+03  0.17694653524E+03  0.63211416928E+03  0.67298625913E+03  0.79250495380E+02 0.  0.
         13    1    3    3    0    0  0.42149126028E+03 -0.59895611706E+03 -0.33621115799E+03  0.80587918164E+03  0.00000000000E+00 0.  1.
        -13    1    3    3    0    0  0.35101878905E+02 -0.10612324594E+03 -0.30784791892E+02  0.11593959049E+03  0.00000000000E+00 0. -1.
          4    1    6    6  502    0  0.97359762662E+02  0.12568623610E+03  0.54760500646E+03  0.57021679775E+03  0.00000000000E+00 0. -1.
          3    1    5    5  503    0 -0.94325001592E+02  0.87177878895E+02  0.46413910650E+01  0.12852521544E+03  0.00000000000E+00 0. -1.
         -4    1    5    5    0  503 -0.48777297667E+03  0.44095494887E+03  0.20485521351E+03  0.68871576300E+03  0.00000000000E+00 0.  1.
         -3    1    6    6    0  502  0.28145076411E+02  0.51260299139E+02  0.84509162816E+02  0.10276946139E+03  0.00000000000E+00 0.  1.
<mgrwt>
<rscale>  0 0.23648904E+04</rscale>
<asrwt>0</asrwt>
<pdfrwt beam="1">  1        4 0.22205083E+00 0.23648904E+04</pdfrwt>
<pdfrwt beam="2">  1       -4 0.14903317E+00 0.23648904E+04</pdfrwt>
<totfact> 0.51649420E-02</totfact>
</mgrwt>
</event>
<event>
12    1  0.1768987E-007  0.1934607E+04  0.7818608E-02  0.8637819E-01
         -1   -1    0    0    0  501 -0.00000000000E+00  0.00000000000E+00  0.41314919457E+03  0.41314919457E+03  0.00000000000E+00 0.  1.
          1   -1    0    0  501    0  0.00000000000E+00 -0.00000000000E+00 -0.22647416021E+04  0.22647416021E+04  0.00000000000E+00 0. -1.
         23    2    1    2    0    0 -0.69719994769E+03  0.18357112102E+03 -0.10102163423E+04  0.12441882931E+04  0.87643178886E+02 0.  0.
        254    2    1    2    0    0  0.69719994769E+03 -0.18357112102E+03 -0.84137606515E+03  0.14337025035E+04  0.90983683268E+03 0.  0.
        -24    2    4    4    0    0  0.81354484406E+03  0.41150596525E+02 -0.83610822300E+03  0.11702791486E+04  0.83233047090E+02 0.  0.
         24    2    4    4    0    0 -0.11634489637E+03 -0.22472171754E+03 -0.52678421525E+01  0.26342335497E+03  0.72994030809E+02 0.  0.
         11    1    3    3    0    0 -0.66120935220E+03  0.19193609214E+03 -0.94471954294E+03  0.11689877184E+04  0.00000000000E+00 0. -1.
        -11    1    3    3    0    0 -0.35990595487E+02 -0.83649711263E+01 -0.65496799405E+02  0.75200574717E+02  0.00000000000E+00 0.  1.
          4    1    6    6  502    0 -0.11685645502E+03 -0.22386425115E+03  0.55205892743E+01  0.25258881790E+03  0.00000000000E+00 0. -1.
          3    1    5    5  503    0  0.78210647639E+03  0.35270273372E+02 -0.82245630640E+03  0.11355038126E+04  0.00000000000E+00 0. -1.
         -4    1    5    5    0  503  0.31438367664E+02  0.58803231536E+01 -0.13651916598E+02  0.34775335923E+02  0.00000000000E+00 0.  1.
         -3    1    6    6    0  502  0.51155864852E+00 -0.85746639825E+00 -0.10788431427E+02  0.10834537070E+02  0.00000000000E+00 0.  1.
<mgrwt>
<rscale>  0 0.19346071E+04</rscale>
<asrwt>0</asrwt>
<pdfrwt beam="1">  1        1 0.34842178E+00 0.19346071E+04</pdfrwt>
<pdfrwt beam="2">  1       -1 0.63561415E-01 0.19346071E+04</pdfrwt>
<totfact> 0.46087785E+00</totfact>
</mgrwt>
</event>
<event>
12    1  0.1536832E-007  0.1144481E+04  0.7818608E-02  0.9162890E-01
          2   -1    0    0  501    0  0.00000000000E+00  0.00000000000E+00  0.12601036094E+04  0.12601036094E+04  0.00000000000E+00 0.  1.
         -2   -1    0    0    0  501 -0.00000000000E+00 -0.00000000000E+00 -0.25986706565E+03  0.25986706565E+03  0.00000000000E+00 0. -1.
         23    2    1    2    0    0  0.76410022419E+02 -0.80222360712E+02 -0.22764551721E+02  0.14569768119E+03  0.91844819155E+02 0.  0.
        254    2    1    2    0    0 -0.76410022419E+02  0.80222360712E+02  0.10230010955E+04  0.13742729938E+04  0.91094505959E+03 0.  0.
        -24    2    4    4    0    0 -0.35764779430E+03 -0.27131888564E+03  0.44131946594E+03  0.63465689574E+03  0.80626433753E+02 0.  0.
         24    2    4    4    0    0  0.28123777188E+03  0.35154124635E+03  0.58168162953E+03  0.73961609810E+03  0.77475946088E+02 0.  0.
         11    1    3    3    0    0  0.31806439463E+02  0.15969575915E+02 -0.17181815291E+02  0.39520775839E+02  0.00000000000E+00 0. -1.
        -11    1    3    3    0    0  0.44603582956E+02 -0.96191936627E+02 -0.55827364298E+01  0.10617690535E+03  0.00000000000E+00 0.  1.
          2    1    6    6  502    0  0.20506625510E+02  0.40060250208E+02  0.99057800248E+02  0.10880162281E+03  0.00000000000E+00 0. -1.
          1    1    5    5  503    0 -0.51120715891E+02 -0.34525504940E+02  0.26573740560E+02  0.67167713762E+02  0.00000000000E+00 0. -1.
         -2    1    5    5    0  503 -0.30652707841E+03 -0.23679338070E+03  0.41474572538E+03  0.56748918198E+03  0.00000000000E+00 0.  1.
         -1    1    6    6    0  502  0.26073114637E+03  0.31148099615E+03  0.48262382928E+03  0.63081447529E+03  0.00000000000E+00 0.  1.
<mgrwt>
<rscale>  0 0.11444814E+04</rscale>
<asrwt>0</asrwt>
<pdfrwt beam="1">  1        2 0.19386209E+00 0.11444814E+04</pdfrwt>
<pdfrwt beam="2">  1       -2 0.39979549E-01 0.11444814E+04</pdfrwt>
<totfact> 0.10220167E+02</totfact>
</mgrwt>
</event>
<event>
12    1  0.1536832E-007  0.1536558E+04  0.7818608E-02  0.8860500E-01
         -1   -1    0    0    0  501 -0.00000000000E+00  0.00000000000E+00  0.48428500984E+03  0.48428500984E+03  0.00000000000E+00 0.  1.
          1   -1    0    0  501    0  0.00000000000E+00 -0.00000000000E+00 -0.12188128434E+04  0.12188128434E+04  0.00000000000E+00 0. -1.
         23    2    1    2    0    0  0.24887059602E+03 -0.39478255140E+03 -0.57040723370E+02  0.47913487102E+03  0.92340370666E+02 0.  0.
        254    2    1    2    0    0 -0.24887059602E+03  0.39478255140E+03 -0.67748711021E+03  0.12239629822E+04  0.90625976461E+03 0.  0.
        -24    2    4    4    0    0 -0.46273616771E+03  0.47497662100E+03 -0.71591877741E+03  0.97912367997E+03  0.80099521993E+02 0.  0.
         24    2    4    4    0    0  0.21386557169E+03 -0.80194069603E+02  0.38431667204E+02  0.24483930227E+03  0.79370771314E+02 0.  0.
         13    1    3    3    0    0  0.35567974354E+02 -0.75913859402E+02 -0.45370780227E+02  0.95323148014E+02  0.00000000000E+00 0. -1.
        -13    1    3    3    0    0  0.21330262167E+03 -0.31886869200E+03 -0.11669943143E+02  0.38381172301E+03  0.00000000000E+00 0.  1.
          2    1    6    6  502    0  0.15156772103E+03 -0.16650540087E+02  0.18019835834E+02  0.15354064292E+03  0.00000000000E+00 0. -1.
          3    1    5    5  503    0 -0.32105195572E+03  0.32681850909E+03 -0.54689739499E+03  0.71342936357E+03  0.00000000000E+00 0. -1.
         -4    1    5    5    0  503 -0.14168421199E+03  0.14815811191E+03 -0.16902138242E+03  0.26569431640E+03  0.00000000000E+00 0.  1.
         -1    1    6    6    0  502  0.62297850657E+02 -0.63543529516E+02  0.20411831370E+02  0.91298659353E+02  0.00000000000E+00 0.  1.
<mgrwt>
<rscale>  0 0.15365582E+04</rscale>
<asrwt>0</asrwt>
<pdfrwt beam="1">  1        1 0.18750967E+00 0.15365582E+04</pdfrwt>
<pdfrwt beam="2">  1       -1 0.74505386E-01 0.15365582E+04</pdfrwt>
<totfact> 0.18102686E+01</totfact>
</mgrwt>
</event>
<event>
12    1  0.1536832E-007  0.1427915E+04  0.7818608E-02  0.8933857E-01
         -2   -1    0    0    0  501 -0.00000000000E+00  0.00000000000E+00  0.35985799374E+03  0.35985799374E+03  0.00000000000E+00 0. -1.
          2   -1    0    0  501    0  0.00000000000E+00 -0.00000000000E+00 -0.14164892813E+04  0.14164892813E+04  0.00000000000E+00 0.  1.
         23    2    1    2    0    0  0.74482437617E+01 -0.14697451249E+01 -0.82795144598E+03  0.83305500100E+03  0.91757295668E+02 0.  0.
        254    2    1    2    0    0 -0.74482437617E+01  0.14697451249E+01 -0.22867984155E+03  0.94329227402E+03  0.91512196335E+03 0.  0.
        -24    2    4    4    0    0 -0.13598667005E+03 -0.40719711343E+03  0.27793173768E+02  0.43771958199E+03  0.80771952642E+02 0.  0.
         24    2    4    4    0    0  0.12853842629E+03  0.40866685855E+03 -0.25647301532E+03  0.50557269203E+03  0.79338584738E+02 0.  0.
         11    1    3    3    0    0  0.24558112072E+02  0.39870538962E+02 -0.37984288548E+03  0.38271840613E+03  0.00000000000E+00 0. -1.
        -11    1    3    3    0    0 -0.17109868310E+02 -0.41340284087E+02 -0.44810856050E+03  0.45033659487E+03  0.00000000000E+00 0.  1.
          2    1    6    6  502    0  0.11052938734E+03  0.27156350200E+03 -0.20616934539E+03  0.35842611521E+03  0.00000000000E+00 0. -1.
          3    1    5    5  503    0 -0.12093976814E+03 -0.35359519139E+03  0.51444827330E+02  0.37723011167E+03  0.00000000000E+00 0. -1.
         -4    1    5    5    0  503 -0.15046901914E+02 -0.53601922034E+02 -0.23651653562E+02  0.60489470317E+02  0.00000000000E+00 0.  1.
         -1    1    6    6    0  502  0.18009038944E+02  0.13710335655E+03 -0.50303669927E+02  0.14714657682E+03  0.00000000000E+00 0.  1.
<mgrwt>
<rscale>  0 0.14279146E+04</rscale>
<asrwt>0</asrwt>
<pdfrwt beam="1">  1        2 0.21792143E+00 0.14279146E+04</pdfrwt>
<pdfrwt beam="2">  1       -2 0.55362768E-01 0.14279146E+04</pdfrwt>
<totfact> 0.42171912E+01</totfact>
</mgrwt>
</event>
<event>
12    1  0.1536832E-007  0.1023096E+04  0.7818608E-02  0.9283570E-01
         -2   -1    0    0    0  501 -0.00000000000E+00  0.00000000000E+00  0.11731583723E+03  0.11731583723E+03  0.00000000000E+00 0.  1.
          2   -1    0    0  501    0  0.00000000000E+00 -0.00000000000E+00 -0.22305729443E+04  0.22305729443E+04  0.00000000000E+00 0. -1.
         23    2    1    2    0    0 -0.54670192660E+02  0.27281196745E+02 -0.19998846882E+03  0.22735526930E+03  0.89229687645E+02 0.  0.
        254    2    1    2    0    0  0.54670192660E+02 -0.27281196745E+02 -0.19132686382E+04  0.21205335122E+04  0.91232253108E+03 0.  0.
        -24    2    4    4    0    0  0.33412231110E+03 -0.30981951291E+03 -0.67901853124E+03  0.82135986085E+03  0.77071433625E+02 0.  0.
         24    2    4    4    0    0 -0.27945211844E+03  0.28253831616E+03 -0.12342501070E+04  0.12991736514E+04  0.80978165032E+02 0.  0.
         11    1    3    3    0    0 -0.45540992723E+02  0.36077960281E+02 -0.20548237923E+03  0.21353830900E+03  0.00000000000E+00 0. -1.
        -11    1    3    3    0    0 -0.91291999376E+01 -0.87967635357E+01  0.54939104160E+01  0.13816960298E+02  0.00000000000E+00 0.  1.
          2    1    6    6  502    0 -0.19026943663E+03  0.15356305740E+03 -0.65764810005E+03  0.70163031193E+03  0.00000000000E+00 0. -1.
          3    1    5    5  503    0  0.25804167347E+03 -0.27860717247E+03 -0.56604132931E+03  0.68162324511E+03  0.00000000000E+00 0. -1.
         -4    1    5    5    0  503  0.76080637633E+02 -0.31212340440E+02 -0.11297720194E+03  0.13973661573E+03  0.00000000000E+00 0.  1.
         -1    1    6    6    0  502 -0.89182681804E+02  0.12897525876E+03 -0.57660200694E+03  0.59754333945E+03  0.00000000000E+00 0.  1.
<mgrwt>
<rscale>  0 0.10230963E+04</rscale>
<asrwt>0</asrwt>
<pdfrwt beam="1">  1        2 0.34316507E+00 0.10230963E+04</pdfrwt>
<pdfrwt beam="2">  1       -2 0.18048590E-01 0.10230963E+04</pdfrwt>
<totfact> 0.12738772E+02</totfact>
</mgrwt>
</event>
<event>
12    1  0.1536832E-007  0.2072441E+04  0.7818608E-02  0.8573482E-01
          2   -1    0    0  501    0  0.00000000000E+00  0.00000000000E+00  0.13430490995E+04  0.13430490995E+04  0.00000000000E+00 0. -1.
         -2   -1    0    0    0  501 -0.00000000000E+00 -0.00000000000E+00 -0.79948873058E+03  0.79948873058E+03  0.00000000000E+00 0.  1.
         23    2    1    2    0    0 -0.37262248590E+03 -0.68432435825E+03 -0.92543850866E+02  0.78947803326E+03  0.86970433890E+02 0.  0.
        254    2    1    2    0    0  0.37262248590E+03  0.68432435825E+03  0.63610421983E+03  0.13530597969E+04  0.90498336510E+03 0.  0.
        -24    2    4    4    0    0  0.35892249339E+03  0.30276177245E+03  0.79911524988E+03  0.93014779878E+03  0.78100562497E+02 0.  0.
         24    2    4    4    0    0  0.13699992506E+02  0.38156258580E+03 -0.16301103006E+03  0.42291199808E+03  0.80649026801E+02 0.  0.
         11    1    3    3    0    0 -0.23710515976E+03 -0.49173063419E+03 -0.34857604792E+02  0.54702186976E+03  0.00000000000E+00 0.  1.
        -11    1    3    3    0    0 -0.13551732614E+03 -0.19259372406E+03 -0.57686246074E+02  0.24245616350E+03  0.00000000000E+00 0. -1.
          2    1    6    6  502    0 -0.23354362465E+02  0.20753276043E+03 -0.59898355501E+02  0.21726271169E+03  0.00000000000E+00 0. -1.
          1    1    5    5  503    0  0.98485600537E+02  0.50166667198E+02  0.23075440205E+03  0.25585875415E+03  0.00000000000E+00 0. -1.
         -2    1    5    5    0  503  0.26043689286E+03  0.25259510525E+03  0.56836084783E+03  0.67428904463E+03  0.00000000000E+00 0.  1.
         -1    1    6    6    0  502  0.37054354971E+02  0.17402982538E+03 -0.10311267455E+03  0.20564928640E+03  0.00000000000E+00 0.  1.
<mgrwt>
<rscale>  0 0.20724407E+04</rscale>
<asrwt>0</asrwt>
<pdfrwt beam="1">  1        2 0.20662294E+00 0.20724407E+04</pdfrwt>
<pdfrwt beam="2">  1       -2 0.12299827E+00 0.20724407E+04</pdfrwt>
<totfact> 0.71979106E+00</totfact>
</mgrwt>
</event>
<event>
12    1  0.1536832E-007  0.1072929E+04  0.7818608E-02  0.9231986E-01
          4   -1    0    0  501    0  0.00000000000E+00  0.00000000000E+00  0.46352610467E+03  0.46352610467E+03  0.00000000000E+00 0. -1.
         -4   -1    0    0    0  501 -0.00000000000E+00 -0.00000000000E+00 -0.62088063655E+03  0.62088063655E+03  0.00000000000E+00 0.  1.
         23    2    1    2    0    0  0.85224546536E+02  0.11235682587E+03 -0.52625749952E+02  0.17583327523E+03  0.90887796036E+02 0.  0.
        254    2    1    2    0    0 -0.85224546536E+02 -0.11235682587E+03 -0.10472878194E+03  0.90857346599E+03  0.89143162704E+03 0.  0.
        -24    2    4    4    0    0 -0.41990724322E+03  0.52837620976E+02  0.14282588987E+03  0.45350353243E+03  0.78436675179E+02 0.  0.
         24    2    4    4    0    0  0.33468269668E+03 -0.16519444685E+03 -0.24755467180E+03  0.45506993356E+03  0.80645000887E+02 0.  0.
         11    1    3    3    0    0  0.89827436010E+02  0.94035434658E+02 -0.11470570554E+02  0.13054962742E+03  0.00000000000E+00 0.  1.
        -11    1    3    3    0    0 -0.46028894741E+01  0.18321391214E+02 -0.41155179398E+02  0.45283647808E+02  0.00000000000E+00 0. -1.
          4    1    6    6  502    0  0.28536212092E+03 -0.15754852527E+03 -0.18417341717E+03  0.37439674873E+03  0.00000000000E+00 0. -1.
          3    1    5    5  503    0 -0.30082842338E+03  0.71245575519E+02  0.11494029307E+03  0.32982562562E+03  0.00000000000E+00 0. -1.
         -4    1    5    5    0  503 -0.11907881984E+03 -0.18407954543E+02  0.27885596799E+02  0.12367790681E+03  0.00000000000E+00 0.  1.
         -3    1    6    6    0  502  0.49320575768E+02 -0.76459215750E+01 -0.63381254638E+02  0.80673184828E+02  0.00000000000E+00 0.  1.
<mgrwt>
<rscale>  0 0.10729294E+04</rscale>
<asrwt>0</asrwt>
<pdfrwt beam="1">  1        4 0.71311709E-01 0.10729294E+04</pdfrwt>
<pdfrwt beam="2">  1       -4 0.95520098E-01 0.10729294E+04</pdfrwt>
<totfact> 0.32732451E+00</totfact>
</mgrwt>
</event>
<event>
12    1  0.1536832E-007  0.1316481E+04  0.7818608E-02  0.9016597E-01
         -2   -1    0    0    0  501 -0.00000000000E+00  0.00000000000E+00  0.54128956251E+03  0.54128956251E+03  0.00000000000E+00 0.  1.
          2   -1    0    0  501    0  0.00000000000E+00 -0.00000000000E+00 -0.80045938818E+03  0.80045938818E+03  0.00000000000E+00 0. -1.
         23    2    1    2    0    0 -0.31618909666E+03 -0.66138045913E+02 -0.22091378046E+03  0.40214338778E+03  0.92556036939E+02 0.  0.
        254    2    1    2    0    0  0.31618909666E+03  0.66138045913E+02 -0.38256045205E+02  0.93960556291E+03  0.88150173165E+03 0.  0.
        -24    2    4    4    0    0  0.28801482848E+01 -0.24977945407E+03 -0.31491555293E+03  0.40971538175E+03  0.79352489808E+02 0.  0.
         24    2    4    4    0    0  0.31330894837E+03  0.31591749998E+03  0.27665950772E+03  0.52989018116E+03  0.79225986626E+02 0.  0.
         13    1    3    3    0    0 -0.25140250877E+03 -0.35831030538E+02 -0.21054026740E+03  0.32987010832E+03  0.00000000000E+00 0. -1.
        -13    1    3    3    0    0 -0.64786587882E+02 -0.30307015375E+02 -0.10373513066E+02  0.72273279459E+02  0.00000000000E+00 0.  1.
          4    1    6    6  502    0  0.27391294579E+03  0.30693759129E+03  0.24808676390E+03  0.48040194550E+03  0.00000000000E+00 0. -1.
          1    1    5    5  503    0 -0.83890257456E+01 -0.81966773902E+02 -0.16491619063E+03  0.18435367560E+03  0.00000000000E+00 0. -1.
         -2    1    5    5    0  503  0.11269174030E+02 -0.16781268016E+03 -0.14999936230E+03  0.22536170615E+03  0.00000000000E+00 0.  1.
         -3    1    6    6    0  502  0.39396002585E+02  0.89799086915E+01  0.28572743821E+02  0.49488235665E+02  0.00000000000E+00 0.  1.
<mgrwt>
<rscale>  0 0.13164806E+04</rscale>
<asrwt>0</asrwt>
<pdfrwt beam="1">  1        2 0.12314760E+00 0.13164806E+04</pdfrwt>
<pdfrwt beam="2">  1       -2 0.83275318E-01 0.13164806E+04</pdfrwt>
<totfact> 0.42559128E+01</totfact>
</mgrwt>
</event>
<event>
12    1  0.1536832E-007  0.1737223E+04  0.7818608E-02  0.8740415E-01
          1   -1    0    0  501    0  0.00000000000E+00  0.00000000000E+00  0.57664404363E+03  0.57664404363E+03  0.00000000000E+00 0. -1.
         -1   -1    0    0    0  501 -0.00000000000E+00 -0.00000000000E+00 -0.13084084181E+04  0.13084084181E+04  0.00000000000E+00 0.  1.
         23    2    1    2    0    0 -0.10818003464E+03 -0.60774200292E+03 -0.44617630797E+03  0.76736849858E+03  0.93422977948E+02 0.  0.
        254    2    1    2    0    0  0.10818003464E+03  0.60774200292E+03 -0.28558806653E+03  0.11176839632E+04  0.88690677965E+03 0.  0.
        -24    2    4    4    0    0 -0.30218786947E+03  0.39425696626E+03  0.96594352060E+02  0.51218165675E+03  0.79015927292E+02 0.  0.
         24    2    4    4    0    0  0.41036790410E+03  0.21348503667E+03 -0.38218241859E+03  0.60550230642E+03  0.81190913337E+02 0.  0.
         11    1    3    3    0    0 -0.68896453471E+02 -0.32920119081E+03 -0.29835929086E+03  0.44959805579E+03  0.00000000000E+00 0.  1.
        -11    1    3    3    0    0 -0.39283581166E+02 -0.27854081211E+03 -0.14781701711E+03  0.31777044279E+03  0.00000000000E+00 0. -1.
          2    1    6    6  502    0  0.29627187391E+03  0.14692484233E+03 -0.31742456922E+03  0.45839097909E+03  0.00000000000E+00 0. -1.
          1    1    5    5  503    0 -0.27008729524E+03  0.32293381035E+03  0.58012325139E+02  0.42496920216E+03  0.00000000000E+00 0. -1.
         -2    1    5    5    0  503 -0.32100574230E+02  0.71323155907E+02  0.38582026920E+02  0.87212454590E+02  0.00000000000E+00 0.  1.
         -1    1    6    6    0  502  0.11409603019E+03  0.66560194335E+02 -0.64757849363E+02  0.14711132733E+03  0.00000000000E+00 0.  1.
<mgrwt>
<rscale>  0 0.17372230E+04</rscale>
<asrwt>0</asrwt>
<pdfrwt beam="1">  1        1 0.88714470E-01 0.17372230E+04</pdfrwt>
<pdfrwt beam="2">  1       -1 0.20129360E+00 0.17372230E+04</pdfrwt>
<totfact> 0.50713993E+00</totfact>
</mgrwt>
</event>
<event>
12    1  0.1536832E-007  0.1558801E+04  0.7818608E-02  0.8846266E-01
          2   -1    0    0  501    0  0.00000000000E+00  0.00000000000E+00  0.96072963947E+03  0.96072963947E+03  0.00000000000E+00 0.  1.
         -2   -1    0    0    0  501 -0.00000000000E+00 -0.00000000000E+00 -0.63229557981E+03  0.63229557981E+03  0.00000000000E+00 0. -1.
         23    2    1    2    0    0 -0.31407657315E+03 -0.17975885636E+03 -0.26643763797E+03  0.45819953489E+03  0.89445282743E+02 0.  0.
        254    2    1    2    0    0  0.31407657315E+03  0.17975885636E+03  0.59487169763E+03  0.11348256844E+04  0.89610248135E+03 0.  0.
        -24    2    4    4    0    0 -0.29717905221E+02  0.36149310881E+03 -0.52970265227E+02  0.37521175105E+03  0.80109846566E+02 0.  0.
         24    2    4    4    0    0  0.34379447837E+03 -0.18173425245E+03  0.64784196286E+03  0.75961393335E+03  0.78052142954E+02 0.  0.
         11    1    3    3    0    0 -0.11812343359E+03 -0.80239050895E+02 -0.15852788022E+03  0.21336011731E+03  0.00000000000E+00 0. -1.
        -11    1    3    3    0    0 -0.19595313955E+03 -0.99519805464E+02 -0.10790975775E+03  0.24483941757E+03  0.00000000000E+00 0.  1.
          4    1    6    6  502    0  0.51914906715E+02 -0.62690826323E+02  0.13074889873E+03  0.15401484267E+03  0.00000000000E+00 0. -1.
          1    1    5    5  503    0  0.27022262738E+02  0.86794005418E+02 -0.15688892522E+02  0.92247186453E+02  0.00000000000E+00 0. -1.
         -2    1    5    5    0  503 -0.56740167959E+02  0.27469910339E+03 -0.37281372705E+02  0.28296456459E+03  0.00000000000E+00 0.  1.
         -3    1    6    6    0  502  0.29187957165E+03 -0.11904342613E+03  0.51709306413E+03  0.60559909067E+03  0.00000000000E+00 0.  1.
<mgrwt>
<rscale>  0 0.15588010E+04</rscale>
<asrwt>0</asrwt>
<pdfrwt beam="1">  1        2 0.14780456E+00 0.15588010E+04</pdfrwt>
<pdfrwt beam="2">  1       -2 0.97276242E-01 0.15588010E+04</pdfrwt>
<totfact> 0.22659437E+01</totfact>
</mgrwt>
</event>
<event>
12    1  0.1536832E-007  0.1504907E+04  0.7818608E-02  0.8881196E-01
          1   -1    0    0  501    0  0.00000000000E+00  0.00000000000E+00  0.12350660893E+04  0.12350660893E+04  0.00000000000E+00 0. -1.
         -1   -1    0    0    0  501 -0.00000000000E+00 -0.00000000000E+00 -0.45842614468E+03  0.45842614468E+03  0.00000000000E+00 0.  1.
         23    2    1    2    0    0 -0.16016316761E+03  0.28418502478E+03  0.63313652633E+03  0.71804645852E+03  0.91189292403E+02 0.  0.
        254    2    1    2    0    0  0.16016316761E+03 -0.28418502478E+03  0.14350341829E+03  0.97544577546E+03  0.90801313935E+03 0.  0.
        -24    2    4    4    0    0  0.43648116242E+03 -0.20417330481E+03  0.35897521776E+03  0.60703979651E+03  0.86206519731E+02 0.  0.
         24    2    4    4    0    0 -0.27631799481E+03 -0.80011719979E+02 -0.21547179947E+03  0.36840597895E+03  0.80878670679E+02 0.  0.
         13    1    3    3    0    0 -0.24165393660E+01  0.84028087048E+01 -0.97269089538E+00  0.87973282430E+01  0.00000000000E+00 0.  1.
        -13    1    3    3    0    0 -0.15774662824E+03  0.27578221608E+03  0.63410921722E+03  0.70924913028E+03  0.00000000000E+00 0. -1.
          2    1    6    6  502    0 -0.57599234782E+01  0.62909670500E+01  0.40705145128E+01  0.94510355674E+01  0.00000000000E+00 0. -1.
          1    1    5    5  503    0  0.55976615957E+02 -0.38541113173E+02  0.18996320364E+02  0.70566699838E+02  0.00000000000E+00 0. -1.
         -2    1    5    5    0  503  0.38050454646E+03 -0.16563219163E+03  0.33997889739E+03  0.53647309667E+03  0.00000000000E+00 0.  1.
         -1    1    6    6    0  502 -0.27055807133E+03 -0.86302687029E+02 -0.21954231398E+03  0.35895494338E+03  0.00000000000E+00 0.  1.
<mgrwt>
<rscale>  0 0.15049074E+04</rscale>
<asrwt>0</asrwt>
<pdfrwt beam="1">  1        1 0.19001017E+00 0.15049074E+04</pdfrwt>
<pdfrwt beam="2">  1       -1 0.70527100E-01 0.15049074E+04</pdfrwt>
<totfact> 0.19792537E+01</totfact>
</mgrwt>
</event>
<event>
12    1  0.1536832E-007  0.1564633E+04  0.7818608E-02  0.8842575E-01
         -1   -1    0    0    0  501 -0.00000000000E+00  0.00000000000E+00  0.32493697146E+03  0.32493697146E+03  0.00000000000E+00 0.  1.
          1   -1    0    0  501    0  0.00000000000E+00 -0.00000000000E+00 -0.18835019372E+04  0.18835019372E+04  0.00000000000E+00 0. -1.
         23    2    1    2    0    0  0.18123749529E+03  0.44128318794E+03 -0.51487725081E+03  0.70852116935E+03  0.96570090408E+02 0.  0.
        254    2    1    2    0    0 -0.18123749529E+03 -0.44128318794E+03 -0.10436877149E+04  0.14999177393E+04  0.96586298031E+03 0.  0.
        -24    2    4    4    0    0 -0.48327441088E+03 -0.36100661687E+03 -0.27772084389E+03  0.66897119359E+03  0.80707230719E+02 0.  0.
         24    2    4    4    0    0  0.30203691559E+03 -0.80276571063E+02 -0.76596687104E+03  0.83094654571E+03  0.78078729841E+02 0.  0.
         11    1    3    3    0    0  0.15626390789E+03  0.40584403357E+03 -0.42179356729E+03  0.60583628309E+03  0.00000000000E+00 0.  1.
        -11    1    3    3    0    0  0.24973587393E+02  0.35439154364E+02 -0.93083683518E+02  0.10268488626E+03  0.00000000000E+00 0. -1.
          2    1    6    6  502    0  0.27566758593E+03 -0.49883370892E+02 -0.63783479515E+03  0.69664495587E+03  0.00000000000E+00 0. -1.
          3    1    5    5  503    0 -0.45267548355E+03 -0.31424673206E+03 -0.23718629839E+03  0.59993619841E+03  0.00000000000E+00 0. -1.
         -4    1    5    5    0  503 -0.30598927333E+02 -0.46759884819E+02 -0.40534545495E+02  0.69034995189E+02  0.00000000000E+00 0.  1.
         -1    1    6    6    0  502  0.26369329658E+02 -0.30393200171E+02 -0.12813207589E+03  0.13430158984E+03  0.00000000000E+00 0.  1.
<mgrwt>
<rscale>  0 0.15646334E+04</rscale>
<asrwt>0</asrwt>
<pdfrwt beam="1">  1        1 0.28976953E+00 0.15646334E+04</pdfrwt>
<pdfrwt beam="2">  1       -1 0.49990304E-01 0.15646334E+04</pdfrwt>
<totfact> 0.13817940E+01</totfact>
</mgrwt>
</event>
<event>
12    1  0.1536832E-007  0.2426033E+04  0.7818608E-02  0.8429821E-01
          1   -1    0    0  501    0  0.00000000000E+00  0.00000000000E+00  0.32798069951E+04  0.32798069951E+04  0.00000000000E+00 0. -1.
         -1   -1    0    0    0  501 -0.00000000000E+00 -0.00000000000E+00 -0.44862661603E+03  0.44862661603E+03  0.00000000000E+00 0.  1.
         23    2    1    2    0    0  0.30105374107E+03 -0.44147888293E+03 -0.15666083120E+03  0.56442003805E+03  0.92143389547E+02 0.  0.
        254    2    1    2    0    0 -0.30105374107E+03  0.44147888293E+03  0.29878412102E+04  0.31640135731E+04  0.89344828265E+03 0.  0.
        -24    2    4    4    0    0  0.14098719527E+02 -0.25227416248E+03  0.97140462237E+03  0.10069972391E+04  0.81089286195E+02 0.  0.
         24    2    4    4    0    0 -0.31515246060E+03  0.69375304541E+03  0.20164365879E+04  0.21570163339E+04  0.78029420084E+02 0.  0.
         11    1    3    3    0    0  0.25435580086E+01 -0.48583788296E+02 -0.10166726559E+02  0.49701272634E+02  0.00000000000E+00 0. -1.
        -11    1    3    3    0    0  0.29851018306E+03 -0.39289509463E+03 -0.14649410464E+03  0.51471876542E+03  0.00000000000E+00 0.  1.
          2    1    6    6  502    0 -0.16776257264E+03  0.30892300773E+03  0.10127216387E+04  0.10719994510E+04  0.00000000000E+00 0. -1.
          3    1    5    5  503    0  0.87346742707E+01 -0.93773787703E+01  0.12911925733E+02  0.18191965077E+02  0.00000000000E+00 0. -1.
         -4    1    5    5    0  503  0.53640452564E+01 -0.24289678371E+03  0.95849269663E+03  0.98880527407E+03  0.00000000000E+00 0.  1.
         -1    1    6    6    0  502 -0.14738988796E+03  0.38483003768E+03  0.10037149492E+04  0.10850168829E+04  0.00000000000E+00 0.  1.
<mgrwt>
<rscale>  0 0.24260327E+04</rscale>
<asrwt>0</asrwt>
<pdfrwt beam="1">  1        1 0.50458568E+00 0.24260327E+04</pdfrwt>
<pdfrwt beam="2">  1       -1 0.69019481E-01 0.24260327E+04</pdfrwt>
<totfact> 0.70311267E-01</totfact>
</mgrwt>
</event>
<event>
12    1  0.1536832E-007  0.2602819E+04  0.7818608E-02  0.8367244E-01
         -2   -1    0    0    0  501 -0.00000000000E+00  0.00000000000E+00  0.70791538135E+03  0.70791538135E+03  0.00000000000E+00 0.  1.
          2   -1    0    0  501    0  0.00000000000E+00 -0.00000000000E+00 -0.23924701958E+04  0.23924701958E+04  0.00000000000E+00 0. -1.
         23    2    1    2    0    0 -0.20103721280E+02 -0.82081803817E+03  0.20101371157E+03  0.85031030855E+03  0.92058118521E+02 0.  0.
        254    2    1    2    0    0  0.20103721280E+02  0.82081803817E+03 -0.18855685260E+04  0.22500752686E+04  0.91286561810E+03 0.  0.
        -24    2    4    4    0    0 -0.78528624438E+02  0.99557533111E+03 -0.14304795934E+04  0.17464183481E+04  0.79800967846E+02 0.  0.
         24    2    4    4    0    0  0.98632345718E+02 -0.17475729294E+03 -0.45508893259E+03  0.50365692055E+03  0.79346745311E+02 0.  0.
         11    1    3    3    0    0  0.31178832431E+02 -0.38956038189E+03  0.73255623499E+02  0.39761262192E+03  0.00000000000E+00 0. -1.
        -11    1    3    3    0    0 -0.51282553711E+02 -0.43125765628E+03  0.12775808807E+03  0.45269768663E+03  0.00000000000E+00 0.  1.
          4    1    6    6  502    0 -0.13274436247E+02 -0.15298226725E+02 -0.31973922355E+02  0.37849413594E+02  0.00000000000E+00 0. -1.
          1    1    5    5  503    0 -0.32862494715E+01  0.28293796834E+03 -0.35311005773E+03  0.45249464774E+03  0.00000000000E+00 0. -1.
         -2    1    5    5    0  503 -0.75242374967E+02  0.71263736277E+03 -0.10773695357E+04  0.12939237003E+04  0.00000000000E+00 0.  1.
         -3    1    6    6    0  502  0.11190678197E+03 -0.15945906621E+03 -0.42311501024E+03  0.46580750696E+03  0.00000000000E+00 0.  1.
<mgrwt>
<rscale>  0 0.26028188E+04</rscale>
<asrwt>0</asrwt>
<pdfrwt beam="1">  1        2 0.36807233E+00 0.26028188E+04</pdfrwt>
<pdfrwt beam="2">  1       -2 0.10891006E+00 0.26028188E+04</pdfrwt>
<totfact> 0.23894697E+00</totfact>
</mgrwt>
</event>
<event>
12    1  0.1536832E-007  0.2638867E+04  0.7818608E-02  0.8355117E-01
          2   -1    0    0  501    0  0.00000000000E+00  0.00000000000E+00  0.35973048164E+04  0.35973048164E+04  0.00000000000E+00 0.  1.
         -2   -1    0    0    0  501 -0.00000000000E+00 -0.00000000000E+00 -0.48394704470E+03  0.48394704470E+03  0.00000000000E+00 0. -1.
         23    2    1    2    0    0  0.54749202992E+03 -0.10195848899E+04  0.12820875791E+04  0.17297741984E+04  0.95233115960E+02 0.  0.
        254    2    1    2    0    0 -0.54749202992E+03  0.10195848899E+04  0.18312701926E+04  0.23514776627E+04  0.91465611534E+03 0.  0.
        -24    2    4    4    0    0 -0.34766453767E+03  0.75138943723E+03  0.48624998117E+03  0.96322325416E+03  0.76832779634E+02 0.  0.
         24    2    4    4    0    0 -0.19982749225E+03  0.26819545269E+03  0.13450202114E+04  0.13882544085E+04  0.79442471059E+02 0.  0.
         13    1    3    3    0    0  0.51139165646E+02 -0.15928502226E+03  0.16451454598E+03  0.23463155887E+03  0.00000000000E+00 0.  1.
        -13    1    3    3    0    0  0.49635286428E+03 -0.86029986766E+03  0.11175730331E+04  0.14951426395E+04  0.00000000000E+00 0. -1.
          2    1    6    6  502    0 -0.39086749403E+02  0.40111348126E+02  0.12904468277E+03  0.14067417808E+03  0.00000000000E+00 0. -1.
          3    1    5    5  503    0 -0.10717572651E+03  0.24670027121E+03  0.11759917991E+03  0.29355958047E+03  0.00000000000E+00 0. -1.
         -4    1    5    5    0  503 -0.24048881116E+03  0.50468916602E+03  0.36865080126E+03  0.66966367369E+03  0.00000000000E+00 0.  1.
         -1    1    6    6    0  502 -0.16074074285E+03  0.22808410457E+03  0.12159755287E+04  0.12475802305E+04  0.00000000000E+00 0.  1.
<mgrwt>
<rscale>  0 0.26388672E+04</rscale>
<asrwt>0</asrwt>
<pdfrwt beam="1">  1        2 0.55343149E+00 0.26388672E+04</pdfrwt>
<pdfrwt beam="2">  1       -2 0.74453394E-01 0.26388672E+04</pdfrwt>
<totfact> 0.99308284E-01</totfact>
</mgrwt>
</event>
<event>
12    1  0.1536832E-007  0.2511501E+04  0.7818608E-02  0.8398900E-01
          1   -1    0    0  501    0  0.00000000000E+00  0.00000000000E+00  0.48291048808E+03  0.48291048808E+03  0.00000000000E+00 0. -1.
         -1   -1    0    0    0  501 -0.00000000000E+00 -0.00000000000E+00 -0.32654275843E+04  0.32654275843E+04  0.00000000000E+00 0.  1.
         23    2    1    2    0    0  0.19553768803E+03  0.87532252374E+03 -0.21464219894E+04  0.23280587291E+04  0.91134962508E+02 0.  0.
        254    2    1    2    0    0 -0.19553768803E+03 -0.87532252374E+03 -0.63609510677E+03  0.14202793433E+04  0.89897270262E+03 0.  0.
        -24    2    4    4    0    0 -0.19840213336E+03 -0.21706491120E+03 -0.69048990690E+03  0.75474876660E+03  0.79930012813E+02 0.  0.
         24    2    4    4    0    0  0.28644453273E+01 -0.65825761255E+03  0.54394800131E+02  0.66553057668E+03  0.81614120654E+02 0.  0.
         13    1    3    3    0    0  0.10770843724E+03  0.51388077388E+03 -0.13691222953E+04  0.14663459403E+04  0.00000000000E+00 0.  1.
        -13    1    3    3    0    0  0.87829250790E+02  0.36144174986E+03 -0.77729969417E+03  0.86171278881E+03  0.00000000000E+00 0. -1.
          4    1    6    6  502    0  0.26637778812E+02 -0.20310956774E+03 -0.10745679257E+02  0.20513053744E+03  0.00000000000E+00 0. -1.
          1    1    5    5  503    0 -0.40755667357E+02 -0.26196197381E+02 -0.58211699755E+02  0.75735507969E+02  0.00000000000E+00 0. -1.
         -2    1    5    5    0  503 -0.15764646600E+03 -0.19086871381E+03 -0.63227820715E+03  0.67901325863E+03  0.00000000000E+00 0.  1.
         -3    1    6    6    0  502 -0.23773333485E+02 -0.45514804481E+03  0.65140479388E+02  0.46040003924E+03  0.00000000000E+00 0.  1.
<mgrwt>
<rscale>  0 0.25115009E+04</rscale>
<asrwt>0</asrwt>
<pdfrwt beam="1">  1        1 0.74293921E-01 0.25115009E+04</pdfrwt>
<pdfrwt beam="2">  1       -1 0.50237347E+00 0.25115009E+04</pdfrwt>
<totfact> 0.59118648E-02</totfact>
</mgrwt>
</event>
<event>
12    1  0.1536832E-007  0.2332256E+04  0.7818608E-02  0.8465310E-01
         -1   -1    0    0    0  501 -0.00000000000E+00  0.00000000000E+00  0.10096995428E+04  0.10096995428E+04  0.00000000000E+00 0.  1.
          1   -1    0    0  501    0  0.00000000000E+00 -0.00000000000E+00 -0.13467916198E+04  0.13467916198E+04  0.00000000000E+00 0. -1.
         23    2    1    2    0    0 -0.42047784088E+03  0.13205915676E+03  0.75233195785E+03  0.87618021981E+03  0.86296971057E+02 0.  0.
        254    2    1    2    0    0  0.42047784088E+03 -0.13205915676E+03 -0.10894240349E+04  0.14803109428E+04  0.90013028161E+03 0.  0.
        -24    2    4    4    0    0 -0.13345564141E+03 -0.88916333698E+01 -0.84155795865E+03  0.85588110505E+03  0.80144861606E+02 0.  0.
         24    2    4    4    0    0  0.55393348230E+03 -0.12316752339E+03 -0.24786607628E+03  0.62442983773E+03  0.80389606594E+02 0.  0.
         13    1    3    3    0    0 -0.82791431539E+02  0.52886782410E+02  0.12113637069E+03  0.15596619247E+03  0.00000000000E+00 0. -1.
        -13    1    3    3    0    0 -0.33768640934E+03  0.79172374353E+02  0.63119558716E+03  0.72021402733E+03  0.00000000000E+00 0.  1.
          4    1    6    6  502    0  0.30110932143E+03 -0.62642863428E+02 -0.17752319803E+03  0.35511327437E+03  0.00000000000E+00 0. -1.
          3    1    5    5  503    0 -0.24540877307E+02 -0.65206840311E+01 -0.40998927297E+03  0.41077485066E+03  0.00000000000E+00 0. -1.
         -4    1    5    5    0  503 -0.10891476411E+03 -0.23709493387E+01 -0.43156868568E+03  0.44510625439E+03  0.00000000000E+00 0.  1.
         -3    1    6    6    0  502  0.25282416087E+03 -0.60524659965E+02 -0.70342878241E+02  0.26931656336E+03  0.00000000000E+00 0.  1.
<mgrwt>
<rscale>  0 0.23322563E+04</rscale>
<asrwt>0</asrwt>
<pdfrwt beam="1">  1        1 0.20719871E+00 0.23322563E+04</pdfrwt>
<pdfrwt beam="2">  1       -1 0.15533839E+00 0.23322563E+04</pdfrwt>
<totfact> 0.23954910E+00</totfact>
</mgrwt>
</event>
<event>
12    1  0.1536832E-007  0.1642687E+04  0.7818608E-02  0.8794745E-01
          2   -1    0    0  501    0  0.00000000000E+00  0.00000000000E+00  0.20491845993E+04  0.20491845993E+04  0.00000000000E+00 0. -1.
         -2   -1    0    0    0  501 -0.00000000000E+00 -0.00000000000E+00 -0.32920649910E+03  0.32920649910E+03  0.00000000000E+00 0.  1.
         23    2    1    2    0    0  0.55834044623E+03 -0.50352475769E+02  0.47514648292E+03  0.74058520770E+03  0.91776053038E+02 0.  0.
        254    2    1    2    0    0 -0.55834044623E+03  0.50352475769E+02  0.12448316172E+04  0.16378058907E+04  0.90472258426E+03 0.  0.
        -24    2    4    4    0    0 -0.74248564387E+03  0.80662648097E+02  0.59803763240E+03  0.96006777232E+03  0.79307777256E+02 0.  0.
         24    2    4    4    0    0  0.18414519764E+03 -0.30310172328E+02  0.64679398484E+03  0.67773811833E+03  0.78475077949E+02 0.  0.
         13    1    3    3    0    0  0.30320480263E+03 -0.26792282127E+02  0.19784788255E+03  0.36303548497E+03  0.00000000000E+00 0.  1.
        -13    1    3    3    0    0  0.25513564360E+03 -0.23560193642E+02  0.27729860037E+03  0.37754972272E+03  0.00000000000E+00 0. -1.
          2    1    6    6  502    0  0.15115074030E+03 -0.22946641829E+01  0.40911608375E+03  0.43615109969E+03  0.00000000000E+00 0. -1.
          3    1    5    5  503    0 -0.12192640880E+02  0.99202583279E+01  0.23036692664E+02  0.27888370799E+02  0.00000000000E+00 0. -1.
         -4    1    5    5    0  503 -0.73029300299E+03  0.70742389769E+02  0.57500093974E+03  0.93217940153E+03  0.00000000000E+00 0.  1.
         -1    1    6    6    0  502  0.32994457338E+02 -0.28015508145E+02  0.23767790109E+03  0.24158701864E+03  0.00000000000E+00 0.  1.
<mgrwt>
<rscale>  0 0.16426867E+04</rscale>
<asrwt>0</asrwt>
<pdfrwt beam="1">  1        2 0.31525916E+00 0.16426867E+04</pdfrwt>
<pdfrwt beam="2">  1       -2 0.50647155E-01 0.16426867E+04</pdfrwt>
<totfact> 0.22104819E+01</totfact>
</mgrwt>
</event>
<event>
12    1  0.1536832E-007  0.1234386E+04  0.7818608E-02  0.9083280E-01
          2   -1    0    0  501    0  0.00000000000E+00  0.00000000000E+00  0.54159576490E+03  0.54159576490E+03  0.00000000000E+00 0. -1.
         -2   -1    0    0    0  501 -0.00000000000E+00 -0.00000000000E+00 -0.70334187925E+03  0.70334187925E+03  0.00000000000E+00 0.  1.
         23    2    1    2    0    0 -0.50430814005E+02  0.11887641804E+03 -0.28117518472E+03  0.32298632292E+03  0.92659648820E+02 0.  0.
        254    2    1    2    0    0  0.50430814005E+02 -0.11887641804E+03  0.11942907037E+03  0.92195132123E+03  0.90501716343E+03 0.  0.
        -24    2    4    4    0    0  0.13235263179E+03  0.18091074595E+03 -0.30650833587E+03  0.38875217551E+03  0.83276508472E+02 0.  0.
         24    2    4    4    0    0 -0.81921817780E+02 -0.29978716399E+03  0.42593740624E+03  0.53319914573E+03  0.79341836676E+02 0.  0.
         11    1    3    3    0    0 -0.58584136404E+02  0.39879778811E+02 -0.80964132237E+02  0.10759966777E+03  0.00000000000E+00 0. -1.
        -11    1    3    3    0    0  0.81533223988E+01  0.78996639231E+02 -0.20021105249E+03  0.21538665514E+03  0.00000000000E+00 0.  1.
          2    1    6    6  502    0 -0.13024773140E+02 -0.19429084236E+03  0.25576388510E+03  0.32145565956E+03  0.00000000000E+00 0. -1.
          1    1    5    5  503    0 -0.90314895172E+01  0.34204378740E+02 -0.46054033073E+02  0.58073068545E+02  0.00000000000E+00 0. -1.
         -2    1    5    5    0  503  0.14138412130E+03  0.14670636721E+03 -0.26045430279E+03  0.33067910696E+03  0.00000000000E+00 0.  1.
         -1    1    6    6    0  502 -0.68897044641E+02 -0.10549632163E+03  0.17017352114E+03  0.21174348617E+03  0.00000000000E+00 0.  1.
<mgrwt>
<rscale>  0 0.12343856E+04</rscale>
<asrwt>0</asrwt>
<pdfrwt beam="1">  1        2 0.83322426E-01 0.12343856E+04</pdfrwt>
<pdfrwt beam="2">  1       -2 0.10820644E+00 0.12343856E+04</pdfrwt>
<totfact> 0.37739876E+01</totfact>
</mgrwt>
</event>
<event>
12    1  0.1536832E-007  0.1398444E+04  0.7818608E-02  0.8954945E-01
         -4   -1    0    0    0  501 -0.00000000000E+00  0.00000000000E+00  0.58555034628E+03  0.58555034628E+03  0.00000000000E+00 0.  1.
          4   -1    0    0  501    0  0.00000000000E+00 -0.00000000000E+00 -0.83496086795E+03  0.83496086795E+03  0.00000000000E+00 0. -1.
         23    2    1    2    0    0  0.84946514907E+02 -0.39885929672E+03  0.10363187394E+03  0.43064371975E+03  0.91704956696E+02 0.  0.
        254    2    1    2    0    0 -0.84946514907E+02  0.39885929672E+03 -0.35304239562E+03  0.98986749448E+03  0.82999643044E+03 0.  0.
        -24    2    4    4    0    0 -0.40168314341E+03  0.17228332967E+03 -0.38781359900E+03  0.59070393304E+03  0.86607479818E+02 0.  0.
         24    2    4    4    0    0  0.31673662851E+03  0.22657596705E+03  0.34771203377E+02  0.39916356144E+03  0.80397459611E+02 0.  0.
         13    1    3    3    0    0  0.42386897727E+02 -0.10462550101E+03  0.66555140574E+02  0.13104476830E+03  0.00000000000E+00 0.  1.
        -13    1    3    3    0    0  0.42559617180E+02 -0.29423379571E+03  0.37076733371E+02  0.29959895145E+03  0.00000000000E+00 0. -1.
          2    1    6    6  502    0  0.21375109902E+03  0.18920403247E+03  0.45573710539E+02  0.28907552876E+03  0.00000000000E+00 0. -1.
          3    1    5    5  503    0 -0.18679897139E+03  0.84501643946E+02 -0.23938968209E+03  0.31518534774E+03  0.00000000000E+00 0. -1.
         -4    1    5    5    0  503 -0.21488417202E+03  0.87781685722E+02 -0.14842391691E+03  0.27551858530E+03  0.00000000000E+00 0.  1.
         -1    1    6    6    0  502  0.10298552948E+03  0.37371934582E+02 -0.10802507162E+02  0.11008803268E+03  0.00000000000E+00 0.  1.
<mgrwt>
<rscale>  0 0.13984443E+04</rscale>
<asrwt>0</asrwt>
<pdfrwt beam="1">  1        4 0.12845552E+00 0.13984443E+04</pdfrwt>
<pdfrwt beam="2">  1       -4 0.90084669E-01 0.13984443E+04</pdfrwt>
<totfact> 0.91584532E-01</totfact>
</mgrwt>
</event>
<event>
12    1  0.1536832E-007  0.1999536E+04  0.7818608E-02  0.8606837E-01
          1   -1    0    0  501    0  0.00000000000E+00  0.00000000000E+00  0.95632550597E+03  0.95632550597E+03  0.00000000000E+00 0. -1.
         -1   -1    0    0    0  501 -0.00000000000E+00 -0.00000000000E+00 -0.10451843784E+04  0.10451843784E+04  0.00000000000E+00 0.  1.
         23    2    1    2    0    0 -0.31235912765E+03 -0.41819639573E+03  0.58452471920E+03  0.79076823345E+03  0.10577713198E+03 0.  0.
        254    2    1    2    0    0  0.31235912765E+03  0.41819639573E+03 -0.67338359163E+03  0.12107416509E+04  0.86022871015E+03 0.  0.
        -24    2    4    4    0    0  0.59066553437E+03  0.34155436813E+03 -0.35523659036E+03  0.77344469774E+03  0.80489163563E+02 0.  0.
         24    2    4    4    0    0 -0.27830640672E+03  0.76642027607E+02 -0.31814700127E+03  0.43729695318E+03  0.81747504099E+02 0.  0.
         13    1    3    3    0    0 -0.69513960244E+02 -0.17443861764E+03  0.18691089999E+03  0.26494661071E+03  0.00000000000E+00 0. -1.
        -13    1    3    3    0    0 -0.24284516741E+03 -0.24375777810E+03  0.39761381921E+03  0.52582162274E+03  0.00000000000E+00 0.  1.
          2    1    6    6  502    0 -0.88063197461E+02  0.60041049998E+02 -0.87838828247E+02  0.13811485865E+03  0.00000000000E+00 0. -1.
          1    1    5    5  503    0  0.26160701438E+03  0.13636331555E+03 -0.19625325696E+03  0.35432827246E+03  0.00000000000E+00 0. -1.
         -2    1    5    5    0  503  0.32905851999E+03  0.20519105258E+03 -0.15898333340E+03  0.41911642528E+03  0.00000000000E+00 0.  1.
         -1    1    6    6    0  502 -0.19024320926E+03  0.16600977610E+02 -0.23030817302E+03  0.29918209453E+03  0.00000000000E+00 0.  1.
<mgrwt>
<rscale>  0 0.19995364E+04</rscale>
<asrwt>0</asrwt>
<pdfrwt beam="1">  1        1 0.14712700E+00 0.19995364E+04</pdfrwt>
<pdfrwt beam="2">  1       -1 0.16079760E+00 0.19995364E+04</pdfrwt>
<totfact> 0.43803516E+00</totfact>
</mgrwt>
</event>
<event>
12    1  0.1536832E-007  0.1144994E+04  0.7818608E-02  0.9162414E-01
         -1   -1    0    0    0  501 -0.00000000000E+00  0.00000000000E+00  0.60171712654E+03  0.60171712654E+03  0.00000000000E+00 0.  1.
          1   -1    0    0  501    0  0.00000000000E+00 -0.00000000000E+00 -0.54469591737E+03  0.54469591737E+03  0.00000000000E+00 0. -1.
         23    2    1    2    0    0 -0.11549079566E+03  0.57265828660E+01  0.79135557076E+02  0.16723525563E+03  0.91292259799E+02 0.  0.
        254    2    1    2    0    0  0.11549079566E+03 -0.57265828660E+01 -0.22114347900E+02  0.97917778828E+03  0.97207467771E+03 0.  0.
        -24    2    4    4    0    0  0.16307983984E+03  0.42067784370E+03 -0.20879407316E+03  0.50375558626E+03  0.81300943112E+02 0.  0.
         24    2    4    4    0    0 -0.47589044182E+02 -0.42640442657E+03  0.18667972526E+03  0.47542220202E+03  0.84211033870E+02 0.  0.
         13    1    3    3    0    0  0.13958699958E+02 -0.94140631751E+01  0.66477807294E+01  0.18101460676E+02  0.00000000000E+00 0. -1.
        -13    1    3    3    0    0 -0.12944949562E+03  0.15140646041E+02  0.72487776347E+02  0.14913379496E+03  0.00000000000E+00 0.  1.
          4    1    6    6  502    0 -0.48895645233E+02 -0.35758828273E+03  0.18723360839E+03  0.40659142659E+03  0.00000000000E+00 0. -1.
          3    1    5    5  503    0  0.15428428474E+03  0.41218761689E+03 -0.21524701984E+03  0.48993219080E+03  0.00000000000E+00 0. -1.
         -4    1    5    5    0  503  0.87955551020E+01  0.84902268150E+01  0.64529466835E+01  0.13823395452E+02  0.00000000000E+00 0.  1.
         -3    1    6    6    0  502  0.13066010511E+01 -0.68816143842E+02 -0.55388312856E+00  0.68830775429E+02  0.00000000000E+00 0.  1.
<mgrwt>
<rscale>  0 0.11449941E+04</rscale>
<asrwt>0</asrwt>
<pdfrwt beam="1">  1        1 0.83799372E-01 0.11449941E+04</pdfrwt>
<pdfrwt beam="2">  1       -1 0.92571865E-01 0.11449941E+04</pdfrwt>
<totfact> 0.44358956E+01</totfact>
</mgrwt>
</event>
<event>
12    1  0.1536832E-007  0.3099858E+04  0.7818608E-02  0.8215777E-01
         -2   -1    0    0    0  501 -0.00000000000E+00  0.00000000000E+00  0.80956965724E+03  0.80956965724E+03  0.00000000000E+00 0.  1.
          2   -1    0    0  501    0  0.00000000000E+00 -0.00000000000E+00 -0.29673544615E+04  0.29673544615E+04  0.00000000000E+00 0. -1.
         23    2    1    2    0    0 -0.16812127650E+02  0.31112528419E+02 -0.27190202517E+04  0.27208512424E+04  0.93325865946E+02 0.  0.
        254    2    1    2    0    0  0.16812127650E+02 -0.31112528419E+02  0.56123544738E+03  0.10560728764E+04  0.89389823568E+03 0.  0.
        -24    2    4    4    0    0 -0.14501783966E+03 -0.37638725886E+03  0.51617372345E+02  0.41456870667E+03  0.80655545196E+02 0.  0.
         24    2    4    4    0    0  0.16182996731E+03  0.34527473044E+03  0.50961807504E+03  0.64150416970E+03  0.80083953070E+02 0.  0.
         13    1    3    3    0    0 -0.10012411898E+02  0.62106405833E+02 -0.21724984176E+04  0.21734090338E+04  0.00000000000E+00 0. -1.
        -13    1    3    3    0    0 -0.67997157518E+01 -0.30993877414E+02 -0.54652183411E+03  0.54744220857E+03  0.00000000000E+00 0.  1.
          2    1    6    6  502    0  0.29384375944E+02  0.58202908172E+02  0.43854512412E+02  0.78576321676E+02  0.00000000000E+00 0. -1.
          1    1    5    5  503    0 -0.32403306967E+02 -0.26694413629E+02 -0.69393608965E+01  0.42552564565E+02  0.00000000000E+00 0. -1.
         -2    1    5    5    0  503 -0.11261453270E+03 -0.34969284523E+03  0.58556733242E+02  0.37201614211E+03  0.00000000000E+00 0.  1.
         -1    1    6    6    0  502  0.13244559137E+03  0.28707182227E+03  0.46576356262E+03  0.56292784802E+03  0.00000000000E+00 0.  1.
<mgrwt>
<rscale>  0 0.30998581E+04</rscale>
<asrwt>0</asrwt>
<pdfrwt beam="1">  1        2 0.45651607E+00 0.30998581E+04</pdfrwt>
<pdfrwt beam="2">  1       -2 0.12454918E+00 0.30998581E+04</pdfrwt>
<totfact> 0.74922430E-01</totfact>
</mgrwt>
</event>
<event>
12    1  0.1536832E-007  0.2812236E+04  0.7818608E-02  0.8299480E-01
         -2   -1    0    0    0  501 -0.00000000000E+00  0.00000000000E+00  0.96295654327E+03  0.96295654327E+03  0.00000000000E+00 0.  1.
          2   -1    0    0  501    0  0.00000000000E+00 -0.00000000000E+00 -0.20532263843E+04  0.20532263843E+04  0.00000000000E+00 0. -1.
         23    2    1    2    0    0  0.19343374912E+03 -0.61666160226E+03 -0.15477005198E+04  0.16800344965E+04  0.97215552489E+02 0.  0.
        254    2    1    2    0    0 -0.19343374912E+03  0.61666160226E+03  0.45743067872E+03  0.13361484311E+04  0.10762721110E+04 0.  0.
        -24    2    4    4    0    0  0.34984789768E+03  0.54631159841E+03  0.63373554592E+02  0.65677746795E+03  0.80563769310E+02 0.  0.
         24    2    4    4    0    0 -0.54328164679E+03  0.70350003848E+02  0.39405712413E+03  0.67937096311E+03  0.78484505810E+02 0.  0.
         11    1    3    3    0    0  0.86452916875E+02 -0.28892221323E+03 -0.84754586098E+03  0.89960221131E+03  0.00000000000E+00 0. -1.
        -11    1    3    3    0    0  0.10698083224E+03 -0.32773938903E+03 -0.70015465878E+03  0.78043228522E+03  0.00000000000E+00 0.  1.
          4    1    6    6  502    0 -0.26522328432E+03  0.33685109810E+02  0.24056155763E+03  0.35964974653E+03  0.00000000000E+00 0. -1.
          1    1    5    5  503    0  0.27452965692E+03  0.47090454672E+03  0.33607730408E+02  0.54612004559E+03  0.00000000000E+00 0. -1.
         -2    1    5    5    0  503  0.75318240758E+02  0.75407051687E+02  0.29765824185E+02  0.11065742237E+03  0.00000000000E+00 0.  1.
         -3    1    6    6    0  502 -0.27805836247E+03  0.36664894038E+02  0.15349556650E+03  0.31972121658E+03  0.00000000000E+00 0.  1.
<mgrwt>
<rscale>  0 0.28122360E+04</rscale>
<asrwt>0</asrwt>
<pdfrwt beam="1">  1        2 0.31588098E+00 0.28122360E+04</pdfrwt>
<pdfrwt beam="2">  1       -2 0.14814716E+00 0.28122360E+04</pdfrwt>
<totfact> 0.16797510E+00</totfact>
</mgrwt>
</event>
<event>
12    1  0.1536832E-007  0.1700598E+04  0.7818608E-02  0.8761023E-01
          1   -1    0    0  501    0  0.00000000000E+00  0.00000000000E+00  0.14800595432E+04  0.14800595432E+04  0.00000000000E+00 0. -1.
         -1   -1    0    0    0  501 -0.00000000000E+00 -0.00000000000E+00 -0.48849948386E+03  0.48849948386E+03  0.00000000000E+00 0.  1.
         23    2    1    2    0    0 -0.49075598723E+03  0.25959556853E+03  0.63746271271E+02  0.56613977074E+03  0.90660656893E+02 0.  0.
        254    2    1    2    0    0  0.49075598723E+03 -0.25959556853E+03  0.92781378811E+03  0.14024192564E+04  0.89314615096E+03 0.  0.
        -24    2    4    4    0    0  0.71876805358E+03 -0.33445137776E+03  0.74083019019E+03  0.10879168551E+04  0.79047289032E+02 0.  0.
         24    2    4    4    0    0 -0.22801206635E+03  0.74855809221E+02  0.18698359792E+03  0.31450240129E+03  0.79724525410E+02 0.  0.
         11    1    3    3    0    0 -0.39925537908E+03  0.21601556138E+03  0.16311446351E+02  0.45423963253E+03  0.00000000000E+00 0. -1.
        -11    1    3    3    0    0 -0.91500608153E+02  0.43580007155E+02  0.47434824921E+02  0.11190013821E+03  0.00000000000E+00 0.  1.
          2    1    6    6  502    0  0.17135312476E+01  0.15518943998E+02  0.11186708301E+02  0.19207192788E+02  0.00000000000E+00 0. -1.
          3    1    5    5  503    0  0.37628817059E+03 -0.13604762838E+03  0.39642831002E+03  0.56325584728E+03  0.00000000000E+00 0. -1.
         -4    1    5    5    0  503  0.34247988299E+03 -0.19840374938E+03  0.34440188017E+03  0.52466100778E+03  0.00000000000E+00 0.  1.
         -1    1    6    6    0  502 -0.22972559760E+03  0.59336865222E+02  0.17579688962E+03  0.29529520850E+03  0.00000000000E+00 0.  1.
<mgrwt>
<rscale>  0 0.17005979E+04</rscale>
<asrwt>0</asrwt>
<pdfrwt beam="1">  1        1 0.22770147E+00 0.17005979E+04</pdfrwt>
<pdfrwt beam="2">  1       -1 0.75153767E-01 0.17005979E+04</pdfrwt>
<totfact> 0.11440493E+01</totfact>
</mgrwt>
</event>
<event>
12    1  0.1814760E-007  0.1662184E+04  0.7818608E-02  0.8783231E-01
          2   -1    0    0  501    0  0.00000000000E+00  0.00000000000E+00  0.28748897886E+04  0.28748897886E+04  0.00000000000E+00 0. -1.
         -2   -1    0    0    0  501 -0.00000000000E+00 -0.00000000000E+00 -0.24025743598E+03  0.24025743598E+03  0.00000000000E+00 0.  1.
         23    2    1    2    0    0 -0.43399006482E+03  0.13766993488E+03  0.16530914811E+04  0.17171067522E+04  0.91889968461E+02 0.  0.
        254    2    1    2    0    0  0.43399006482E+03 -0.13766993488E+03  0.98154087149E+03  0.13980404723E+04  0.88532157578E+03 0.  0.
        -24    2    4    4    0    0  0.36220374135E+03  0.11157450507E+03  0.10499374087E+04  0.11191200822E+04  0.80129743318E+02 0.  0.
         24    2    4    4    0    0  0.71786323464E+02 -0.24924443995E+03 -0.68396537219E+02  0.27892039012E+03  0.76435794225E+02 0.  0.
         11    1    3    3    0    0 -0.32410874018E+03  0.14169645770E+03  0.12167653426E+04  0.12671394006E+04  0.00000000000E+00 0. -1.
        -11    1    3    3    0    0 -0.10988132463E+03 -0.40265228218E+01  0.43632613855E+03  0.44996735167E+03  0.00000000000E+00 0.  1.
          2    1    6    6  502    0  0.66089102932E+02 -0.18399326172E+03 -0.82034206459E+02  0.21201627512E+03  0.00000000000E+00 0. -1.
          3    1    5    5  503    0  0.28385969832E+03  0.64444116942E+02  0.86790706250E+03  0.91541905249E+03  0.00000000000E+00 0. -1.
         -4    1    5    5    0  503  0.78344043037E+02  0.47130388133E+02  0.18203034621E+03  0.20370102971E+03  0.00000000000E+00 0.  1.
         -1    1    6    6    0  502  0.56972205326E+01 -0.65251178232E+02  0.13637669240E+02  0.66904115006E+02  0.00000000000E+00 0.  1.
<mgrwt>
<rscale>  0 0.16621837E+04</rscale>
<asrwt>0</asrwt>
<pdfrwt beam="1">  1        2 0.44229071E+00 0.16621837E+04</pdfrwt>
<pdfrwt beam="2">  1       -2 0.36962685E-01 0.16621837E+04</pdfrwt>
<totfact> 0.13760767E+01</totfact>
</mgrwt>
</event>
<event>
12    1  0.1536832E-007  0.2232112E+04  0.7818608E-02  0.8505180E-01
          1   -1    0    0  501    0  0.00000000000E+00  0.00000000000E+00  0.23844436407E+04  0.23844436407E+04  0.00000000000E+00 0. -1.
         -1   -1    0    0    0  501 -0.00000000000E+00 -0.00000000000E+00 -0.52237812297E+03  0.52237812297E+03  0.00000000000E+00 0.  1.
         23    2    1    2    0    0  0.11388010709E+03  0.47185885918E+03  0.18210762800E+04  0.18869615807E+04  0.93197252748E+02 0.  0.
        254    2    1    2    0    0 -0.11388010709E+03 -0.47185885918E+03  0.40989237715E+02  0.10198601829E+04  0.89599956096E+03 0.  0.
        -24    2    4    4    0    0 -0.33761412867E+03 -0.63941860539E+03  0.42644422361E+02  0.72890216474E+03  0.81488442182E+02 0.  0.
         24    2    4    4    0    0  0.22373402158E+03  0.16755974621E+03 -0.16551846459E+01  0.29095801814E+03  0.80750527699E+02 0.  0.
         13    1    3    3    0    0  0.12140272085E+03  0.32499559181E+03  0.13078855603E+04  0.13531169182E+04  0.00000000000E+00 0. -1.
        -13    1    3    3    0    0 -0.75226137607E+01  0.14686326737E+03  0.51319071965E+03  0.53384466257E+03  0.00000000000E+00 0.  1.
          4    1    6    6  502    0  0.15152905482E+03  0.98430198408E+02 -0.37907022154E+02  0.18462529822E+03  0.00000000000E+00 0. -1.
          1    1    5    5  503    0 -0.31957693731E+03 -0.63187587559E+03  0.40903369960E+02  0.70927401383E+03  0.00000000000E+00 0. -1.
         -2    1    5    5    0  503 -0.18037191355E+02 -0.75427297983E+01  0.17410524004E+01  0.19628150912E+02  0.00000000000E+00 0.  1.
         -3    1    6    6    0  502  0.72204966754E+02  0.69129547802E+02  0.36251837508E+02  0.10633271992E+03  0.00000000000E+00 0.  1.
<mgrwt>
<rscale>  0 0.22321122E+04</rscale>
<asrwt>0</asrwt>
<pdfrwt beam="1">  1        1 0.36683748E+00 0.22321122E+04</pdfrwt>
<pdfrwt beam="2">  1       -1 0.80365866E-01 0.22321122E+04</pdfrwt>
<totfact> 0.22868223E+00</totfact>
</mgrwt>
</event>
<event>
12    1  0.1536832E-007  0.1038356E+04  0.7818608E-02  0.9267449E-01
          2   -1    0    0  501    0  0.00000000000E+00  0.00000000000E+00  0.22286776106E+04  0.22286776106E+04  0.00000000000E+00 0.  1.
         -2   -1    0    0    0  501 -0.00000000000E+00 -0.00000000000E+00 -0.12094425727E+03  0.12094425727E+03  0.00000000000E+00 0. -1.
         23    2    1    2    0    0  0.41622260380E+02 -0.88840105924E+02  0.21419193624E+03  0.25181090883E+03  0.88913279546E+02 0.  0.
        254    2    1    2    0    0 -0.41622260380E+02  0.88840105924E+02  0.18935414171E+04  0.20978109590E+04  0.89760054847E+03 0.  0.
        -24    2    4    4    0    0 -0.22499350073E+02  0.16055236316E+03 -0.19260136207E+02  0.18191347069E+03  0.80238867774E+02 0.  0.
         24    2    4    4    0    0 -0.19122910308E+02 -0.71712257234E+02  0.19128015533E+04  0.19158974883E+04  0.79655947727E+02 0.  0.
         11    1    3    3    0    0  0.24649250092E+02 -0.10421135899E+03  0.15546542406E+03  0.18877788788E+03  0.00000000000E+00 0. -1.
        -11    1    3    3    0    0  0.16973010288E+02  0.15371253064E+02  0.58726512175E+02  0.63033020959E+02  0.00000000000E+00 0.  1.
          2    1    6    6  502    0 -0.78911680595E+00 -0.67130880945E+02  0.18175470586E+04  0.18187865428E+04  0.00000000000E+00 0. -1.
          1    1    5    5  503    0  0.26520152531E+02  0.95511500917E+02 -0.51759639421E+01  0.99260041811E+02  0.00000000000E+00 0. -1.
         -2    1    5    5    0  503 -0.49019502604E+02  0.65040862241E+02 -0.14084172265E+02  0.82653428876E+02  0.00000000000E+00 0.  1.
         -1    1    6    6    0  502 -0.18333793502E+02 -0.45813762891E+01  0.95254494653E+02  0.97110945544E+02  0.00000000000E+00 0.  1.
<mgrwt>
<rscale>  0 0.10383559E+04</rscale>
<asrwt>0</asrwt>
<pdfrwt beam="1">  1        2 0.34287345E+00 0.10383559E+04</pdfrwt>
<pdfrwt beam="2">  1       -2 0.18606810E-01 0.10383559E+04</pdfrwt>
<totfact> 0.12096513E+02</totfact>
</mgrwt>
</event>
<event>
12    1  0.1536832E-007  0.2473786E+04  0.7818608E-02  0.8412384E-01
          2   -1    0    0  501    0  0.00000000000E+00  0.00000000000E+00  0.29465551758E+04  0.29465551758E+04  0.00000000000E+00 0.  1.
         -2   -1    0    0    0  501 -0.00000000000E+00 -0.00000000000E+00 -0.51921778207E+03  0.51921778207E+03  0.00000000000E+00 0. -1.
         23    2    1    2    0    0  0.92654815902E+03 -0.91096974100E+02  0.31508486212E+03  0.98731442131E+03  0.93387078967E+02 0.  0.
        254    2    1    2    0    0 -0.92654815902E+03  0.91096974100E+02  0.21122525316E+04  0.24784585366E+04  0.90241665018E+03 0.  0.
        -24    2    4    4    0    0 -0.16415630636E+03 -0.27396073635E+03  0.19563827721E+03  0.38232494049E+03  0.76787021247E+02 0.  0.
         24    2    4    4    0    0 -0.76239185266E+03  0.36505771045E+03  0.19166142544E+04  0.20961335961E+04  0.76533544854E+02 0.  0.
         11    1    3    3    0    0  0.29314545523E+03 -0.66841855675E+02  0.12438692364E+03  0.32538315624E+03  0.00000000000E+00 0.  1.
        -11    1    3    3    0    0  0.63340270379E+03 -0.24255118425E+02  0.19069793848E+03  0.66193126507E+03  0.00000000000E+00 0. -1.
          2    1    6    6  502    0 -0.54723002736E+03  0.28248369084E+03  0.13213960874E+04  0.14578564258E+04  0.00000000000E+00 0. -1.
          1    1    5    5  503    0 -0.77250626994E+02 -0.18342563905E+03  0.14827189401E+03  0.24818778975E+03  0.00000000000E+00 0. -1.
         -2    1    5    5    0  503 -0.86905679367E+02 -0.90535097304E+02  0.47366383204E+02  0.13413715074E+03  0.00000000000E+00 0.  1.
         -1    1    6    6    0  502 -0.21516182530E+03  0.82574019612E+02  0.59521816703E+03  0.63827717032E+03  0.00000000000E+00 0.  1.
<mgrwt>
<rscale>  0 0.24737856E+04</rscale>
<asrwt>0</asrwt>
<pdfrwt beam="1">  1        2 0.45331617E+00 0.24737856E+04</pdfrwt>
<pdfrwt beam="2">  1       -2 0.79879660E-01 0.24737856E+04</pdfrwt>
<totfact> 0.23312212E+00</totfact>
</mgrwt>
</event>
<event>
12    1  0.1536832E-007  0.1410249E+04  0.7818608E-02  0.8946433E-01
         -1   -1    0    0    0  501 -0.00000000000E+00  0.00000000000E+00  0.42352899968E+03  0.42352899968E+03  0.00000000000E+00 0.  1.
          1   -1    0    0  501    0  0.00000000000E+00 -0.00000000000E+00 -0.11739471073E+04  0.11739471073E+04  0.00000000000E+00 0. -1.
         23    2    1    2    0    0 -0.21327910361E+03 -0.35277114017E+03 -0.25408430766E+03  0.49272518981E+03  0.91015514608E+02 0.  0.
        254    2    1    2    0    0  0.21327910361E+03  0.35277114017E+03 -0.49633380000E+03  0.11047509172E+04  0.89676746968E+03 0.  0.
        -24    2    4    4    0    0 -0.12442670134E+03 -0.21777678341E+03  0.14561982173E+02  0.26390222936E+03  0.80768830220E+02 0.  0.
         24    2    4    4    0    0  0.33770580496E+03  0.57054792358E+03 -0.51089578218E+03  0.84084868785E+03  0.80261272158E+02 0.  0.
         13    1    3    3    0    0 -0.14414667994E+03 -0.30721886795E+03 -0.20261466842E+03  0.39523967668E+03  0.00000000000E+00 0. -1.
        -13    1    3    3    0    0 -0.69132423671E+02 -0.45552272223E+02 -0.51469639231E+02  0.97485513128E+02  0.00000000000E+00 0.  1.
          2    1    6    6  502    0  0.15238221252E+03  0.22363806412E+03 -0.16411299679E+03  0.31649233502E+03  0.00000000000E+00 0. -1.
          1    1    5    5  503    0 -0.37271719981E+02 -0.36648363381E+02 -0.26713791500E+02  0.58701876505E+02  0.00000000000E+00 0. -1.
         -2    1    5    5    0  503 -0.87154981361E+02 -0.18112842003E+03  0.41275773673E+02  0.20520035285E+03  0.00000000000E+00 0.  1.
         -1    1    6    6    0  502  0.18532359244E+03  0.34690985947E+03 -0.34678278539E+03  0.52435635283E+03  0.00000000000E+00 0.  1.
<mgrwt>
<rscale>  0 0.14102491E+04</rscale>
<asrwt>0</asrwt>
<pdfrwt beam="1">  1        1 0.18060725E+00 0.14102491E+04</pdfrwt>
<pdfrwt beam="2">  1       -1 0.65158307E-01 0.14102491E+04</pdfrwt>
<totfact> 0.25981344E+01</totfact>
</mgrwt>
</event>
<event>
12    1  0.1536832E-007  0.1980019E+04  0.7818608E-02  0.8616020E-01
         -2   -1    0    0    0  501 -0.00000000000E+00  0.00000000000E+00  0.36664573355E+03  0.36664573355E+03  0.00000000000E+00 0.  1.
          2   -1    0    0  501    0  0.00000000000E+00 -0.00000000000E+00 -0.26732043240E+04  0.26732043240E+04  0.00000000000E+00 0. -1.
         23    2    1    2    0    0 -0.25428436315E+03  0.47917945275E+03 -0.17699345824E+04  0.18535355328E+04  0.93016450514E+02 0.  0.
        254    2    1    2    0    0  0.25428436315E+03 -0.47917945275E+03 -0.53662400806E+03  0.11863145248E+04  0.90835199146E+03 0.  0.
        -24    2    4    4    0    0 -0.17161900735E+03 -0.99749398508E+02  0.17101348362E+03  0.27392423104E+03  0.79911492182E+02 0.  0.
         24    2    4    4    0    0  0.42590337050E+03 -0.37943005424E+03 -0.70763749168E+03  0.91239029374E+03  0.79651625297E+02 0.  0.
         11    1    3    3    0    0 -0.24934950755E+03  0.44119787955E+03 -0.16983366272E+04  0.17723368881E+04  0.00000000000E+00 0. -1.
        -11    1    3    3    0    0 -0.49348556028E+01  0.37981573194E+02 -0.71597955255E+02  0.81198644686E+02  0.00000000000E+00 0.  1.
          2    1    6    6  502    0  0.30536005768E+03 -0.22387782743E+03 -0.44723496453E+03  0.58599075073E+03  0.00000000000E+00 0. -1.
          3    1    5    5  503    0 -0.11999578093E+03 -0.78388866092E+02  0.72386004149E+02  0.16057252369E+03  0.00000000000E+00 0. -1.
         -4    1    5    5    0  503 -0.51623226420E+02 -0.21360532415E+02  0.98627479473E+02  0.11335170735E+03  0.00000000000E+00 0.  1.
         -1    1    6    6    0  502  0.12054331282E+03 -0.15555222681E+03 -0.26040252716E+03  0.32639954301E+03  0.00000000000E+00 0.  1.
<mgrwt>
<rscale>  0 0.19800192E+04</rscale>
<asrwt>0</asrwt>
<pdfrwt beam="1">  1        2 0.41126219E+00 0.19800192E+04</pdfrwt>
<pdfrwt beam="2">  1       -2 0.56407037E-01 0.19800192E+04</pdfrwt>
<totfact> 0.75691577E+00</totfact>
</mgrwt>
</event>
<event>
12    1  0.1536832E-007  0.1371966E+04  0.7818608E-02  0.8974365E-01
          1   -1    0    0  501    0  0.00000000000E+00  0.00000000000E+00  0.12341175015E+04  0.12341175015E+04  0.00000000000E+00 0. -1.
         -1   -1    0    0    0  501 -0.00000000000E+00 -0.00000000000E+00 -0.38130305906E+03  0.38130305906E+03  0.00000000000E+00 0.  1.
         23    2    1    2    0    0 -0.30234593509E+03 -0.16465567768E+03  0.64477616925E+02  0.36203169300E+03  0.91569793047E+02 0.  0.
        254    2    1    2    0    0  0.30234593509E+03  0.16465567768E+03  0.78833682552E+03  0.12533888676E+04  0.91158331831E+03 0.  0.
        -24    2    4    4    0    0  0.23172649532E+03  0.45973101396E+03  0.78071148037E+03  0.93855474388E+03  0.79528723351E+02 0.  0.
         24    2    4    4    0    0  0.70619439769E+02 -0.29507533627E+03  0.76253451499E+01  0.31483412369E+03  0.83700777791E+02 0.  0.
         11    1    3    3    0    0 -0.22969847105E+02 -0.33467314366E+02  0.31990205378E+02  0.51682185007E+02  0.00000000000E+00 0. -1.
        -11    1    3    3    0    0 -0.27937608798E+03 -0.13118836332E+03  0.32487411547E+02  0.31034950800E+03  0.00000000000E+00 0.  1.
          4    1    6    6  502    0  0.17682531963E+02 -0.42701415584E+02 -0.28727374660E+02  0.54418240365E+02  0.00000000000E+00 0. -1.
          1    1    5    5  503    0  0.85133193227E+02  0.13306466591E+03  0.30123450691E+03  0.34014128543E+03  0.00000000000E+00 0. -1.
         -2    1    5    5    0  503  0.14659330209E+03  0.32666634804E+03  0.47947697347E+03  0.59841345844E+03  0.00000000000E+00 0.  1.
         -3    1    6    6    0  502  0.52936907806E+02 -0.25237392069E+03  0.36352719810E+02  0.26041588333E+03  0.00000000000E+00 0.  1.
<mgrwt>
<rscale>  0 0.13719661E+04</rscale>
<asrwt>0</asrwt>
<pdfrwt beam="1">  1        1 0.18986423E+00 0.13719661E+04</pdfrwt>
<pdfrwt beam="2">  1       -1 0.58662010E-01 0.13719661E+04</pdfrwt>
<totfact> 0.29037130E+01</totfact>
</mgrwt>
</event>
<event>
12    1  0.1536832E-007  0.2518520E+04  0.7818608E-02  0.8396417E-01
         -1   -1    0    0    0  501 -0.00000000000E+00  0.00000000000E+00  0.11552059452E+04  0.11552059452E+04  0.00000000000E+00 0.  1.
          1   -1    0    0  501    0  0.00000000000E+00 -0.00000000000E+00 -0.13726868676E+04  0.13726868676E+04  0.00000000000E+00 0. -1.
         23    2    1    2    0    0 -0.25455038398E+03 -0.92938949119E+03 -0.56419545845E+03  0.11202797878E+04  0.90274931630E+02 0.  0.
        254    2    1    2    0    0  0.25455038398E+03  0.92938949119E+03  0.34671453611E+03  0.14076130250E+04  0.96571358808E+03 0.  0.
        -24    2    4    4    0    0  0.12054551180E+03 -0.13375525001E+03 -0.12605580539E+03  0.23364058041E+03  0.79222265943E+02 0.  0.
         24    2    4    4    0    0  0.13400487218E+03  0.10631447412E+04  0.47277034150E+03  0.11739724446E+04  0.80408073535E+02 0.  0.
         11    1    3    3    0    0 -0.22928564500E+03 -0.86737217507E+03 -0.54832326979E+03  0.10514584182E+04  0.00000000000E+00 0. -1.
        -11    1    3    3    0    0 -0.25264738985E+02 -0.62017316123E+02 -0.15872188662E+02  0.68821369559E+02  0.00000000000E+00 0.  1.
          2    1    6    6  502    0  0.83469322862E+02  0.89644696446E+03  0.40050589069E+03  0.98538787106E+03  0.00000000000E+00 0. -1.
          1    1    5    5  503    0  0.13010574096E+03 -0.11843096211E+03 -0.10136112267E+03  0.20304549688E+03  0.00000000000E+00 0. -1.
         -2    1    5    5    0  503 -0.95602291564E+01 -0.15324287898E+02 -0.24694682724E+02  0.30595083525E+02  0.00000000000E+00 0.  1.
         -1    1    6    6    0  502  0.50535549316E+02  0.16669777673E+03  0.72264450808E+02  0.18858457350E+03  0.00000000000E+00 0.  1.
<mgrwt>
<rscale>  0 0.25185202E+04</rscale>
<asrwt>0</asrwt>
<pdfrwt beam="1">  1        1 0.21118260E+00 0.25185202E+04</pdfrwt>
<pdfrwt beam="2">  1       -1 0.17772399E+00 0.25185202E+04</pdfrwt>
<totfact> 0.15396302E+00</totfact>
</mgrwt>
</event>
<event>
12    1  0.1536832E-007  0.2679694E+04  0.7818608E-02  0.8341624E-01
          1   -1    0    0  501    0  0.00000000000E+00  0.00000000000E+00  0.19161833664E+04  0.19161833664E+04  0.00000000000E+00 0. -1.
         -1   -1    0    0    0  501 -0.00000000000E+00 -0.00000000000E+00 -0.93685730698E+03  0.93685730698E+03  0.00000000000E+00 0.  1.
         23    2    1    2    0    0  0.21798202197E+03  0.46047956260E+02 -0.80902955081E+03  0.84425278036E+03  0.92721987043E+02 0.  0.
        254    2    1    2    0    0 -0.21798202197E+03 -0.46047956260E+02  0.17883556102E+04  0.20087878930E+04  0.88734234336E+03 0.  0.
        -24    2    4    4    0    0 -0.10890398226E+03  0.31216124908E+03  0.24689328331E+03  0.42051991348E+03  0.81092425725E+02 0.  0.
         24    2    4    4    0    0 -0.10907803970E+03 -0.35820920534E+03  0.15414623269E+04  0.15882679795E+04  0.79228883501E+02 0.  0.
         11    1    3    3    0    0  0.11073245777E+03 -0.14464169407E+02 -0.48301771545E+03  0.49575901690E+03  0.00000000000E+00 0.  1.
        -11    1    3    3    0    0  0.10724956420E+03  0.60512125667E+02 -0.32601183536E+03  0.34849376346E+03  0.00000000000E+00 0. -1.
          2    1    6    6  502    0 -0.90383503775E+01  0.43714077487E+00  0.62747139788E+02  0.63396265041E+02  0.00000000000E+00 0. -1.
          3    1    5    5  503    0 -0.40284420677E+02  0.83808764066E+02  0.28704636071E+02  0.97317519571E+02  0.00000000000E+00 0. -1.
         -4    1    5    5    0  503 -0.68619561586E+02  0.22835248501E+03  0.21818864724E+03  0.32320239391E+03  0.00000000000E+00 0.  1.
         -1    1    6    6    0  502 -0.10003968933E+03 -0.35864634611E+03  0.14787151871E+04  0.15248717145E+04  0.00000000000E+00 0.  1.
<mgrwt>
<rscale>  0 0.26796943E+04</rscale>
<asrwt>0</asrwt>
<pdfrwt beam="1">  1        1 0.29479744E+00 0.26796943E+04</pdfrwt>
<pdfrwt beam="2">  1       -1 0.14413189E+00 0.26796943E+04</pdfrwt>
<totfact> 0.11534424E+00</totfact>
</mgrwt>
</event>
<event>
12    1  0.1536832E-007  0.2191990E+04  0.7818608E-02  0.8521770E-01
          4   -1    0    0  501    0  0.00000000000E+00  0.00000000000E+00  0.13649828012E+04  0.13649828012E+04  0.00000000000E+00 0. -1.
         -4   -1    0    0    0  501 -0.00000000000E+00 -0.00000000000E+00 -0.88001450454E+03  0.88001450454E+03  0.00000000000E+00 0.  1.
         23    2    1    2    0    0 -0.36040708566E+03  0.17636552192E+03  0.10354368151E+04  0.11141322312E+04  0.90350240211E+02 0.  0.
        254    2    1    2    0    0  0.36040708566E+03 -0.17636552192E+03 -0.55046851845E+03  0.11308650745E+04  0.90268608175E+03 0.  0.
        -24    2    4    4    0    0  0.43678527358E+03  0.18854179756E+03 -0.57273416098E+03  0.74876494278E+03  0.79341891420E+02 0.  0.
         24    2    4    4    0    0 -0.76378187926E+02 -0.36490731948E+03  0.22265642531E+02  0.38210013171E+03  0.80707945179E+02 0.  0.
         11    1    3    3    0    0 -0.18628228943E+03  0.13855924947E+03  0.62296799495E+03  0.66482244224E+03  0.00000000000E+00 0. -1.
        -11    1    3    3    0    0 -0.17412479622E+03  0.37806272455E+02  0.41246882012E+03  0.44930978897E+03  0.00000000000E+00 0.  1.
          2    1    6    6  502    0 -0.63241038175E+02 -0.12462528037E+03 -0.55100998594E+01  0.13986154088E+03  0.00000000000E+00 0. -1.
          3    1    5    5  503    0  0.15374081847E+03  0.71713879613E+02 -0.14779895152E+03  0.22499699967E+03  0.00000000000E+00 0. -1.
         -4    1    5    5    0  503  0.28304445511E+03  0.11682791795E+03 -0.42493520946E+03  0.52376794310E+03  0.00000000000E+00 0.  1.
         -1    1    6    6    0  502 -0.13137149751E+02 -0.24028203911E+03  0.27775742390E+02  0.24223859083E+03  0.00000000000E+00 0.  1.
<mgrwt>
<rscale>  0 0.21919897E+04</rscale>
<asrwt>0</asrwt>
<pdfrwt beam="1">  1        4 0.20999735E+00 0.21919897E+04</pdfrwt>
<pdfrwt beam="2">  1       -4 0.13538685E+00 0.21919897E+04</pdfrwt>
<totfact> 0.80656684E-02</totfact>
</mgrwt>
</event>
<event>
12    1  0.1536832E-007  0.5789794E+04  0.7818608E-02  0.7717025E-01
          2   -1    0    0  501    0  0.00000000000E+00  0.00000000000E+00  0.42599518297E+04  0.42599518297E+04  0.00000000000E+00 0. -1.
         -2   -1    0    0    0  501 -0.00000000000E+00 -0.00000000000E+00 -0.19672592580E+04  0.19672592580E+04  0.00000000000E+00 0.  1.
         23    2    1    2    0    0 -0.10739291525E+04  0.20166891256E+04  0.29061878134E+04  0.36979133570E+04  0.90976563761E+02 0.  0.
        254    2    1    2    0    0  0.10739291525E+04 -0.20166891256E+04 -0.61349524181E+03  0.25292977307E+04  0.89476910130E+03 0.  0.
        -24    2    4    4    0    0  0.10301918984E+04 -0.17359159343E+04 -0.80792425056E+03  0.21757733635E+04  0.80923767905E+02 0.  0.
         24    2    4    4    0    0  0.43737254077E+02 -0.28077319138E+03  0.19442900875E+03  0.35352436720E+03  0.80189191098E+02 0.  0.
         13    1    3    3    0    0 -0.74685434870E+03  0.13398335844E+04  0.20000487092E+04  0.25205436499E+04  0.00000000000E+00 0. -1.
        -13    1    3    3    0    0 -0.32707480376E+03  0.67685554120E+03  0.90613910427E+03  0.11773697071E+04  0.00000000000E+00 0.  1.
          4    1    6    6  502    0  0.47443067243E+02 -0.72299832087E+02  0.64016854075E+02  0.10759306648E+03  0.00000000000E+00 0. -1.
          3    1    5    5  503    0  0.96961162260E+03 -0.16251542087E+04 -0.73625172096E+03  0.20306007725E+04  0.00000000000E+00 0. -1.
         -4    1    5    5    0  503  0.60580275792E+02 -0.11076172553E+03 -0.71672529597E+02  0.14517259093E+03  0.00000000000E+00 0.  1.
         -3    1    6    6    0  502 -0.37058131663E+01 -0.20847335929E+03  0.13041215467E+03  0.24593130072E+03  0.00000000000E+00 0.  1.
<mgrwt>
<rscale>  0 0.57897944E+04</rscale>
<asrwt>0</asrwt>
<pdfrwt beam="1">  1        2 0.65537720E+00 0.57897944E+04</pdfrwt>
<pdfrwt beam="2">  1       -2 0.30265527E+00 0.57897944E+04</pdfrwt>
<totfact> 0.42796177E-03</totfact>
</mgrwt>
</event>
<event>
12    1  0.1536832E-007  0.1190342E+04  0.7818608E-02  0.9121353E-01
          3   -1    0    0  501    0  0.00000000000E+00  0.00000000000E+00  0.25662604485E+03  0.25662604485E+03  0.00000000000E+00 0. -1.
         -3   -1    0    0    0  501 -0.00000000000E+00 -0.00000000000E+00 -0.13803288535E+04  0.13803288535E+04  0.00000000000E+00 0.  1.
         23    2    1    2    0    0  0.22632291144E+03 -0.85696704966E+02 -0.24914391082E+03  0.35888987213E+03  0.90350797095E+02 0.  0.
        254    2    1    2    0    0 -0.22632291144E+03  0.85696704966E+02 -0.87455889779E+03  0.12780650262E+04  0.90001719979E+03 0.  0.
        -24    2    4    4    0    0  0.21036943578E+02  0.14201603918E+03  0.14596392609E+03  0.22306582591E+03  0.88553862641E+02 0.  0.
         24    2    4    4    0    0 -0.24735985502E+03 -0.56319334209E+02 -0.10205228239E+04  0.10549992003E+04  0.84839337606E+02 0.  0.
         13    1    3    3    0    0  0.18597129815E+03 -0.86367227614E+02 -0.15685554810E+03  0.25816329079E+03  0.00000000000E+00 0. -1.
        -13    1    3    3    0    0  0.40351613292E+02  0.67052264821E+00 -0.92288362717E+02  0.10072658134E+03  0.00000000000E+00 0.  1.
          2    1    6    6  502    0 -0.58834911784E+01 -0.14915184880E+02 -0.24453154082E+02  0.29240980713E+02  0.00000000000E+00 0. -1.
          1    1    5    5  503    0  0.23571183157E+02 -0.28895480526E+01  0.21118253769E+02  0.31779408516E+02  0.00000000000E+00 0. -1.
         -2    1    5    5    0  503 -0.25342395789E+01  0.14490558723E+03  0.12484567232E+03  0.19128641739E+03  0.00000000000E+00 0.  1.
         -1    1    6    6    0  502 -0.24147636384E+03 -0.41404149329E+02 -0.99606966980E+03  0.10257582195E+04  0.00000000000E+00 0.  1.
<mgrwt>
<rscale>  0 0.11903417E+04</rscale>
<asrwt>0</asrwt>
<pdfrwt beam="1">  1        3 0.39480929E-01 0.11903417E+04</pdfrwt>
<pdfrwt beam="2">  1       -3 0.21235829E+00 0.11903417E+04</pdfrwt>
<totfact> 0.20272336E+00</totfact>
</mgrwt>
</event>
<event>
12    1  0.1536832E-007  0.1479685E+04  0.7818608E-02  0.8898075E-01
         -2   -1    0    0    0  501 -0.00000000000E+00  0.00000000000E+00  0.15708057992E+03  0.15708057992E+03  0.00000000000E+00 0.  1.
          2   -1    0    0  501    0  0.00000000000E+00 -0.00000000000E+00 -0.34846267237E+04  0.34846267237E+04  0.00000000000E+00 0. -1.
         23    2    1    2    0    0 -0.14233373275E+03 -0.21758776706E+03 -0.19763717121E+04  0.19955470874E+04  0.92518677968E+02 0.  0.
        254    2    1    2    0    0  0.14233373275E+03  0.21758776706E+03 -0.13511744317E+04  0.16461602162E+04  0.90364140277E+03 0.  0.
        -24    2    4    4    0    0  0.19216330354E+03  0.44469108041E+03 -0.32061901431E+03  0.58675474776E+03  0.82508723539E+02 0.  0.
         24    2    4    4    0    0 -0.49829570788E+02 -0.22710331335E+03 -0.10305554173E+04  0.10594054684E+04  0.78972003261E+02 0.  0.
         13    1    3    3    0    0 -0.15326667375E+03 -0.18441356792E+03 -0.16546304406E+04  0.16719153484E+04  0.00000000000E+00 0. -1.
        -13    1    3    3    0    0  0.10932941001E+02 -0.33174199139E+02 -0.32174127151E+03  0.32363173899E+03  0.00000000000E+00 0.  1.
          2    1    6    6  502    0 -0.22366586164E+01  0.58636886499E+01 -0.51911396828E+02  0.52289373748E+02  0.00000000000E+00 0. -1.
          1    1    5    5  503    0  0.19803125744E+02  0.11744011503E+02 -0.29023246564E+02  0.37046382233E+02  0.00000000000E+00 0. -1.
         -4    1    5    5    0  503  0.17236017779E+03  0.43294706890E+03 -0.29159576774E+03  0.54970836552E+03  0.00000000000E+00 0.  1.
         -1    1    6    6    0  502 -0.47592912172E+02 -0.23296700200E+03 -0.97864402052E+03  0.10071160947E+04  0.00000000000E+00 0.  1.
<mgrwt>
<rscale>  0 0.14796854E+04</rscale>
<asrwt>0</asrwt>
<pdfrwt beam="1">  1        2 0.53609642E+00 0.14796854E+04</pdfrwt>
<pdfrwt beam="2">  1       -2 0.24166243E-01 0.14796854E+04</pdfrwt>
<totfact> 0.12481704E+01</totfact>
</mgrwt>
</event>
<event>
12    1  0.1536832E-007  0.1245078E+04  0.7818608E-02  0.9074290E-01
          1   -1    0    0  501    0  0.00000000000E+00  0.00000000000E+00  0.39478771681E+04  0.39478771681E+04  0.00000000000E+00 0. -1.
         -1   -1    0    0    0  501 -0.00000000000E+00 -0.00000000000E+00 -0.98167864164E+02  0.98167864164E+02  0.00000000000E+00 0.  1.
         23    2    1    2    0    0  0.49669130510E+02 -0.22017068297E+03  0.33322438852E+03  0.41252815221E+03  0.90547396948E+02 0.  0.
        254    2    1    2    0    0 -0.49669130510E+02  0.22017068297E+03  0.35164849154E+04  0.36335168800E+04  0.88647425521E+03 0.  0.
        -24    2    4    4    0    0 -0.70784973609E+02  0.55459957334E+03  0.23740541170E+04  0.24402956928E+04  0.79491625060E+02 0.  0.
         24    2    4    4    0    0  0.21115843099E+02 -0.33442889037E+03  0.11424307984E+04  0.11932211872E+04  0.79624814516E+02 0.  0.
         13    1    3    3    0    0 -0.26513618403E+02 -0.57255530892E+02  0.94826599860E+02  0.11390018358E+03  0.00000000000E+00 0.  1.
        -13    1    3    3    0    0  0.76182748913E+02 -0.16291515208E+03  0.23839778866E+03  0.29862796863E+03  0.00000000000E+00 0. -1.
          2    1    6    6  502    0  0.14816765802E+01 -0.16562901425E+03  0.42988616838E+03  0.46069217867E+03  0.00000000000E+00 0. -1.
          1    1    5    5  503    0 -0.58231700342E+02  0.44978609787E+03  0.20464110553E+04  0.20960669532E+04  0.00000000000E+00 0. -1.
         -2    1    5    5    0  503 -0.12553273267E+02  0.10481347547E+03  0.32764306169E+03  0.34422873962E+03  0.00000000000E+00 0.  1.
         -1    1    6    6    0  502  0.19634166519E+02 -0.16879987612E+03  0.71254462999E+03  0.73252900857E+03  0.00000000000E+00 0.  1.
<mgrwt>
<rscale>  0 0.12450778E+04</rscale>
<asrwt>0</asrwt>
<pdfrwt beam="1">  1        1 0.60736560E+00 0.12450778E+04</pdfrwt>
<pdfrwt beam="2">  1       -1 0.15102751E-01 0.12450778E+04</pdfrwt>
<totfact> 0.35260770E+00</totfact>
</mgrwt>
</event>
<event>
12    1  0.1536832E-007  0.1302582E+04  0.7818608E-02  0.9027520E-01
         -2   -1    0    0    0  501 -0.00000000000E+00  0.00000000000E+00  0.30745326484E+03  0.30745326484E+03  0.00000000000E+00 0.  1.
          2   -1    0    0  501    0  0.00000000000E+00 -0.00000000000E+00 -0.13796564775E+04  0.13796564775E+04  0.00000000000E+00 0. -1.
         23    2    1    2    0    0  0.13375697664E+03 -0.29024197216E+03 -0.26533948947E+03  0.42511978914E+03  0.90501156038E+02 0.  0.
        254    2    1    2    0    0 -0.13375697664E+03  0.29024197216E+03 -0.80686372319E+03  0.12619899532E+04  0.91621953863E+03 0.  0.
        -24    2    4    4    0    0 -0.22090640127E+03 -0.27487624471E+03 -0.16192336595E+03  0.39631626108E+03  0.80565590204E+02 0.  0.
         24    2    4    4    0    0  0.87149424628E+02  0.56511821687E+03 -0.64494035724E+03  0.86567369212E+03  0.80555915913E+02 0.  0.
         13    1    3    3    0    0  0.13453400421E+03 -0.29234868933E+03 -0.24450750282E+03  0.40416713545E+03  0.00000000000E+00 0. -1.
        -13    1    3    3    0    0 -0.77702757039E+00  0.21067171680E+01 -0.20831986647E+02  0.20952653692E+02  0.00000000000E+00 0.  1.
          4    1    6    6  502    0  0.98797755829E+02  0.42387305567E+03 -0.50152522541E+03  0.66404586860E+03  0.00000000000E+00 0. -1.
          1    1    5    5  503    0 -0.22381132140E+03 -0.27227300308E+03 -0.16691573256E+03  0.38998071436E+03  0.00000000000E+00 0. -1.
         -2    1    5    5    0  503  0.29049201337E+01 -0.26032416265E+01  0.49923666021E+01  0.63355467198E+01  0.00000000000E+00 0.  1.
         -3    1    6    6    0  502 -0.11648331201E+02  0.14124516120E+03 -0.14341513183E+03  0.20162782352E+03  0.00000000000E+00 0.  1.
<mgrwt>
<rscale>  0 0.13025819E+04</rscale>
<asrwt>0</asrwt>
<pdfrwt beam="1">  1        2 0.21225484E+00 0.13025819E+04</pdfrwt>
<pdfrwt beam="2">  1       -2 0.47300503E-01 0.13025819E+04</pdfrwt>
<totfact> 0.61689962E+01</totfact>
</mgrwt>
</event>
<event>
12    1  0.1536832E-007  0.1529726E+04  0.7818608E-02  0.8864923E-01
         -2   -1    0    0    0  501 -0.00000000000E+00  0.00000000000E+00  0.68725610588E+03  0.68725610588E+03  0.00000000000E+00 0. -1.
          2   -1    0    0  501    0  0.00000000000E+00 -0.00000000000E+00 -0.85123323830E+03  0.85123323830E+03  0.00000000000E+00 0.  1.
         23    2    1    2    0    0 -0.21632308856E+03 -0.34857433351E+03 -0.32594452931E+03  0.53182555370E+03  0.91097962402E+02 0.  0.
        254    2    1    2    0    0  0.21632308856E+03  0.34857433351E+03  0.16196739689E+03  0.10066637905E+04  0.90489712387E+03 0.  0.
        -24    2    4    4    0    0 -0.12600976338E+03 -0.25436511641E+03  0.54786040085E+02  0.30058997655E+03  0.82296724725E+02 0.  0.
         24    2    4    4    0    0  0.34233285194E+03  0.60293944992E+03  0.10718135680E+03  0.70607381393E+03  0.79527515305E+02 0.  0.
         13    1    3    3    0    0 -0.13694174068E+03 -0.16054047936E+03 -0.20699826144E+03  0.29559189112E+03  0.00000000000E+00 0.  1.
        -13    1    3    3    0    0 -0.79381347878E+02 -0.18803385415E+03 -0.11894626787E+03  0.23623366258E+03  0.00000000000E+00 0. -1.
          4    1    6    6  502    0  0.16463605527E+03  0.26251073011E+03  0.85506499331E+02  0.32144715825E+03  0.00000000000E+00 0. -1.
          1    1    5    5  503    0 -0.13606587926E+03 -0.23139741111E+03  0.39777980125E+02  0.27136870319E+03  0.00000000000E+00 0. -1.
         -2    1    5    5    0  503  0.10056115874E+02 -0.22967705296E+02  0.15008059960E+02  0.29221273361E+02  0.00000000000E+00 0.  1.
         -3    1    6    6    0  502  0.17769679667E+03  0.34042871981E+03  0.21674857471E+02  0.38462665568E+03  0.00000000000E+00 0.  1.
<mgrwt>
<rscale>  0 0.15297258E+04</rscale>
<asrwt>0</asrwt>
<pdfrwt beam="1">  1        2 0.13095896E+00 0.15297258E+04</pdfrwt>
<pdfrwt beam="2">  1       -2 0.10573171E+00 0.15297258E+04</pdfrwt>
<totfact> 0.22078849E+01</totfact>
</mgrwt>
</event>
<event>
12    1  0.1536832E-007  0.1596665E+04  0.7818608E-02  0.8822600E-01
          2   -1    0    0  501    0  0.00000000000E+00  0.00000000000E+00  0.24157705693E+04  0.24157705693E+04  0.00000000000E+00 0.  1.
         -2   -1    0    0    0  501 -0.00000000000E+00 -0.00000000000E+00 -0.26382244334E+03  0.26382244334E+03  0.00000000000E+00 0. -1.
         23    2    1    2    0    0 -0.14568727927E+03  0.23257521892E+03 -0.41535719130E+02  0.29205225496E+03  0.90847607927E+02 0.  0.
        254    2    1    2    0    0  0.14568727927E+03 -0.23257521892E+03  0.21934838451E+04  0.23875407577E+04  0.90203296787E+03 0.  0.
        -24    2    4    4    0    0 -0.18085145699E+03 -0.44599725065E+03  0.16006046748E+04  0.16732316901E+04  0.78410247150E+02 0.  0.
         24    2    4    4    0    0  0.32653873626E+03  0.21342203172E+03  0.59287917030E+03  0.71430906754E+03  0.80964334711E+02 0.  0.
         11    1    3    3    0    0 -0.48050967879E+02  0.14946207020E+03 -0.46491777994E+02  0.16373543100E+03  0.00000000000E+00 0. -1.
        -11    1    3    3    0    0 -0.97636311391E+02  0.83113148721E+02  0.49560588642E+01  0.12831682396E+03  0.00000000000E+00 0.  1.
          4    1    6    6  502    0  0.27040644983E+03  0.20262682214E+03  0.47077844225E+03  0.57949082723E+03  0.00000000000E+00 0. -1.
          1    1    5    5  503    0 -0.15528034635E+03 -0.41924591554E+03  0.14140905530E+04  0.14830816619E+04  0.00000000000E+00 0. -1.
         -2    1    5    5    0  503 -0.25571110642E+02 -0.26751335107E+02  0.18651412176E+03  0.19015002826E+03  0.00000000000E+00 0.  1.
         -3    1    6    6    0  502  0.56132286429E+02  0.10795209584E+02  0.12210072805E+03  0.13481824031E+03  0.00000000000E+00 0.  1.
<mgrwt>
<rscale>  0 0.15966646E+04</rscale>
<asrwt>0</asrwt>
<pdfrwt beam="1">  1        2 0.37165700E+00 0.15966646E+04</pdfrwt>
<pdfrwt beam="2">  1       -2 0.40588070E-01 0.15966646E+04</pdfrwt>
<totfact> 0.21500006E+01</totfact>
</mgrwt>
</event>
<event>
12    1  0.1536832E-007  0.1402571E+04  0.7818608E-02  0.8951960E-01
         -2   -1    0    0    0  501 -0.00000000000E+00  0.00000000000E+00  0.77374140935E+03  0.77374140935E+03  0.00000000000E+00 0.  1.
          2   -1    0    0  501    0  0.00000000000E+00 -0.00000000000E+00 -0.63561427747E+03  0.63561427747E+03  0.00000000000E+00 0. -1.
         23    2    1    2    0    0 -0.35890824613E+03  0.25967462470E+03  0.19825320476E+03  0.49471242175E+03  0.95864525136E+02 0.  0.
        254    2    1    2    0    0  0.35890824613E+03 -0.25967462470E+03 -0.60126072889E+02  0.91464326507E+03  0.79794180104E+03 0.  0.
        -24    2    4    4    0    0  0.36828370926E+03 -0.25462175732E+03 -0.37496411064E+03  0.58933939700E+03  0.79105693755E+02 0.  0.
         24    2    4    4    0    0 -0.93754631351E+01 -0.50528673850E+01  0.31483803775E+03  0.32530386807E+03  0.81155318923E+02 0.  0.
         13    1    3    3    0    0 -0.28442011515E+03  0.20744940115E+03  0.11219074830E+03  0.36948182627E+03  0.00000000000E+00 0.  1.
        -13    1    3    3    0    0 -0.74488130975E+02  0.52225223554E+02  0.86062456458E+02  0.12523059548E+03  0.00000000000E+00 0. -1.
          2    1    6    6  502    0 -0.14703855581E+02  0.22766633570E+02  0.27549615680E+03  0.27682603812E+03  0.00000000000E+00 0. -1.
          3    1    5    5  503    0  0.26675268204E+03 -0.19843884824E+03 -0.23300149932E+03  0.40598604478E+03  0.00000000000E+00 0. -1.
         -4    1    5    5    0  503  0.10153102722E+03 -0.56182909082E+02 -0.14196261131E+03  0.18335335222E+03  0.00000000000E+00 0.  1.
         -1    1    6    6    0  502  0.53283924457E+01 -0.27819500955E+02  0.39341880952E+02  0.48477829946E+02  0.00000000000E+00 0.  1.
<mgrwt>
<rscale>  0 0.14025706E+04</rscale>
<asrwt>0</asrwt>
<pdfrwt beam="1">  1        2 0.97786812E-01 0.14025706E+04</pdfrwt>
<pdfrwt beam="2">  1       -2 0.11903714E+00 0.14025706E+04</pdfrwt>
<totfact> 0.24363988E+01</totfact>
</mgrwt>
</event>
<event>
12    1  0.1536832E-007  0.1903558E+04  0.7818608E-02  0.8653087E-01
          1   -1    0    0  501    0  0.00000000000E+00  0.00000000000E+00  0.71955079953E+03  0.71955079953E+03  0.00000000000E+00 0. -1.
         -1   -1    0    0    0  501 -0.00000000000E+00 -0.00000000000E+00 -0.12589571463E+04  0.12589571463E+04  0.00000000000E+00 0.  1.
         23    2    1    2    0    0  0.34821349708E+03 -0.41285038595E+02 -0.88136619476E+03  0.95287868567E+03  0.90632921048E+02 0.  0.
        254    2    1    2    0    0 -0.34821349708E+03  0.41285038595E+02  0.34195984798E+03  0.10256292602E+04  0.90112249319E+03 0.  0.
        -24    2    4    4    0    0  0.32155044861E+02 -0.38268424870E+03  0.14731250707E+03  0.41890644866E+03  0.79375417323E+02 0.  0.
         24    2    4    4    0    0 -0.38036854194E+03  0.42396928730E+03  0.19464734091E+03  0.60672281151E+03  0.76123573326E+02 0.  0.
         11    1    3    3    0    0  0.90813125815E+02 -0.29939126070E+02 -0.34228411201E+03  0.35538962903E+03  0.00000000000E+00 0. -1.
        -11    1    3    3    0    0  0.25740037126E+03 -0.11345912525E+02 -0.53908208275E+03  0.59748905664E+03  0.00000000000E+00 0.  1.
          4    1    6    6  502    0 -0.55024478663E+01  0.29729944548E+02  0.15472060272E+02  0.33963674483E+02  0.00000000000E+00 0. -1.
          1    1    5    5  503    0 -0.29368731687E+01 -0.66347191622E+02  0.58415178694E+02  0.88447205507E+02  0.00000000000E+00 0. -1.
         -2    1    5    5    0  503  0.35091918029E+02 -0.31633705708E+03  0.88897328373E+02  0.33045924315E+03  0.00000000000E+00 0.  1.
         -3    1    6    6    0  502 -0.37486609407E+03  0.39423934275E+03  0.17917528064E+03  0.57275913703E+03  0.00000000000E+00 0.  1.
<mgrwt>
<rscale>  0 0.19035584E+04</rscale>
<asrwt>0</asrwt>
<pdfrwt beam="1">  1        1 0.11070013E+00 0.19035584E+04</pdfrwt>
<pdfrwt beam="2">  1       -1 0.19368571E+00 0.19035584E+04</pdfrwt>
<totfact> 0.40669853E+00</totfact>
</mgrwt>
</event>
<event>
12    1  0.1536832E-007  0.2235339E+04  0.7818608E-02  0.8503862E-01
         -1   -1    0    0    0  501 -0.00000000000E+00  0.00000000000E+00  0.41230437663E+03  0.41230437663E+03  0.00000000000E+00 0.  1.
          1   -1    0    0  501    0  0.00000000000E+00 -0.00000000000E+00 -0.30297632389E+04  0.30297632389E+04  0.00000000000E+00 0. -1.
         23    2    1    2    0    0 -0.60019858150E+03  0.57413054894E+02  0.29023887378E+01  0.61024579153E+03  0.94111137038E+02 0.  0.
        254    2    1    2    0    0  0.60019858150E+03 -0.57413054894E+02 -0.26203612510E+04  0.28318218240E+04  0.88847462595E+03 0.  0.
        -24    2    4    4    0    0  0.12819531048E+03 -0.38646046759E+03 -0.59899660343E+03  0.72868050383E+03  0.79953830998E+02 0.  0.
         24    2    4    4    0    0  0.47200327102E+03  0.32904741270E+03 -0.20213646476E+04  0.21031413202E+04  0.78924561933E+02 0.  0.
         13    1    3    3    0    0 -0.17244015746E+03  0.58781768393E+02 -0.78104114256E+01  0.18235105354E+03  0.00000000000E+00 0. -1.
        -13    1    3    3    0    0 -0.42775842404E+03 -0.13687134991E+01  0.10712800163E+02  0.42789473800E+03  0.00000000000E+00 0.  1.
          4    1    6    6  502    0  0.38974983343E+03  0.30129261692E+03 -0.17661312607E+04  0.18335489640E+04  0.00000000000E+00 0. -1.
          1    1    5    5  503    0  0.86201169832E+02 -0.16444626790E+03 -0.22485532606E+03  0.29160441418E+03  0.00000000000E+00 0. -1.
         -2    1    5    5    0  503  0.41994140648E+02 -0.22201419969E+03 -0.37414127737E+03  0.43707608965E+03  0.00000000000E+00 0.  1.
         -3    1    6    6    0  502  0.82253437588E+02  0.27754795778E+02 -0.25523338690E+03  0.26959235610E+03  0.00000000000E+00 0.  1.
<mgrwt>
<rscale>  0 0.22353386E+04</rscale>
<asrwt>0</asrwt>
<pdfrwt beam="1">  1        1 0.46611740E+00 0.22353386E+04</pdfrwt>
<pdfrwt beam="2">  1       -1 0.63431445E-01 0.22353386E+04</pdfrwt>
<totfact> 0.13036318E+00</totfact>
</mgrwt>
</event>
<event>
12    1  0.1536832E-007  0.3312584E+04  0.7818608E-02  0.8159701E-01
         -1   -1    0    0    0  501 -0.00000000000E+00  0.00000000000E+00  0.12244838814E+04  0.12244838814E+04  0.00000000000E+00 0.  1.
          1   -1    0    0  501    0  0.00000000000E+00 -0.00000000000E+00 -0.22403753873E+04  0.22403753873E+04  0.00000000000E+00 0. -1.
         23    2    1    2    0    0  0.74033397373E+03 -0.13330632427E+04 -0.60523323500E+03  0.16430441082E+04  0.90192410833E+02 0.  0.
        254    2    1    2    0    0 -0.74033397373E+03  0.13330632427E+04 -0.41065827097E+03  0.18218151605E+04  0.90841524749E+03 0.  0.
        -24    2    4    4    0    0 -0.64256442236E+03  0.13258065806E+04 -0.92070466885E+02  0.14787068294E+04  0.86283197247E+02 0.  0.
         24    2    4    4    0    0 -0.97769551368E+02  0.72566620664E+01 -0.31858780408E+03  0.34310833117E+03  0.81324004395E+02 0.  0.
         13    1    3    3    0    0  0.14726859166E+03 -0.20187711768E+03 -0.11302374069E+03  0.27425676781E+03  0.00000000000E+00 0. -1.
        -13    1    3    3    0    0  0.59306538206E+03 -0.11311861250E+04 -0.49220949431E+03  0.13687873404E+04  0.00000000000E+00 0.  1.
          2    1    6    6  502    0  0.12933204268E+02  0.36276113079E+01 -0.16031776979E+02  0.20915190880E+02  0.00000000000E+00 0. -1.
          3    1    5    5  503    0 -0.18100598610E+03  0.29036200125E+03 -0.24552068514E+02  0.34303944794E+03  0.00000000000E+00 0. -1.
         -4    1    5    5    0  503 -0.46155843626E+03  0.10354445794E+04 -0.67518398371E+02  0.11356673814E+04  0.00000000000E+00 0.  1.
         -1    1    6    6    0  502 -0.11070275564E+03  0.36290507585E+01 -0.30255602711E+03  0.32219314029E+03  0.00000000000E+00 0.  1.
<mgrwt>
<rscale>  0 0.33125842E+04</rscale>
<asrwt>0</asrwt>
<pdfrwt beam="1">  1        1 0.34467313E+00 0.33125842E+04</pdfrwt>
<pdfrwt beam="2">  1       -1 0.18838214E+00 0.33125842E+04</pdfrwt>
<totfact> 0.30733686E-01</totfact>
</mgrwt>
</event>
<event>
12    1  0.1536832E-007  0.1882370E+04  0.7818608E-02  0.8663682E-01
         -1   -1    0    0    0  501 -0.00000000000E+00  0.00000000000E+00  0.90187090767E+03  0.90187090767E+03  0.00000000000E+00 0.  1.
          1   -1    0    0  501    0  0.00000000000E+00 -0.00000000000E+00 -0.98221325667E+03  0.98221325667E+03  0.00000000000E+00 0. -1.
         23    2    1    2    0    0 -0.31501952537E+03 -0.53640839646E+03  0.34595428978E+03  0.71768661813E+03  0.91752068527E+02 0.  0.
        254    2    1    2    0    0  0.31501952537E+03  0.53640839646E+03 -0.42629663878E+03  0.11663975462E+04  0.88982197230E+03 0.  0.
        -24    2    4    4    0    0  0.25838502260E+03 -0.15806704442E+03 -0.33571764402E+03  0.45923418034E+03  0.80260111201E+02 0.  0.
         24    2    4    4    0    0  0.56634502765E+02  0.69447544087E+03 -0.90578994760E+02  0.70716336586E+03  0.79823974077E+02 0.  0.
         11    1    3    3    0    0 -0.15667099758E+03 -0.28113359209E+03  0.12714589321E+03  0.34604620536E+03  0.00000000000E+00 0. -1.
        -11    1    3    3    0    0 -0.15834852779E+03 -0.25527480436E+03  0.21880839657E+03  0.37164041277E+03  0.00000000000E+00 0.  1.
          4    1    6    6  502    0  0.71374669514E+02  0.64761339336E+03 -0.92112737424E+02  0.65801383504E+03  0.00000000000E+00 0. -1.
          3    1    5    5  503    0  0.25019875818E+03 -0.16660273056E+03 -0.32896142854E+03  0.44561363297E+03  0.00000000000E+00 0. -1.
         -4    1    5    5    0  503  0.81862644173E+01  0.85356861373E+01 -0.67562154838E+01  0.13620547368E+02  0.00000000000E+00 0.  1.
         -3    1    6    6    0  502 -0.14740166750E+02  0.46862047518E+02  0.15337426639E+01  0.49149530821E+02  0.00000000000E+00 0.  1.
<mgrwt>
<rscale>  0 0.18823704E+04</rscale>
<asrwt>0</asrwt>
<pdfrwt beam="1">  1        1 0.15110973E+00 0.18823704E+04</pdfrwt>
<pdfrwt beam="2">  1       -1 0.13874937E+00 0.18823704E+04</pdfrwt>
<totfact> 0.62836851E+00</totfact>
</mgrwt>
</event>
<event>
12    1  0.1536832E-007  0.2313878E+04  0.7818608E-02  0.8472469E-01
          2   -1    0    0  501    0  0.00000000000E+00  0.00000000000E+00  0.34323937281E+04  0.34323937281E+04  0.00000000000E+00 0. -1.
         -2   -1    0    0    0  501 -0.00000000000E+00 -0.00000000000E+00 -0.38996326799E+03  0.38996326799E+03  0.00000000000E+00 0.  1.
         23    2    1    2    0    0  0.42242364691E+03  0.58113712691E+03  0.23783569418E+04  0.24860964480E+04  0.89060139027E+02 0.  0.
        254    2    1    2    0    0 -0.42242364691E+03 -0.58113712691E+03  0.66407351832E+03  0.13362605481E+04  0.91018488063E+03 0.  0.
        -24    2    4    4    0    0  0.32199486788E+02 -0.62807220492E+02 -0.20061397165E+03  0.22729032772E+03  0.80208313516E+02 0.  0.
         24    2    4    4    0    0 -0.45462313369E+03 -0.51832990642E+03  0.86468748997E+03  0.11089702204E+04  0.82355381121E+02 0.  0.
         11    1    3    3    0    0  0.14968030156E+03  0.18371439996E+03  0.92614341723E+03  0.95597949911E+03  0.00000000000E+00 0. -1.
        -11    1    3    3    0    0  0.27274334534E+03  0.39742272695E+03  0.14522135246E+04  0.15301169489E+04  0.00000000000E+00 0.  1.
          4    1    6    6  502    0 -0.45469370930E+03 -0.50021756218E+03  0.84660893692E+03  0.10833792830E+04  0.00000000000E+00 0. -1.
          1    1    5    5  503    0  0.40107677360E+02 -0.72915804600E+02 -0.19715389063E+03  0.21399765637E+03  0.00000000000E+00 0. -1.
         -2    1    5    5    0  503 -0.79081905712E+01  0.10108584108E+02 -0.34600810226E+01  0.13292671344E+02  0.00000000000E+00 0.  1.
         -3    1    6    6    0  502  0.70575610815E-01 -0.18112344241E+02  0.18078553050E+02  0.25590937364E+02  0.00000000000E+00 0.  1.
<mgrwt>
<rscale>  0 0.23138777E+04</rscale>
<asrwt>0</asrwt>
<pdfrwt beam="1">  1        2 0.52806055E+00 0.23138777E+04</pdfrwt>
<pdfrwt beam="2">  1       -2 0.59994351E-01 0.23138777E+04</pdfrwt>
<totfact> 0.21298078E+00</totfact>
</mgrwt>
</event>
<event>
12    1  0.1536832E-007  0.1490128E+04  0.7818608E-02  0.8891044E-01
          1   -1    0    0  501    0  0.00000000000E+00  0.00000000000E+00  0.19472498912E+04  0.19472498912E+04  0.00000000000E+00 0. -1.
         -1   -1    0    0    0  501 -0.00000000000E+00 -0.00000000000E+00 -0.28507918114E+03  0.28507918114E+03  0.00000000000E+00 0.  1.
         23    2    1    2    0    0 -0.22148974905E+03 -0.35259621832E+03  0.85284530851E+03  0.95329037806E+03  0.89641634058E+02 0.  0.
        254    2    1    2    0    0  0.22148974905E+03  0.35259621832E+03  0.80932540153E+03  0.12790386943E+04  0.89863817733E+03 0.  0.
        -24    2    4    4    0    0  0.81750598040E+02 -0.29634597282E+03  0.20691699135E+03  0.37929466323E+03  0.80905527370E+02 0.  0.
         24    2    4    4    0    0  0.13973915101E+03  0.64894219114E+03  0.60240841018E+03  0.89974403104E+03  0.77397874436E+02 0.  0.
         13    1    3    3    0    0 -0.21939067826E+03 -0.34065477460E+03  0.77523182800E+03  0.87473557851E+03  0.00000000000E+00 0. -1.
        -13    1    3    3    0    0 -0.20990707903E+01 -0.11941443716E+02  0.77613480511E+02  0.78554799556E+02  0.00000000000E+00 0.  1.
          2    1    6    6  502    0  0.34975496404E+02  0.55113481257E+02  0.61795628415E+02  0.89885932471E+02  0.00000000000E+00 0. -1.
          3    1    5    5  503    0  0.49342928553E+02 -0.57483586901E+02  0.63159404280E+02  0.98631626318E+02  0.00000000000E+00 0. -1.
         -4    1    5    5    0  503  0.32407669487E+02 -0.23886238592E+03  0.14375758707E+03  0.28066303691E+03  0.00000000000E+00 0.  1.
         -1    1    6    6    0  502  0.10476365461E+03  0.59382870988E+03  0.54061278177E+03  0.80985809857E+03  0.00000000000E+00 0.  1.
<mgrwt>
<rscale>  0 0.14901281E+04</rscale>
<asrwt>0</asrwt>
<pdfrwt beam="1">  1        1 0.29957690E+00 0.14901281E+04</pdfrwt>
<pdfrwt beam="2">  1       -1 0.43858337E-01 0.14901281E+04</pdfrwt>
<totfact> 0.16105358E+01</totfact>
</mgrwt>
</event>
<event>
12    1  0.3027662E-007  0.1614643E+04  0.7818608E-02  0.8811602E-01
         -1   -1    0    0    0  501 -0.00000000000E+00  0.00000000000E+00  0.41255242208E+03  0.41255242208E+03  0.00000000000E+00 0.  1.
          1   -1    0    0  501    0  0.00000000000E+00 -0.00000000000E+00 -0.15798438529E+04  0.15798438529E+04  0.00000000000E+00 0. -1.
         23    2    1    2    0    0 -0.47578789296E+02  0.44674731841E+03 -0.80550464378E+03  0.92710373716E+03  0.94003726531E+02 0.  0.
        254    2    1    2    0    0  0.47578789296E+02 -0.44674731841E+03 -0.36178678703E+03  0.10652925378E+04  0.89560683569E+03 0.  0.
        -24    2    4    4    0    0 -0.29774558552E+03  0.97850917795E+02 -0.42664415330E+01  0.32343617722E+03  0.79784224015E+02 0.  0.
         24    2    4    4    0    0  0.34532437481E+03 -0.54459823621E+03 -0.35752034550E+03  0.74185636059E+03  0.81816255005E+02 0.  0.
         11    1    3    3    0    0 -0.33703603484E+02  0.44142299423E+03 -0.76373723614E+03  0.88277106805E+03  0.00000000000E+00 0. -1.
        -11    1    3    3    0    0 -0.13875185811E+02  0.53243241889E+01 -0.41767407643E+02  0.44332669111E+02  0.00000000000E+00 0.  1.
          4    1    6    6  502    0  0.34717145644E+03 -0.52335451746E+03 -0.35145596256E+03  0.71968692132E+03  0.00000000000E+00 0. -1.
          3    1    5    5  503    0 -0.29045594296E+03  0.77529444748E+02  0.30504462878E+01  0.30064060741E+03  0.00000000000E+00 0. -1.
         -4    1    5    5    0  503 -0.72896425609E+01  0.20321473047E+02 -0.73168878207E+01  0.22795569807E+02  0.00000000000E+00 0.  1.
         -3    1    6    6    0  502 -0.18470816267E+01 -0.21243718754E+02 -0.60643829441E+01  0.22169439270E+02  0.00000000000E+00 0.  1.
<mgrwt>
<rscale>  0 0.16146435E+04</rscale>
<asrwt>0</asrwt>
<pdfrwt beam="1">  1        1 0.24305289E+00 0.16146435E+04</pdfrwt>
<pdfrwt beam="2">  1       -1 0.63469605E-01 0.16146435E+04</pdfrwt>
<totfact> 0.13900335E+01</totfact>
</mgrwt>
</event>
<event>
12    1  0.1536832E-007  0.1483587E+04  0.7818608E-02  0.8895441E-01
         -2   -1    0    0    0  501 -0.00000000000E+00  0.00000000000E+00  0.36735188806E+03  0.36735188806E+03  0.00000000000E+00 0.  1.
          2   -1    0    0  501    0  0.00000000000E+00 -0.00000000000E+00 -0.14979036735E+04  0.14979036735E+04  0.00000000000E+00 0. -1.
         23    2    1    2    0    0 -0.14168224167E+03  0.47144747644E+02 -0.91604950562E+03  0.93249572300E+03  0.90028283591E+02 0.  0.
        254    2    1    2    0    0  0.14168224167E+03 -0.47144747644E+02 -0.21450227985E+03  0.93275983858E+03  0.89539555705E+03 0.  0.
        -24    2    4    4    0    0 -0.25829515902E+03 -0.10056378238E+03 -0.39047860304E+03  0.48556376347E+03  0.80431122531E+02 0.  0.
         24    2    4    4    0    0  0.39997740069E+03  0.53419034732E+02  0.17597632319E+03  0.44719607511E+03  0.78620283248E+02 0.  0.
         11    1    3    3    0    0 -0.12336150909E+03  0.27774452871E+02 -0.50529009045E+03  0.52087192059E+03  0.00000000000E+00 0.  1.
        -11    1    3    3    0    0 -0.18320732578E+02  0.19370294773E+02 -0.41075941517E+03  0.41162380241E+03  0.00000000000E+00 0. -1.
          2    1    6    6  502    0  0.15450680206E+02 -0.78170666689E+01  0.23142342570E+02  0.28903253619E+02  0.00000000000E+00 0. -1.
          1    1    5    5  503    0 -0.75597453477E+01  0.71479796530E+01 -0.16571748908E+01  0.10535159774E+02  0.00000000000E+00 0. -1.
         -2    1    5    5    0  503 -0.25073541367E+03 -0.10771176203E+03 -0.38882142815E+03  0.47502860370E+03  0.00000000000E+00 0.  1.
         -1    1    6    6    0  502  0.38452672048E+03  0.61236101401E+02  0.15283398062E+03  0.41829282149E+03  0.00000000000E+00 0.  1.
<mgrwt>
<rscale>  0 0.14835872E+04</rscale>
<asrwt>0</asrwt>
<pdfrwt beam="1">  1        2 0.23044672E+00 0.14835872E+04</pdfrwt>
<pdfrwt beam="2">  1       -2 0.56515675E-01 0.14835872E+04</pdfrwt>
<totfact> 0.36164150E+01</totfact>
</mgrwt>
</event>
<event>
12    1  0.1536832E-007  0.1720712E+04  0.7818608E-02  0.8749639E-01
          2   -1    0    0  501    0  0.00000000000E+00  0.00000000000E+00  0.43294724918E+03  0.43294724918E+03  0.00000000000E+00 0. -1.
         -2   -1    0    0    0  501 -0.00000000000E+00 -0.00000000000E+00 -0.17097049994E+04  0.17097049994E+04  0.00000000000E+00 0.  1.
         23    2    1    2    0    0  0.38166676668E+03  0.25880391156E+03  0.52856108458E+02  0.47318650373E+03  0.91993008913E+02 0.  0.
        254    2    1    2    0    0 -0.38166676668E+03 -0.25880391156E+03 -0.13296138587E+04  0.16694657449E+04  0.89810571461E+03 0.  0.
        -24    2    4    4    0    0  0.11782545602E+03 -0.11477156861E+02 -0.10142880226E+04  0.10242215868E+04  0.78962666277E+02 0.  0.
         24    2    4    4    0    0 -0.49949222270E+03 -0.24732675470E+03 -0.31532583605E+03  0.64524415811E+03  0.79035666485E+02 0.  0.
         13    1    3    3    0    0  0.47399123477E+02  0.61483792354E+02 -0.15188363798E+02  0.79105120084E+02  0.00000000000E+00 0.  1.
        -13    1    3    3    0    0  0.33426764320E+03  0.19732011921E+03  0.68044472256E+02  0.39408138365E+03  0.00000000000E+00 0. -1.
          4    1    6    6  502    0 -0.18957049175E+03 -0.87401635836E+02 -0.75466603617E+02  0.22197122685E+03  0.00000000000E+00 0. -1.
          3    1    5    5  503    0  0.19489477271E+02 -0.35861890946E+02 -0.31454012376E+03  0.31717724445E+03  0.00000000000E+00 0. -1.
         -4    1    5    5    0  503  0.98335978748E+02  0.24384734085E+02 -0.69974789889E+03  0.70704434230E+03  0.00000000000E+00 0.  1.
         -3    1    6    6    0  502 -0.30992173095E+03 -0.15992511886E+03 -0.23985923243E+03  0.42327293126E+03  0.00000000000E+00 0.  1.
<mgrwt>
<rscale>  0 0.17207116E+04</rscale>
<asrwt>0</asrwt>
<pdfrwt beam="1">  1        2 0.66607269E-01 0.17207116E+04</pdfrwt>
<pdfrwt beam="2">  1       -2 0.26303154E+00 0.17207116E+04</pdfrwt>
<totfact> 0.36934978E+00</totfact>
</mgrwt>
</event>
<event>
12    1  0.1536832E-007  0.2192669E+04  0.7818608E-02  0.8521486E-01
          2   -1    0    0  501    0  0.00000000000E+00  0.00000000000E+00  0.26278399956E+04  0.26278399956E+04  0.00000000000E+00 0. -1.
         -2   -1    0    0    0  501 -0.00000000000E+00 -0.00000000000E+00 -0.45739068093E+03  0.45739068093E+03  0.00000000000E+00 0.  1.
         23    2    1    2    0    0  0.54213477400E+03  0.32739888365E+03  0.18110023793E+04  0.19206933465E+04  0.90736823566E+02 0.  0.
        254    2    1    2    0    0 -0.54213477400E+03 -0.32739888365E+03  0.35944693539E+03  0.11645373301E+04  0.90876011774E+03 0.  0.
        -24    2    4    4    0    0 -0.69432583232E+03 -0.47534643898E+03  0.15557830647E+03  0.85983292702E+03  0.84056257779E+02 0.  0.
         24    2    4    4    0    0  0.15219105832E+03  0.14794755533E+03  0.20386862893E+03  0.30470440306E+03  0.78941484812E+02 0.  0.
         13    1    3    3    0    0  0.11213535306E+03  0.32697250773E+02  0.38860529384E+03  0.40578014000E+03  0.00000000000E+00 0.  1.
        -13    1    3    3    0    0  0.42999942094E+03  0.29470163287E+03  0.14223970855E+04  0.15149132065E+04  0.00000000000E+00 0. -1.
          2    1    6    6  502    0  0.64831106317E+02  0.31585423408E+02  0.30323569443E+02  0.78231900027E+02  0.00000000000E+00 0. -1.
          3    1    5    5  503    0 -0.11086532114E+03 -0.45458400791E+02  0.37465363581E+02  0.12554377365E+03  0.00000000000E+00 0. -1.
         -4    1    5    5    0  503 -0.58346051118E+03 -0.42988803819E+03  0.11811294289E+03  0.73428915337E+03  0.00000000000E+00 0.  1.
         -1    1    6    6    0  502  0.87359952000E+02  0.11636213193E+03  0.17354505948E+03  0.22647250303E+03  0.00000000000E+00 0.  1.
<mgrwt>
<rscale>  0 0.21926692E+04</rscale>
<asrwt>0</asrwt>
<pdfrwt beam="1">  1        2 0.40428307E+00 0.21926692E+04</pdfrwt>
<pdfrwt beam="2">  1       -2 0.70367799E-01 0.21926692E+04</pdfrwt>
<totfact> 0.49270399E+00</totfact>
</mgrwt>
</event>
<event>
12    1  0.1536832E-007  0.1440412E+04  0.7818608E-02  0.8925074E-01
          1   -1    0    0  501    0  0.00000000000E+00  0.00000000000E+00  0.16702519250E+04  0.16702519250E+04  0.00000000000E+00 0. -1.
         -1   -1    0    0    0  501 -0.00000000000E+00 -0.00000000000E+00 -0.31055016277E+03  0.31055016277E+03  0.00000000000E+00 0.  1.
         23    2    1    2    0    0 -0.49057129114E+02  0.25641412975E+03  0.70695042241E+03  0.75913655533E+03  0.91403512139E+02 0.  0.
        254    2    1    2    0    0  0.49057129114E+02 -0.25641412975E+03  0.65275133982E+03  0.12216655324E+04  0.99911338379E+03 0.  0.
        -24    2    4    4    0    0 -0.40149792184E+03 -0.12222831291E+02  0.56135923598E+03  0.69490526814E+03  0.80119666843E+02 0.  0.
         24    2    4    4    0    0  0.45055505096E+03 -0.24419129845E+03  0.91392103837E+02  0.52676026431E+03  0.80589175604E+02 0.  0.
         13    1    3    3    0    0 -0.65419980970E+02  0.10206190539E+03  0.32277569222E+03  0.34479059432E+03  0.00000000000E+00 0.  1.
        -13    1    3    3    0    0  0.16362851857E+02  0.15435222436E+03  0.38417473019E+03  0.41434596101E+03  0.00000000000E+00 0. -1.
          4    1    6    6  502    0  0.14949521987E+03 -0.54442491219E+02 -0.96744102127E+00  0.15910292755E+03  0.00000000000E+00 0. -1.
          3    1    5    5  503    0 -0.27657319592E+03 -0.82218761391E+01  0.44575926339E+03  0.52465384097E+03  0.00000000000E+00 0. -1.
         -4    1    5    5    0  503 -0.12492472592E+03 -0.40009551520E+01  0.11559997260E+03  0.17025142717E+03  0.00000000000E+00 0.  1.
         -3    1    6    6    0  502  0.30105983109E+03 -0.18974880723E+03  0.92359544858E+02  0.36765733675E+03  0.00000000000E+00 0.  1.
<mgrwt>
<rscale>  0 0.14404125E+04</rscale>
<asrwt>0</asrwt>
<pdfrwt beam="1">  1        1 0.25696183E+00 0.14404125E+04</pdfrwt>
<pdfrwt beam="2">  1       -1 0.47776949E-01 0.14404125E+04</pdfrwt>
<totfact> 0.21243820E+01</totfact>
</mgrwt>
</event>
<event>
12    1  0.1536832E-007  0.1352086E+04  0.7818608E-02  0.8989251E-01
         -2   -1    0    0    0  501 -0.00000000000E+00  0.00000000000E+00  0.60218912991E+03  0.60218912991E+03  0.00000000000E+00 0.  1.
          2   -1    0    0  501    0  0.00000000000E+00 -0.00000000000E+00 -0.75895439844E+03  0.75895439844E+03  0.00000000000E+00 0. -1.
         23    2    1    2    0    0 -0.22409492988E+03  0.27263830937E+03 -0.15724048307E+03  0.39720716282E+03  0.92188802734E+02 0.  0.
        254    2    1    2    0    0  0.22409492988E+03 -0.27263830937E+03  0.47521453666E+00  0.96393636552E+03  0.89700775115E+03 0.  0.
        -24    2    4    4    0    0  0.55001095200E+03 -0.25306247619E+03  0.87213905971E+02  0.61692953476E+03  0.80269055618E+02 0.  0.
         24    2    4    4    0    0 -0.32591602213E+03 -0.19575833180E+02 -0.86738691434E+02  0.34700683076E+03  0.79282238093E+02 0.  0.
         11    1    3    3    0    0 -0.23057654443E+03  0.25831618234E+03 -0.13896510616E+03  0.37310064812E+03  0.00000000000E+00 0. -1.
        -11    1    3    3    0    0  0.64816145542E+01  0.14322127034E+02 -0.18275376903E+02  0.24106514699E+02  0.00000000000E+00 0.  1.
          2    1    6    6  502    0 -0.22577800041E+03  0.12945302702E+02 -0.32189160095E+02  0.22842816893E+03  0.00000000000E+00 0. -1.
          1    1    5    5  503    0  0.53701750272E+03 -0.25019385195E+03  0.97111109164E+02  0.60034600799E+03  0.00000000000E+00 0. -1.
         -2    1    5    5    0  503  0.12993449284E+02 -0.28686242355E+01 -0.98972031934E+01  0.16583526777E+02  0.00000000000E+00 0.  1.
         -1    1    6    6    0  502 -0.10013802172E+03 -0.32521135883E+02 -0.54549531339E+02  0.11857866183E+03  0.00000000000E+00 0.  1.
<mgrwt>
<rscale>  0 0.13520859E+04</rscale>
<asrwt>0</asrwt>
<pdfrwt beam="1">  1        2 0.11676221E+00 0.13520859E+04</pdfrwt>
<pdfrwt beam="2">  1       -2 0.92644482E-01 0.13520859E+04</pdfrwt>
<totfact> 0.35648496E+01</totfact>
</mgrwt>
</event>
<event>
12    1  0.1536832E-007  0.2716381E+04  0.7818608E-02  0.8329709E-01
         -2   -1    0    0    0  501 -0.00000000000E+00  0.00000000000E+00  0.10435474033E+04  0.10435474033E+04  0.00000000000E+00 0.  1.
          2   -1    0    0  501    0  0.00000000000E+00 -0.00000000000E+00 -0.17677028318E+04  0.17677028318E+04  0.00000000000E+00 0. -1.
         23    2    1    2    0    0 -0.64294009331E+03  0.30565102007E+03 -0.13293982731E+04  0.15106571313E+04  0.89390660413E+02 0.  0.
        254    2    1    2    0    0  0.64294009331E+03 -0.30565102007E+03  0.60524284455E+03  0.13005931038E+04  0.90467066439E+03 0.  0.
        -24    2    4    4    0    0  0.57311862870E+03  0.19625029859E+03  0.18845377129E+03  0.63987203550E+03  0.83320199463E+02 0.  0.
         24    2    4    4    0    0  0.69821464609E+02 -0.50190131865E+03  0.41678907326E+03  0.66072106826E+03  0.77841042319E+02 0.  0.
         13    1    3    3    0    0 -0.12172784645E+03  0.89042832402E+02 -0.33140594641E+03  0.36411014256E+03  0.00000000000E+00 0.  1.
        -13    1    3    3    0    0 -0.52121224686E+03  0.21660818767E+03 -0.99799232670E+03  0.11465469887E+04  0.00000000000E+00 0. -1.
          2    1    6    6  502    0 -0.47377377073E+01 -0.35876857594E+01 -0.11881342687E+01  0.60604711642E+01  0.00000000000E+00 0. -1.
          3    1    5    5  503    0  0.46732296145E+02  0.42286599401E+02  0.17638307789E+02  0.65445961628E+02  0.00000000000E+00 0. -1.
         -4    1    5    5    0  503  0.52638633256E+03  0.15396369919E+03  0.17081546350E+03  0.57442607387E+03  0.00000000000E+00 0.  1.
         -1    1    6    6    0  502  0.74559202316E+02 -0.49831363290E+03  0.41797720753E+03  0.65466059710E+03  0.00000000000E+00 0.  1.
<mgrwt>
<rscale>  0 0.27163812E+04</rscale>
<asrwt>0</asrwt>
<pdfrwt beam="1">  1        2 0.27195428E+00 0.27163812E+04</pdfrwt>
<pdfrwt beam="2">  1       -2 0.16054576E+00 0.27163812E+04</pdfrwt>
<totfact> 0.19665231E+00</totfact>
</mgrwt>
</event>
<event>
12    1  0.1536832E-007  0.1385219E+04  0.7818608E-02  0.8964587E-01
          2   -1    0    0  501    0  0.00000000000E+00  0.00000000000E+00  0.72009972119E+03  0.72009972119E+03  0.00000000000E+00 0. -1.
         -2   -1    0    0    0  501 -0.00000000000E+00 -0.00000000000E+00 -0.66616915777E+03  0.66616915777E+03  0.00000000000E+00 0.  1.
         23    2    1    2    0    0 -0.19057530257E+03  0.34044874048E+03 -0.12479813046E+02  0.40077356475E+03  0.90771215826E+02 0.  0.
        254    2    1    2    0    0  0.19057530257E+03 -0.34044874048E+03  0.66410376466E+02  0.98549531421E+03  0.90253331539E+03 0.  0.
        -24    2    4    4    0    0  0.31238735436E+02  0.26862008164E+03 -0.14509755164E+03  0.31699604344E+03  0.79376225769E+02 0.  0.
         24    2    4    4    0    0  0.15933656713E+03 -0.60906882211E+03  0.21150792810E+03  0.66849927077E+03  0.76175453186E+02 0.  0.
         13    1    3    3    0    0 -0.17037321211E+03  0.23046881512E+03  0.97225481746E+01  0.28677069950E+03  0.00000000000E+00 0. -1.
        -13    1    3    3    0    0 -0.20202090458E+02  0.10997992536E+03 -0.22202361221E+02  0.11400286525E+03  0.00000000000E+00 0.  1.
          4    1    6    6  502    0  0.64666968397E+02 -0.24316873635E+03  0.45508571957E+02  0.25570272048E+03  0.00000000000E+00 0. -1.
          3    1    5    5  503    0  0.54777606106E+02  0.17950360855E+03 -0.79266949775E+02  0.20372869444E+03  0.00000000000E+00 0. -1.
         -2    1    5    5    0  503 -0.23538870670E+02  0.89116473089E+02 -0.65830601861E+02  0.11326734900E+03  0.00000000000E+00 0.  1.
         -3    1    6    6    0  502  0.94669598737E+02 -0.36590008576E+03  0.16599935614E+03  0.41279655028E+03  0.00000000000E+00 0.  1.
<mgrwt>
<rscale>  0 0.13852194E+04</rscale>
<asrwt>0</asrwt>
<pdfrwt beam="1">  1        2 0.11078457E+00 0.13852194E+04</pdfrwt>
<pdfrwt beam="2">  1       -2 0.10248756E+00 0.13852194E+04</pdfrwt>
<totfact> 0.30003152E+01</totfact>
</mgrwt>
</event>
<event>
12    1  0.1536832E-007  0.1820958E+04  0.7818608E-02  0.8695233E-01
         -2   -1    0    0    0  501 -0.00000000000E+00  0.00000000000E+00  0.27905336226E+03  0.27905336226E+03  0.00000000000E+00 0.  1.
          2   -1    0    0  501    0  0.00000000000E+00 -0.00000000000E+00 -0.29706570262E+04  0.29706570262E+04  0.00000000000E+00 0. -1.
         23    2    1    2    0    0 -0.29149456259E+03  0.33407153363E+03 -0.89792252752E+02  0.46158183934E+03  0.91772959832E+02 0.  0.
        254    2    1    2    0    0  0.29149456259E+03 -0.33407153363E+03 -0.26018114112E+04  0.27881285491E+04  0.89870201812E+03 0.  0.
        -24    2    4    4    0    0  0.34503183557E+03  0.20454537006E+03 -0.15360300412E+04  0.15900496280E+04  0.89351867893E+02 0.  0.
         24    2    4    4    0    0 -0.53537272983E+02 -0.53861690369E+03 -0.10657813700E+04  0.11980789211E+04  0.80800766634E+02 0.  0.
         13    1    3    3    0    0 -0.13288243811E+03  0.22132949367E+03 -0.49720660422E+02  0.26290042069E+03  0.00000000000E+00 0. -1.
        -13    1    3    3    0    0 -0.15861212448E+03  0.11274203996E+03 -0.40071592330E+02  0.19868141866E+03  0.00000000000E+00 0.  1.
          4    1    6    6  502    0 -0.54769586734E+02 -0.46126933049E+03 -0.96549177457E+03  0.10714212382E+04  0.00000000000E+00 0. -1.
          1    1    5    5  503    0  0.24558774311E+03  0.18558093382E+03 -0.10866702806E+04  0.11294272537E+04  0.00000000000E+00 0. -1.
         -2    1    5    5    0  503  0.99444092457E+02  0.18964436240E+02 -0.44935976053E+03  0.46062237435E+03  0.00000000000E+00 0.  1.
         -3    1    6    6    0  502  0.12323137517E+01 -0.77347573196E+02 -0.10028959546E+03  0.12665768288E+03  0.00000000000E+00 0.  1.
<mgrwt>
<rscale>  0 0.18209578E+04</rscale>
<asrwt>0</asrwt>
<pdfrwt beam="1">  1        2 0.45702416E+00 0.18209578E+04</pdfrwt>
<pdfrwt beam="2">  1       -2 0.42931286E-01 0.18209578E+04</pdfrwt>
<totfact> 0.88365206E+00</totfact>
</mgrwt>
</event>
<event>
12    1  0.1536832E-007  0.2838650E+04  0.7818608E-02  0.8291369E-01
         -2   -1    0    0    0  501 -0.00000000000E+00  0.00000000000E+00  0.11701614628E+04  0.11701614628E+04  0.00000000000E+00 0.  1.
          2   -1    0    0  501    0  0.00000000000E+00 -0.00000000000E+00 -0.17215429358E+04  0.17215429358E+04  0.00000000000E+00 0. -1.
         23    2    1    2    0    0 -0.84370156711E+03 -0.91885673017E+03 -0.50903875654E+03  0.13503894766E+04  0.91111239454E+02 0.  0.
        254    2    1    2    0    0  0.84370156711E+03  0.91885673017E+03 -0.42342716413E+02  0.15413149220E+04  0.90428356074E+03 0.  0.
        -24    2    4    4    0    0  0.66390042953E+03  0.10346420034E+04 -0.22055075913E+03  0.12515477784E+04  0.80506823479E+02 0.  0.
         24    2    4    4    0    0  0.17980113758E+03 -0.11578527324E+03  0.17820804272E+03  0.28976714363E+03  0.80450061930E+02 0.  0.
         11    1    3    3    0    0 -0.77073438814E+03 -0.80577220905E+03 -0.43582266223E+03  0.11971807478E+04  0.00000000000E+00 0. -1.
        -11    1    3    3    0    0 -0.72967178966E+02 -0.11308452112E+03 -0.73216094309E+02  0.15320872882E+03  0.00000000000E+00 0.  1.
          2    1    6    6  502    0  0.70920106242E+01  0.67800958209E+01 -0.38006613494E+01  0.10521945672E+02  0.00000000000E+00 0. -1.
          3    1    5    5  503    0  0.89599484534E+02  0.17878112756E+03 -0.57184257797E+02  0.20799230404E+03  0.00000000000E+00 0. -1.
         -4    1    5    5    0  503  0.57430094500E+03  0.85586087586E+03 -0.16336650133E+03  0.10435554743E+04  0.00000000000E+00 0.  1.
         -1    1    6    6    0  502  0.17270912695E+03 -0.12256536906E+03  0.18200870407E+03  0.27924519796E+03  0.00000000000E+00 0.  1.
<mgrwt>
<rscale>  0 0.28386498E+04</rscale>
<asrwt>0</asrwt>
<pdfrwt beam="1">  1        2 0.26485276E+00 0.28386498E+04</pdfrwt>
<pdfrwt beam="2">  1       -2 0.18002484E+00 0.28386498E+04</pdfrwt>
<totfact> 0.15001099E+00</totfact>
</mgrwt>
</event>
<event>
12    1  0.1536832E-007  0.1383447E+04  0.7818608E-02  0.8965888E-01
         -1   -1    0    0    0  501 -0.00000000000E+00  0.00000000000E+00  0.44551457642E+03  0.44551457642E+03  0.00000000000E+00 0.  1.
          1   -1    0    0  501    0  0.00000000000E+00 -0.00000000000E+00 -0.10739970401E+04  0.10739970401E+04  0.00000000000E+00 0. -1.
         23    2    1    2    0    0 -0.20158827305E+03 -0.26269988416E+03 -0.41728927946E+03  0.53946656347E+03  0.85116211053E+02 0.  0.
        254    2    1    2    0    0  0.20158827305E+03  0.26269988416E+03 -0.21119318421E+03  0.98004505303E+03  0.89790683477E+03 0.  0.
        -24    2    4    4    0    0  0.29731030448E+03  0.46337880840E+03 -0.39522094317E+03  0.68232806428E+03  0.79111668919E+02 0.  0.
         24    2    4    4    0    0 -0.95722031428E+02 -0.20067892424E+03  0.18402775896E+03  0.29771698875E+03  0.73037328725E+02 0.  0.
         11    1    3    3    0    0 -0.26506244018E+01 -0.48617728552E+02 -0.46240554595E+02  0.67148330050E+02  0.00000000000E+00 0.  1.
        -11    1    3    3    0    0 -0.19893764865E+03 -0.21408215561E+03 -0.37104872486E+03  0.47231823342E+03  0.00000000000E+00 0. -1.
          2    1    6    6  502    0 -0.61968619288E+02 -0.50853291320E+02  0.56219925947E+02  0.97912446032E+02  0.00000000000E+00 0. -1.
          1    1    5    5  503    0  0.78307593992E+02  0.66816773911E+02 -0.81342426934E+02  0.13119889852E+03  0.00000000000E+00 0. -1.
         -2    1    5    5    0  503  0.21900271049E+03  0.39656203449E+03 -0.31387851623E+03  0.55112916576E+03  0.00000000000E+00 0.  1.
         -1    1    6    6    0  502 -0.33753412140E+02 -0.14982563292E+03  0.12780783301E+03  0.19980454271E+03  0.00000000000E+00 0.  1.
<mgrwt>
<rscale>  0 0.13834469E+04</rscale>
<asrwt>0</asrwt>
<pdfrwt beam="1">  1        1 0.16523031E+00 0.13834469E+04</pdfrwt>
<pdfrwt beam="2">  1       -1 0.68540705E-01 0.13834469E+04</pdfrwt>
<totfact> 0.27908173E+01</totfact>
</mgrwt>
</event>
<event>
12    1  0.1536832E-007  0.1410685E+04  0.7818608E-02  0.8946120E-01
          2   -1    0    0  501    0  0.00000000000E+00  0.00000000000E+00  0.64293333531E+03  0.64293333531E+03  0.00000000000E+00 0.  1.
         -2   -1    0    0    0  501 -0.00000000000E+00 -0.00000000000E+00 -0.77380970728E+03  0.77380970728E+03  0.00000000000E+00 0. -1.
         23    2    1    2    0    0 -0.17557509725E+02 -0.40625972753E+03  0.31097194026E+02  0.41781113925E+03  0.90795816242E+02 0.  0.
        254    2    1    2    0    0  0.17557509725E+02  0.40625972753E+03 -0.16197356599E+03  0.99893190333E+03  0.89792776940E+03 0.  0.
        -24    2    4    4    0    0 -0.12083614410E+03  0.60978475048E+03  0.95489542211E+02  0.63363989126E+03  0.77087245972E+02 0.  0.
         24    2    4    4    0    0  0.13839365382E+03 -0.20352502295E+03 -0.25746310820E+03  0.36529201207E+03  0.81091082174E+02 0.  0.
         11    1    3    3    0    0 -0.14895332479E+02 -0.37945846514E+03  0.52561752510E+02  0.38337101550E+03  0.00000000000E+00 0.  1.
        -11    1    3    3    0    0 -0.26621772460E+01 -0.26801262384E+02 -0.21464558483E+02  0.34440123751E+02  0.00000000000E+00 0. -1.
          2    1    6    6  502    0  0.59445573416E+02 -0.26253142972E+02 -0.60381621474E+02  0.88707068075E+02  0.00000000000E+00 0. -1.
          3    1    5    5  503    0  0.40694226279E+01  0.42024287448E+02  0.22197495233E+02  0.47700416462E+02  0.00000000000E+00 0. -1.
         -4    1    5    5    0  503 -0.12490556673E+03  0.56776046303E+03  0.73292046977E+02  0.58593947480E+03  0.00000000000E+00 0.  1.
         -1    1    6    6    0  502  0.78948080407E+02 -0.17727187998E+03 -0.19708148673E+03  0.27658494399E+03  0.00000000000E+00 0.  1.
<mgrwt>
<rscale>  0 0.14106850E+04</rscale>
<asrwt>0</asrwt>
<pdfrwt beam="1">  1        2 0.98912821E-01 0.14106850E+04</pdfrwt>
<pdfrwt beam="2">  1       -2 0.11904765E+00 0.14106850E+04</pdfrwt>
<totfact> 0.24003169E+01</totfact>
</mgrwt>
</event>
<event>
12    1  0.1536832E-007  0.1591367E+04  0.7818608E-02  0.8825869E-01
          2   -1    0    0  501    0  0.00000000000E+00  0.00000000000E+00  0.25224539777E+04  0.25224539777E+04  0.00000000000E+00 0. -1.
         -2   -1    0    0    0  501 -0.00000000000E+00 -0.00000000000E+00 -0.25099044458E+03  0.25099044458E+03  0.00000000000E+00 0.  1.
         23    2    1    2    0    0 -0.12811550659E+03 -0.18094717631E+03 -0.80999528944E+02  0.25230475245E+03  0.89113976318E+02 0.  0.
        254    2    1    2    0    0  0.12811550659E+03  0.18094717631E+03  0.23524630621E+04  0.25211396698E+04  0.87915147318E+03 0.  0.
        -24    2    4    4    0    0 -0.11766456107E+03  0.32614433813E+03  0.21009827093E+04  0.21309235707E+04  0.80571963616E+02 0.  0.
         24    2    4    4    0    0  0.24578006766E+03 -0.14519716182E+03  0.25148035280E+03  0.39021609914E+03  0.86811167018E+02 0.  0.
         13    1    3    3    0    0 -0.10164575327E+03 -0.17077915262E+03 -0.95457894160E+02  0.22047582108E+03  0.00000000000E+00 0.  1.
        -13    1    3    3    0    0 -0.26469753327E+02 -0.10168023690E+02  0.14458365216E+02  0.31828931362E+02  0.00000000000E+00 0. -1.
          4    1    6    6  502    0  0.85520531844E+02 -0.98042564805E+02  0.12771675506E+03  0.18231202759E+03  0.00000000000E+00 0. -1.
          1    1    5    5  503    0 -0.17590528553E+02  0.16668071895E+03  0.10132553679E+04  0.10270240160E+04  0.00000000000E+00 0. -1.
         -2    1    5    5    0  503 -0.10007403251E+03  0.15946361918E+03  0.10877273413E+04  0.11038995547E+04  0.00000000000E+00 0.  1.
         -3    1    6    6    0  502  0.16025953581E+03 -0.47154597017E+02  0.12376359774E+03  0.20790407155E+03  0.00000000000E+00 0.  1.
<mgrwt>
<rscale>  0 0.15913665E+04</rscale>
<asrwt>0</asrwt>
<pdfrwt beam="1">  1        2 0.38806983E+00 0.15913665E+04</pdfrwt>
<pdfrwt beam="2">  1       -2 0.38613916E-01 0.15913665E+04</pdfrwt>
<totfact> 0.20587119E+01</totfact>
</mgrwt>
</event>
<event>
12    1  0.1536832E-007  0.1503644E+04  0.7818608E-02  0.8882033E-01
          2   -1    0    0  501    0  0.00000000000E+00  0.00000000000E+00  0.28102327349E+04  0.28102327349E+04  0.00000000000E+00 0. -1.
         -2   -1    0    0    0  501 -0.00000000000E+00 -0.00000000000E+00 -0.20113509689E+03  0.20113509689E+03  0.00000000000E+00 0.  1.
         23    2    1    2    0    0 -0.43210869568E+03  0.83751914274E+02  0.47368327481E+03  0.65317512926E+03  0.92355815288E+02 0.  0.
        254    2    1    2    0    0  0.43210869568E+03 -0.83751914274E+02  0.21354143632E+04  0.23581927026E+04  0.89852435230E+03 0.  0.
        -24    2    4    4    0    0  0.33015586151E+03  0.17034597344E+03  0.20122564750E+04  0.20477851306E+04  0.78912460049E+02 0.  0.
         24    2    4    4    0    0  0.10195283417E+03 -0.25409788772E+03  0.12315788822E+03  0.31040757195E+03  0.78897898296E+02 0.  0.
         13    1    3    3    0    0 -0.40259515847E+03  0.79131535771E+02  0.39719024055E+03  0.57105581931E+03  0.00000000000E+00 0. -1.
        -13    1    3    3    0    0 -0.29513537212E+02  0.46203785029E+01  0.76493034262E+02  0.82119309951E+02  0.00000000000E+00 0.  1.
          4    1    6    6  502    0  0.58126025324E+02 -0.16329045992E+03  0.35774057728E+02  0.17698076824E+03  0.00000000000E+00 0. -1.
          1    1    5    5  503    0  0.26651154852E+03  0.10874893406E+03  0.16454170054E+04  0.16704046988E+04  0.00000000000E+00 0. -1.
         -2    1    5    5    0  503  0.63644312987E+02  0.61597039381E+02  0.36683946959E+03  0.37738043178E+03  0.00000000000E+00 0.  1.
         -3    1    6    6    0  502  0.43826808850E+02 -0.90807427795E+02  0.87383830488E+02  0.13342680371E+03  0.00000000000E+00 0.  1.
<mgrwt>
<rscale>  0 0.15036442E+04</rscale>
<asrwt>0</asrwt>
<pdfrwt beam="1">  1        2 0.43234347E+00 0.15036442E+04</pdfrwt>
<pdfrwt beam="2">  1       -2 0.30943863E-01 0.15036442E+04</pdfrwt>
<totfact> 0.21420722E+01</totfact>
</mgrwt>
</event>
<event>
12    1  0.1536832E-007  0.1358409E+04  0.7818608E-02  0.8984487E-01
          2   -1    0    0  501    0  0.00000000000E+00  0.00000000000E+00  0.10335851071E+04  0.10335851071E+04  0.00000000000E+00 0.  1.
         -2   -1    0    0    0  501 -0.00000000000E+00 -0.00000000000E+00 -0.44632843765E+03  0.44632843765E+03  0.00000000000E+00 0. -1.
         23    2    1    2    0    0 -0.18872749070E+02 -0.20054453095E+03  0.51726757598E+03  0.56313959858E+03  0.94795425916E+02 0.  0.
        254    2    1    2    0    0  0.18872749070E+02  0.20054453095E+03  0.69989093422E+02  0.91677394612E+03  0.89162868142E+03 0.  0.
        -24    2    4    4    0    0 -0.26909160563E+02  0.71552391886E+02  0.47159318832E+03  0.48432598099E+03  0.79546671099E+02 0.  0.
         24    2    4    4    0    0  0.45781909633E+02  0.12899213907E+03 -0.40160409490E+03  0.43244796513E+03  0.83608841086E+02 0.  0.
         11    1    3    3    0    0  0.11646873326E+02 -0.21159657919E+02  0.13842880832E+02  0.27838931935E+02  0.00000000000E+00 0. -1.
        -11    1    3    3    0    0 -0.30519622396E+02 -0.17938487304E+03  0.50342469515E+03  0.53530066665E+03  0.00000000000E+00 0.  1.
          4    1    6    6  502    0  0.20537800129E+02 -0.34171755920E+01 -0.99214673410E+02  0.10137568615E+03  0.00000000000E+00 0. -1.
          1    1    5    5  503    0 -0.52806660655E+02  0.28319212224E+02  0.25336854484E+03  0.26035771682E+03  0.00000000000E+00 0. -1.
         -2    1    5    5    0  503  0.25897500092E+02  0.43233179662E+02  0.21822464348E+03  0.22396826417E+03  0.00000000000E+00 0.  1.
         -3    1    6    6    0  502  0.25244109504E+02  0.13240931466E+03 -0.30238942149E+03  0.33107227897E+03  0.00000000000E+00 0.  1.
<mgrwt>
<rscale>  0 0.13584085E+04</rscale>
<asrwt>0</asrwt>
<pdfrwt beam="1">  1        2 0.15901309E+00 0.13584085E+04</pdfrwt>
<pdfrwt beam="2">  1       -2 0.68665914E-01 0.13584085E+04</pdfrwt>
<totfact> 0.45380266E+01</totfact>
</mgrwt>
</event>
<event>
12    1  0.1536832E-007  0.2265283E+04  0.7818608E-02  0.8491737E-01
          1   -1    0    0  501    0  0.00000000000E+00  0.00000000000E+00  0.22377251768E+04  0.22377251768E+04  0.00000000000E+00 0. -1.
         -1   -1    0    0    0  501 -0.00000000000E+00 -0.00000000000E+00 -0.57329512114E+03  0.57329512114E+03  0.00000000000E+00 0.  1.
         23    2    1    2    0    0  0.24095890510E+02 -0.44438833157E+02  0.19385240332E+04  0.19413966102E+04  0.92681976318E+02 0.  0.
        254    2    1    2    0    0 -0.24095890510E+02  0.44438833157E+02 -0.27409397756E+03  0.86962368779E+03  0.82374900789E+03 0.  0.
        -24    2    4    4    0    0 -0.32655591287E+02  0.30760678167E+03 -0.44312346085E+03  0.54628385458E+03  0.79870698306E+02 0.  0.
         24    2    4    4    0    0  0.85597007773E+01 -0.26316794851E+03  0.16902948330E+03  0.32333983321E+03  0.81529405223E+02 0.  0.
         11    1    3    3    0    0  0.92910259357E+01 -0.43364872861E+00  0.17556808990E+02  0.19868385844E+02  0.00000000000E+00 0.  1.
        -11    1    3    3    0    0  0.14804864574E+02 -0.44005184428E+02  0.19209672242E+04  0.19215282243E+04  0.00000000000E+00 0. -1.
          2    1    6    6  502    0 -0.16980254669E+02 -0.13364170153E+02  0.27907605571E+02  0.35295389801E+02  0.00000000000E+00 0. -1.
          3    1    5    5  503    0  0.22798665040E+02  0.12928583980E+03 -0.15762849530E+03  0.20513739306E+03  0.00000000000E+00 0. -1.
         -4    1    5    5    0  503 -0.55454256327E+02  0.17832094187E+03 -0.28549496555E+03  0.34114646152E+03  0.00000000000E+00 0.  1.
         -1    1    6    6    0  502  0.25539955446E+02 -0.24980377836E+03  0.14112187772E+03  0.28804444341E+03  0.00000000000E+00 0.  1.
<mgrwt>
<rscale>  0 0.22652831E+04</rscale>
<asrwt>0</asrwt>
<pdfrwt beam="1">  1        1 0.34426541E+00 0.22652831E+04</pdfrwt>
<pdfrwt beam="2">  1       -1 0.88199251E-01 0.22652831E+04</pdfrwt>
<totfact> 0.23502906E+00</totfact>
</mgrwt>
</event>
<event>
12    1  0.1536832E-007  0.2579642E+04  0.7818608E-02  0.8375150E-01
          1   -1    0    0  501    0  0.00000000000E+00  0.00000000000E+00  0.21298915507E+04  0.21298915507E+04  0.00000000000E+00 0. -1.
         -1   -1    0    0    0  501 -0.00000000000E+00 -0.00000000000E+00 -0.78109032705E+03  0.78109032705E+03  0.00000000000E+00 0.  1.
         23    2    1    2    0    0 -0.98582254179E+01 -0.72963640717E+01  0.18821120545E+04  0.18844973594E+04  0.93989841067E+02 0.  0.
        254    2    1    2    0    0  0.98582254179E+01  0.72963640717E+01 -0.53331083084E+03  0.10264845184E+04  0.87698323967E+03 0.  0.
        -24    2    4    4    0    0 -0.10385888370E+03  0.41931193986E+03 -0.23853960679E+03  0.49986533144E+03  0.79718472996E+02 0.  0.
         24    2    4    4    0    0  0.11371710912E+03 -0.41201557579E+03 -0.29477122405E+03  0.52661918694E+03  0.88029983159E+02 0.  0.
         11    1    3    3    0    0 -0.39546633766E+02  0.23797595611E+02  0.12906148277E+04  0.12914398535E+04  0.00000000000E+00 0. -1.
        -11    1    3    3    0    0  0.29688408349E+02 -0.31093959683E+02  0.59149722683E+03  0.59305750587E+03  0.00000000000E+00 0.  1.
          4    1    6    6  502    0  0.12561437607E+03 -0.35671395690E+03 -0.27101398531E+03  0.46526594412E+03  0.00000000000E+00 0. -1.
          3    1    5    5  503    0 -0.63846851905E+02  0.36825657109E+03 -0.19326894471E+03  0.42076383833E+03  0.00000000000E+00 0. -1.
         -4    1    5    5    0  503 -0.40012031793E+02  0.51055368765E+02 -0.45270662083E+02  0.79101493117E+02  0.00000000000E+00 0.  1.
         -3    1    6    6    0  502 -0.11897266959E+02 -0.55301618886E+02 -0.23757238733E+02  0.61353242822E+02  0.00000000000E+00 0.  1.
<mgrwt>
<rscale>  0 0.25796416E+04</rscale>
<asrwt>0</asrwt>
<pdfrwt beam="1">  1        1 0.32767562E+00 0.25796416E+04</pdfrwt>
<pdfrwt beam="2">  1       -1 0.12016774E+00 0.25796416E+04</pdfrwt>
<totfact> 0.13234671E+00</totfact>
</mgrwt>
</event>
<event>
12    1  0.1536832E-007  0.2622999E+04  0.7818608E-02  0.8360431E-01
         -1   -1    0    0    0  501 -0.00000000000E+00  0.00000000000E+00  0.11385315367E+04  0.11385315367E+04  0.00000000000E+00 0.  1.
          1   -1    0    0  501    0  0.00000000000E+00 -0.00000000000E+00 -0.15107455692E+04  0.15107455692E+04  0.00000000000E+00 0. -1.
         23    2    1    2    0    0  0.38058988887E+03  0.11369508462E+02  0.94238438982E+03  0.10203854441E+04  0.90112081067E+02 0.  0.
        254    2    1    2    0    0 -0.38058988887E+03 -0.11369508462E+02 -0.13145984223E+04  0.16288916618E+04  0.88325596779E+03 0.  0.
        -24    2    4    4    0    0 -0.19894361286E+02 -0.27545029199E+03 -0.58295773279E+02  0.29303729635E+03  0.78764274285E+02 0.  0.
         24    2    4    4    0    0 -0.36069552758E+03  0.26408078353E+03 -0.12563026491E+04  0.13358543654E+04  0.79816137443E+02 0.  0.
         11    1    3    3    0    0  0.35675505435E+03  0.18659289274E+02  0.91984386338E+03  0.98678015327E+03  0.00000000000E+00 0.  1.
        -11    1    3    3    0    0  0.23834834520E+02 -0.72897808125E+01  0.22540526437E+02  0.33605290848E+02  0.00000000000E+00 0. -1.
          2    1    6    6  502    0 -0.29334611519E+03  0.23750260121E+03 -0.97850445510E+03  0.10487756660E+04  0.00000000000E+00 0. -1.
          1    1    5    5  503    0 -0.39203142024E+02 -0.25203126113E+03 -0.61916213722E+02  0.26246954196E+03  0.00000000000E+00 0. -1.
         -2    1    5    5    0  503  0.19308780738E+02 -0.23419030856E+02  0.36204404439E+01  0.30567754396E+02  0.00000000000E+00 0.  1.
         -1    1    6    6    0  502 -0.67349412393E+02  0.26578182314E+02 -0.27779819396E+03  0.28707869947E+03  0.00000000000E+00 0.  1.
<mgrwt>
<rscale>  0 0.26229994E+04</rscale>
<asrwt>0</asrwt>
<pdfrwt beam="1">  1        1 0.23242239E+00 0.26229994E+04</pdfrwt>
<pdfrwt beam="2">  1       -1 0.17515870E+00 0.26229994E+04</pdfrwt>
<totfact> 0.12751360E+00</totfact>
</mgrwt>
</event>
<event>
12    1  0.1536832E-007  0.1174348E+04  0.7818608E-02  0.9135611E-01
          4   -1    0    0  501    0  0.00000000000E+00  0.00000000000E+00  0.46361925575E+03  0.46361925575E+03  0.00000000000E+00 0. -1.
         -4   -1    0    0    0  501 -0.00000000000E+00 -0.00000000000E+00 -0.74365587963E+03  0.74365587963E+03  0.00000000000E+00 0.  1.
         23    2    1    2    0    0  0.53533559319E+01  0.96891944792E+02 -0.27805150118E+03  0.30721189532E+03  0.87463157562E+02 0.  0.
        254    2    1    2    0    0 -0.53533559319E+01 -0.96891944792E+02 -0.19851227035E+01  0.90006324006E+03  0.89481461097E+03 0.  0.
        -24    2    4    4    0    0 -0.25355918679E+03 -0.26649735841E+03  0.28887600811E+03  0.47412422122E+03  0.77661611121E+02 0.  0.
         24    2    4    4    0    0  0.24820583086E+03  0.16960541362E+03 -0.29086113082E+03  0.42593901884E+03  0.80322596747E+02 0.  0.
         13    1    3    3    0    0 -0.32021620623E+02  0.64241061319E+02 -0.21682753543E+03  0.22839982108E+03  0.00000000000E+00 0.  1.
        -13    1    3    3    0    0  0.37374976555E+02  0.32650883473E+02 -0.61223965748E+02  0.78812074240E+02  0.00000000000E+00 0. -1.
          4    1    6    6  502    0  0.88956731615E+01 -0.85591619364E+01 -0.73439650807E+01  0.14364055039E+02  0.00000000000E+00 0. -1.
          3    1    5    5  503    0 -0.17424812487E+01  0.20604613069E+01  0.15087115026E+02  0.15326538471E+02  0.00000000000E+00 0. -1.
         -2    1    5    5    0  503 -0.25181670554E+03 -0.26855781972E+03  0.27378889309E+03  0.45879768275E+03  0.00000000000E+00 0.  1.
         -3    1    6    6    0  502  0.23931015769E+03  0.17816457556E+03 -0.28351716573E+03  0.41157496380E+03  0.00000000000E+00 0.  1.
<mgrwt>
<rscale>  0 0.11743478E+04</rscale>
<asrwt>0</asrwt>
<pdfrwt beam="1">  1        4 0.71326040E-01 0.11743478E+04</pdfrwt>
<pdfrwt beam="2">  1       -4 0.11440860E+00 0.11743478E+04</pdfrwt>
<totfact> 0.21077638E+00</totfact>
</mgrwt>
</event>
<event>
12    1  0.1536832E-007  0.1675982E+04  0.7818608E-02  0.8775183E-01
         -1   -1    0    0    0  501 -0.00000000000E+00  0.00000000000E+00  0.40070933928E+03  0.40070933928E+03  0.00000000000E+00 0.  1.
          1   -1    0    0  501    0  0.00000000000E+00 -0.00000000000E+00 -0.17524643319E+04  0.17524643319E+04  0.00000000000E+00 0. -1.
         23    2    1    2    0    0  0.47243394240E+03 -0.11963848801E+03 -0.92270988035E+03  0.10473417585E+04  0.89576994747E+02 0.  0.
        254    2    1    2    0    0 -0.47243394240E+03  0.11963848801E+03 -0.42904511224E+03  0.11058319127E+04  0.89514094591E+03 0.  0.
        -24    2    4    4    0    0  0.11633360281E+03 -0.12191676164E+03 -0.42511373862E+03  0.46435174674E+03  0.80645210823E+02 0.  0.
         24    2    4    4    0    0 -0.58876754521E+03  0.24155524965E+03 -0.39313736214E+01  0.64148016595E+03  0.80530656749E+02 0.  0.
         11    1    3    3    0    0  0.20844859796E+03 -0.44333129749E+02 -0.31276586294E+03  0.37846892793E+03  0.00000000000E+00 0. -1.
        -11    1    3    3    0    0  0.26398534444E+03 -0.75305358260E+02 -0.60994401741E+03  0.66887283054E+03  0.00000000000E+00 0.  1.
          4    1    6    6  502    0 -0.18477335742E+03  0.73377926999E+02  0.36064600384E+02  0.20205486676E+03  0.00000000000E+00 0. -1.
          3    1    5    5  503    0  0.55416639761E+02 -0.64984161833E+02 -0.31415422678E+03  0.32555617558E+03  0.00000000000E+00 0. -1.
         -4    1    5    5    0  503  0.60916963052E+02 -0.56932599805E+02 -0.11095951184E+03  0.13879557117E+03  0.00000000000E+00 0.  1.
         -3    1    6    6    0  502 -0.40399418780E+03  0.16817732265E+03 -0.39995974005E+02  0.43942529918E+03  0.00000000000E+00 0.  1.
<mgrwt>
<rscale>  0 0.16759819E+04</rscale>
<asrwt>0</asrwt>
<pdfrwt beam="1">  1        1 0.26960989E+00 0.16759819E+04</pdfrwt>
<pdfrwt beam="2">  1       -1 0.61647591E-01 0.16759819E+04</pdfrwt>
<totfact> 0.11169449E+01</totfact>
</mgrwt>
</event>
<event>
12    1  0.1536832E-007  0.1360165E+04  0.7818608E-02  0.8983169E-01
          1   -1    0    0  501    0  0.00000000000E+00  0.00000000000E+00  0.34217571256E+03  0.34217571256E+03  0.00000000000E+00 0. -1.
         -1   -1    0    0    0  501 -0.00000000000E+00 -0.00000000000E+00 -0.13516812056E+04  0.13516812056E+04  0.00000000000E+00 0.  1.
         23    2    1    2    0    0 -0.83527669175E+02 -0.30655821572E+03 -0.53774314511E+03  0.63113341131E+03  0.90591840826E+02 0.  0.
        254    2    1    2    0    0  0.83527669175E+02  0.30655821572E+03 -0.47176234792E+03  0.10627235068E+04  0.89770080089E+03 0.  0.
        -24    2    4    4    0    0 -0.34183975180E+03  0.20425573702E+03  0.11346152604E+02  0.40628826459E+03  0.79790956562E+02 0.  0.
         24    2    4    4    0    0  0.42536742098E+03  0.10230247870E+03 -0.48310850053E+03  0.65643524224E+03  0.78167538017E+02 0.  0.
         11    1    3    3    0    0 -0.96557830223E+01 -0.16537321568E+03 -0.33072447002E+03  0.36989215953E+03  0.00000000000E+00 0.  1.
        -11    1    3    3    0    0 -0.73871886153E+02 -0.14118500004E+03 -0.20701867508E+03  0.26124125178E+03  0.00000000000E+00 0. -1.
          4    1    6    6  502    0  0.14926759305E+03  0.63062149506E+02 -0.13884315724E+03  0.21338948275E+03  0.00000000000E+00 0. -1.
          1    1    5    5  503    0 -0.46160668938E+02  0.40292057472E+01 -0.13691524763E+02  0.48316660751E+02  0.00000000000E+00 0. -1.
         -2    1    5    5    0  503 -0.29567908286E+03  0.20022653128E+03  0.25037677368E+02  0.35797160384E+03  0.00000000000E+00 0.  1.
         -3    1    6    6    0  502  0.27609982792E+03  0.39240329194E+02 -0.34426534329E+03  0.44304575949E+03  0.00000000000E+00 0.  1.
<mgrwt>
<rscale>  0 0.13601654E+04</rscale>
<asrwt>0</asrwt>
<pdfrwt beam="1">  1        1 0.52642417E-01 0.13601654E+04</pdfrwt>
<pdfrwt beam="2">  1       -1 0.20795096E+00 0.13601654E+04</pdfrwt>
<totfact> 0.95806978E+00</totfact>
</mgrwt>
</event>
<event>
12    1  0.1536832E-007  0.2630034E+04  0.7818608E-02  0.8358070E-01
         -2   -1    0    0    0  501 -0.00000000000E+00  0.00000000000E+00  0.11334545450E+04  0.11334545450E+04  0.00000000000E+00 0.  1.
          2   -1    0    0  501    0  0.00000000000E+00 -0.00000000000E+00 -0.15256632953E+04  0.15256632953E+04  0.00000000000E+00 0. -1.
         23    2    1    2    0    0 -0.83366238289E+03 -0.72880654258E+03  0.16652805128E+03  0.11233580871E+04  0.89720983859E+02 0.  0.
        254    2    1    2    0    0  0.83366238289E+03  0.72880654258E+03 -0.55873680157E+03  0.15357597531E+04  0.90565957224E+03 0.  0.
        -24    2    4    4    0    0 -0.10621632185E+03 -0.72198670563E+02  0.45234514823E+02  0.15872184628E+03  0.81559230603E+02 0.  0.
         24    2    4    4    0    0  0.93987870474E+03  0.80100521314E+03 -0.60397131639E+03  0.13770379069E+04  0.80440753419E+02 0.  0.
         11    1    3    3    0    0 -0.49401392764E+03 -0.44263446439E+03  0.55929260575E+02  0.66565990712E+03  0.00000000000E+00 0.  1.
        -11    1    3    3    0    0 -0.33964845525E+03 -0.28617207819E+03  0.11059879070E+03  0.45769818002E+03  0.00000000000E+00 0. -1.
          2    1    6    6  502    0  0.86849290862E+03  0.74871705368E+03 -0.58174937919E+03  0.12858030561E+04  0.00000000000E+00 0. -1.
          1    1    5    5  503    0 -0.10389138821E+03 -0.78134958615E+02  0.59599589574E+02  0.14300560612E+03  0.00000000000E+00 0. -1.
         -2    1    5    5    0  503 -0.23249336336E+01  0.59362880518E+01 -0.14365074752E+02  0.15716240163E+02  0.00000000000E+00 0.  1.
         -1    1    6    6    0  502  0.71385796118E+02  0.52288159460E+02 -0.22221937204E+02  0.91234850799E+02  0.00000000000E+00 0.  1.
<mgrwt>
<rscale>  0 0.26300342E+04</rscale>
<asrwt>0</asrwt>
<pdfrwt beam="1">  1        2 0.23471743E+00 0.26300342E+04</pdfrwt>
<pdfrwt beam="2">  1       -2 0.17437762E+00 0.26300342E+04</pdfrwt>
<totfact> 0.21503867E+00</totfact>
</mgrwt>
</event>
<event>
12    1  0.1536832E-007  0.1826138E+04  0.7818608E-02  0.8692522E-01
         -2   -1    0    0    0  501 -0.00000000000E+00  0.00000000000E+00  0.52867955127E+03  0.52867955127E+03  0.00000000000E+00 0. -1.
          2   -1    0    0  501    0  0.00000000000E+00 -0.00000000000E+00 -0.15769390642E+04  0.15769390642E+04  0.00000000000E+00 0.  1.
         23    2    1    2    0    0  0.41875167553E+03  0.12176579583E+03 -0.10120859294E+04  0.11057674023E+04  0.90684864373E+02 0.  0.
        254    2    1    2    0    0 -0.41875167553E+03 -0.12176579583E+03 -0.36173583480E+02  0.99985121315E+03  0.89900725553E+03 0.  0.
        -24    2    4    4    0    0 -0.60350601785E+03 -0.26247722782E+03 -0.21415426316E+03  0.69663694381E+03  0.79543537401E+02 0.  0.
         24    2    4    4    0    0  0.18475434233E+03  0.14071143199E+03  0.17798067968E+03  0.30321426934E+03  0.79548077840E+02 0.  0.
         11    1    3    3    0    0  0.19867695114E+03  0.10418826598E+03 -0.48942425538E+03  0.53839003282E+03  0.00000000000E+00 0.  1.
        -11    1    3    3    0    0  0.22007472439E+03  0.17577529852E+02 -0.52266167404E+03  0.56737736946E+03  0.00000000000E+00 0. -1.
          4    1    6    6  502    0  0.18685559802E+03  0.14402248158E+03  0.18172340028E+03  0.29779335775E+03  0.00000000000E+00 0. -1.
          1    1    5    5  503    0 -0.37754358863E+03 -0.12550655326E+03 -0.14550175999E+03  0.42362934080E+03  0.00000000000E+00 0. -1.
         -2    1    5    5    0  503 -0.22596242922E+03 -0.13697067456E+03 -0.68652503176E+02  0.27300760301E+03  0.00000000000E+00 0.  1.
         -3    1    6    6    0  502 -0.21012556911E+01 -0.33110495905E+01 -0.37427206034E+01  0.54209115825E+01  0.00000000000E+00 0.  1.
<mgrwt>
<rscale>  0 0.18261385E+04</rscale>
<asrwt>0</asrwt>
<pdfrwt beam="1">  1        2 0.24260601E+00 0.18261385E+04</pdfrwt>
<pdfrwt beam="2">  1       -2 0.81335316E-01 0.18261385E+04</pdfrwt>
<totfact> 0.14412747E+01</totfact>
</mgrwt>
</event>
<event>
12    1  0.1536832E-007  0.2916202E+04  0.7818608E-02  0.8268073E-01
          1   -1    0    0  501    0  0.00000000000E+00  0.00000000000E+00  0.23512484659E+04  0.23512484659E+04  0.00000000000E+00 0. -1.
         -1   -1    0    0    0  501 -0.00000000000E+00 -0.00000000000E+00 -0.90422507568E+03  0.90422507568E+03  0.00000000000E+00 0.  1.
         23    2    1    2    0    0 -0.46808274668E+03  0.67383068458E+03 -0.49630915927E+03  0.96315703145E+03  0.90550739482E+02 0.  0.
        254    2    1    2    0    0  0.46808274668E+03 -0.67383068458E+03  0.19433325495E+04  0.22923165101E+04  0.89723148379E+03 0.  0.
        -24    2    4    4    0    0  0.39511369392E+03 -0.82939983257E+03  0.18772975256E+04  0.20915774655E+04  0.80195890389E+02 0.  0.
         24    2    4    4    0    0  0.72969052761E+02  0.15556914799E+03  0.66035023842E+02  0.20073904468E+03  0.80058086521E+02 0.  0.
         13    1    3    3    0    0 -0.11617036634E+02  0.15299060613E+01 -0.16769482770E+01  0.11836735540E+02  0.00000000000E+00 0. -1.
        -13    1    3    3    0    0 -0.45646571005E+03  0.67230077852E+03 -0.49463221100E+03  0.95132029591E+03  0.00000000000E+00 0.  1.
          2    1    6    6  502    0  0.64262019837E+02  0.15197197951E+03  0.80411081048E+02  0.18355116918E+03  0.00000000000E+00 0. -1.
          1    1    5    5  503    0  0.18590947240E+03 -0.37788120099E+03  0.77125796853E+03  0.87874648677E+03  0.00000000000E+00 0. -1.
         -2    1    5    5    0  503  0.20920422152E+03 -0.45151863157E+03  0.11060395571E+04  0.12128309787E+04  0.00000000000E+00 0.  1.
         -1    1    6    6    0  502  0.87070329232E+01  0.35971684728E+01 -0.14376057206E+02  0.17187875498E+02  0.00000000000E+00 0.  1.
<mgrwt>
<rscale>  0 0.29162015E+04</rscale>
<asrwt>0</asrwt>
<pdfrwt beam="1">  1        1 0.36173053E+00 0.29162015E+04</pdfrwt>
<pdfrwt beam="2">  1       -1 0.13911155E+00 0.29162015E+04</pdfrwt>
<totfact> 0.62683636E-01</totfact>
</mgrwt>
</event>
<event>
12    1  0.1536832E-007  0.1458700E+04  0.7818608E-02  0.8912391E-01
          1   -1    0    0  501    0  0.00000000000E+00  0.00000000000E+00  0.90892035248E+03  0.90892035248E+03  0.00000000000E+00 0. -1.
         -1   -1    0    0    0  501 -0.00000000000E+00 -0.00000000000E+00 -0.58525627995E+03  0.58525627995E+03  0.00000000000E+00 0.  1.
         23    2    1    2    0    0  0.31348773583E+03  0.24610313853E+02  0.43243406753E+03  0.54227486735E+03  0.90457619559E+02 0.  0.
        254    2    1    2    0    0 -0.31348773583E+03 -0.24610313853E+02 -0.10876999499E+03  0.95190176508E+03  0.89185527441E+03 0.  0.
        -24    2    4    4    0    0 -0.35775340365E+03  0.37013907746E+03  0.33027225470E+02  0.52186864680E+03  0.79155874109E+02 0.  0.
         24    2    4    4    0    0  0.44265667825E+02 -0.39474939132E+03 -0.14179722046E+03  0.43003311828E+03  0.83877886204E+02 0.  0.
         11    1    3    3    0    0  0.18998354615E+03 -0.50222996535E+00  0.18808973113E+03  0.26734200380E+03  0.00000000000E+00 0.  1.
        -11    1    3    3    0    0  0.12350418968E+03  0.25112543818E+02  0.24434433640E+03  0.27493286354E+03  0.00000000000E+00 0. -1.
          4    1    6    6  502    0  0.22834613630E+02 -0.26486128739E+03 -0.13513921777E+03  0.29822060512E+03  0.00000000000E+00 0. -1.
          3    1    5    5  503    0 -0.26114379940E+03  0.23315923173E+03  0.48960559567E+02  0.35349179298E+03  0.00000000000E+00 0. -1.
         -4    1    5    5    0  503 -0.96609604248E+02  0.13697984573E+03 -0.15933334097E+02  0.16837685383E+03  0.00000000000E+00 0.  1.
         -3    1    6    6    0  502  0.21431054195E+02 -0.12988810392E+03 -0.66580026838E+01  0.13181251316E+03  0.00000000000E+00 0.  1.
<mgrwt>
<rscale>  0 0.14586999E+04</rscale>
<asrwt>0</asrwt>
<pdfrwt beam="1">  1        1 0.13983390E+00 0.14586999E+04</pdfrwt>
<pdfrwt beam="2">  1       -1 0.90039427E-01 0.14586999E+04</pdfrwt>
<totfact> 0.20963750E+01</totfact>
</mgrwt>
</event>
<event>
12    1  0.1536832E-007  0.2831088E+04  0.7818608E-02  0.8293681E-01
          1   -1    0    0  501    0  0.00000000000E+00  0.00000000000E+00  0.94877183212E+03  0.94877183212E+03  0.00000000000E+00 0. -1.
         -1   -1    0    0    0  501 -0.00000000000E+00 -0.00000000000E+00 -0.21119560504E+04  0.21119560504E+04  0.00000000000E+00 0.  1.
         23    2    1    2    0    0  0.12029528946E+04 -0.37078713925E+03 -0.34163312717E+03  0.13076700820E+04  0.93322453782E+02 0.  0.
        254    2    1    2    0    0 -0.12029528946E+04  0.37078713925E+03 -0.82155109112E+03  0.17530578006E+04  0.90204583445E+03 0.  0.
        -24    2    4    4    0    0 -0.16781404442E+03 -0.27058577690E+03 -0.16468916687E+03  0.36717234195E+03  0.79465658242E+02 0.  0.
         24    2    4    4    0    0 -0.10351388502E+04  0.64137291615E+03 -0.65686192424E+03  0.13858854586E+04  0.79619470469E+02 0.  0.
         13    1    3    3    0    0  0.11136095545E+04 -0.36701337841E+03 -0.32470745318E+03  0.12166593566E+04  0.00000000000E+00 0.  1.
        -13    1    3    3    0    0  0.89343340111E+02 -0.37737608336E+01 -0.16925673981E+02  0.91010725372E+02  0.00000000000E+00 0. -1.
          4    1    6    6  502    0 -0.69077553044E+03  0.38722848915E+03 -0.40867487844E+03  0.89114078154E+03  0.00000000000E+00 0. -1.
          1    1    5    5  503    0 -0.70572467380E+02 -0.18711459045E+03 -0.97880099584E+02  0.22264962835E+03  0.00000000000E+00 0. -1.
         -2    1    5    5    0  503 -0.97241577042E+02 -0.83471186458E+02 -0.66809067290E+02  0.14452271360E+03  0.00000000000E+00 0.  1.
         -3    1    6    6    0  502 -0.34436331977E+03  0.25414442700E+03 -0.24818704581E+03  0.49474467706E+03  0.00000000000E+00 0.  1.
<mgrwt>
<rscale>  0 0.28310877E+04</rscale>
<asrwt>0</asrwt>
<pdfrwt beam="1">  1        1 0.14596490E+00 0.28310877E+04</pdfrwt>
<pdfrwt beam="2">  1       -1 0.32491631E+00 0.28310877E+04</pdfrwt>
<totfact> 0.32598963E-01</totfact>
</mgrwt>
</event>
<event>
12    1  0.1536832E-007  0.1260355E+04  0.7818608E-02  0.9061608E-01
         -2   -1    0    0    0  501 -0.00000000000E+00  0.00000000000E+00  0.20225402518E+03  0.20225402518E+03  0.00000000000E+00 0.  1.
          2   -1    0    0  501    0  0.00000000000E+00 -0.00000000000E+00 -0.19634903042E+04  0.19634903042E+04  0.00000000000E+00 0. -1.
         23    2    1    2    0    0  0.25978897506E+03  0.17399336846E+02 -0.70308885883E+03  0.75521724001E+03  0.90697782323E+02 0.  0.
        254    2    1    2    0    0 -0.25978897506E+03 -0.17399336846E+02 -0.10581474202E+04  0.14105270893E+04  0.89561021572E+03 0.  0.
        -24    2    4    4    0    0  0.30033163174E+03 -0.13178284323E+03 -0.52671879389E+03  0.62579810517E+03  0.81392713494E+02 0.  0.
         24    2    4    4    0    0 -0.56012060680E+03  0.11438350638E+03 -0.53142862627E+03  0.78472898417E+03  0.81021682796E+02 0.  0.
         13    1    3    3    0    0  0.50119717835E+02 -0.24138075797E+02 -0.22054982992E+03  0.22745738127E+03  0.00000000000E+00 0. -1.
        -13    1    3    3    0    0  0.20966925722E+03  0.41537412644E+02 -0.48253902891E+03  0.52775985874E+03  0.00000000000E+00 0.  1.
          2    1    6    6  502    0 -0.37159379595E+03  0.78983134878E+02 -0.40330501372E+03  0.55405344406E+03  0.00000000000E+00 0. -1.
          1    1    5    5  503    0  0.17483891430E+03 -0.76988472116E+02 -0.22989287635E+03  0.29890902527E+03  0.00000000000E+00 0. -1.
         -2    1    5    5    0  503  0.12549271744E+03 -0.54794371115E+02 -0.29682591754E+03  0.32688907991E+03  0.00000000000E+00 0.  1.
         -1    1    6    6    0  502 -0.18852681085E+03  0.35400371506E+02 -0.12812361255E+03  0.23067554010E+03  0.00000000000E+00 0.  1.
<mgrwt>
<rscale>  0 0.12603552E+04</rscale>
<asrwt>0</asrwt>
<pdfrwt beam="1">  1        2 0.30207545E+00 0.12603552E+04</pdfrwt>
<pdfrwt beam="2">  1       -2 0.31116002E-01 0.12603552E+04</pdfrwt>
<totfact> 0.65946608E+01</totfact>
</mgrwt>
</event>
<event>
12    1  0.1536832E-007  0.2617095E+04  0.7818608E-02  0.8362417E-01
          2   -1    0    0  501    0  0.00000000000E+00  0.00000000000E+00  0.12072916386E+04  0.12072916386E+04  0.00000000000E+00 0. -1.
         -2   -1    0    0    0  501 -0.00000000000E+00 -0.00000000000E+00 -0.14182959691E+04  0.14182959691E+04  0.00000000000E+00 0.  1.
         23    2    1    2    0    0  0.83395561150E+03 -0.61760760049E+03 -0.57788263714E+03  0.11913989929E+04  0.92531658430E+02 0.  0.
        254    2    1    2    0    0 -0.83395561150E+03  0.61760760049E+03  0.36687830671E+03  0.14341886148E+04  0.91944340811E+03 0.  0.
        -24    2    4    4    0    0 -0.78235910851E+03  0.36399732623E+03  0.61755525686E+03  0.10641874445E+04  0.80873935963E+02 0.  0.
         24    2    4    4    0    0 -0.51596502995E+02  0.25361027426E+03 -0.25067695015E+03  0.37000117033E+03  0.84152019431E+02 0.  0.
         13    1    3    3    0    0  0.70832482536E+02 -0.44796025800E+02 -0.20258096463E+02  0.86222473764E+02  0.00000000000E+00 0. -1.
        -13    1    3    3    0    0  0.76312312896E+03 -0.57281157469E+03 -0.55762454067E+03  0.11051765191E+04  0.00000000000E+00 0.  1.
          4    1    6    6  502    0 -0.16454804295E+02  0.66604477948E+02 -0.12305045295E+03  0.14088410499E+03  0.00000000000E+00 0. -1.
          3    1    5    5  503    0 -0.68896940140E+03  0.34784726409E+03  0.54503425644E+03  0.94484861004E+03  0.00000000000E+00 0. -1.
         -4    1    5    5    0  503 -0.93389707108E+02  0.16150062143E+02  0.72521000412E+02  0.11933883442E+03  0.00000000000E+00 0.  1.
         -3    1    6    6    0  502 -0.35141698700E+02  0.18700579631E+03 -0.12762649720E+03  0.22911706534E+03  0.00000000000E+00 0.  1.
<mgrwt>
<rscale>  0 0.26170952E+04</rscale>
<asrwt>0</asrwt>
<pdfrwt beam="1">  1        2 0.18573718E+00 0.26170952E+04</pdfrwt>
<pdfrwt beam="2">  1       -2 0.21819938E+00 0.26170952E+04</pdfrwt>
<totfact> 0.16806847E+00</totfact>
</mgrwt>
</event>
<event>
12    1  0.1709952E-007  0.2338540E+04  0.7818608E-02  0.8462879E-01
         -2   -1    0    0    0  501 -0.00000000000E+00  0.00000000000E+00  0.56855091792E+03  0.56855091792E+03  0.00000000000E+00 0.  1.
          2   -1    0    0  501    0  0.00000000000E+00 -0.00000000000E+00 -0.24046955041E+04  0.24046955041E+04  0.00000000000E+00 0. -1.
         23    2    1    2    0    0  0.51257463734E+03  0.72836353479E+03 -0.22144444574E+03  0.92235809466E+03  0.91981599146E+02 0.  0.
        254    2    1    2    0    0 -0.51257463734E+03 -0.72836353479E+03 -0.16147001404E+04  0.20508883273E+04  0.89757461534E+03 0.  0.
        -24    2    4    4    0    0 -0.32751282353E+03 -0.77053605015E+03 -0.16404787825E+04  0.18432463505E+04  0.73457598006E+02 0.  0.
         24    2    4    4    0    0 -0.18506181381E+03  0.42172515358E+02  0.25778642069E+02  0.20764197684E+03  0.80151457727E+02 0.  0.
         13    1    3    3    0    0  0.27937449494E+01 -0.28594693809E+01 -0.95554747611E+00  0.41103098377E+01  0.00000000000E+00 0. -1.
        -13    1    3    3    0    0  0.50978089239E+03  0.73122300417E+03 -0.22048889827E+03  0.91824778483E+03  0.00000000000E+00 0.  1.
          4    1    6    6  502    0 -0.17436740369E+03  0.23012623639E+02  0.28455626086E+01  0.17590244326E+03  0.00000000000E+00 0. -1.
          3    1    5    5  503    0 -0.27121754394E+03 -0.68832804448E+03 -0.14733785940E+04  0.16486961315E+04  0.00000000000E+00 0. -1.
         -4    1    5    5    0  503 -0.56295279593E+02 -0.82208005674E+02 -0.16710018853E+03  0.19455021898E+03  0.00000000000E+00 0.  1.
         -3    1    6    6    0  502 -0.10694410119E+02  0.19159891719E+02  0.22933079460E+02  0.31739533582E+02  0.00000000000E+00 0.  1.
<mgrwt>
<rscale>  0 0.23385396E+04</rscale>
<asrwt>0</asrwt>
<pdfrwt beam="1">  1        2 0.36995316E+00 0.23385396E+04</pdfrwt>
<pdfrwt beam="2">  1       -2 0.87469370E-01 0.23385396E+04</pdfrwt>
<totfact> 0.40291716E+00</totfact>
</mgrwt>
</event>
<event>
12    1  0.1536832E-007  0.1315706E+04  0.7818608E-02  0.9017202E-01
          2   -1    0    0  501    0  0.00000000000E+00  0.00000000000E+00  0.12323059140E+04  0.12323059140E+04  0.00000000000E+00 0. -1.
         -2   -1    0    0    0  501 -0.00000000000E+00 -0.00000000000E+00 -0.35118738117E+03  0.35118738117E+03  0.00000000000E+00 0.  1.
         23    2    1    2    0    0  0.10237589424E+03  0.28220683739E+03  0.42745321332E+03  0.52993508682E+03  0.89405949882E+02 0.  0.
        254    2    1    2    0    0 -0.10237589424E+03 -0.28220683739E+03  0.45366531953E+03  0.10535582084E+04  0.90224783374E+03 0.  0.
        -24    2    4    4    0    0 -0.46131452678E+03 -0.26283081205E+03  0.42302812830E+03  0.68355526233E+03  0.80024189813E+02 0.  0.
         24    2    4    4    0    0  0.35893863254E+03 -0.19376025343E+02  0.30637191237E+02  0.37000294604E+03  0.82165505546E+02 0.  0.
         13    1    3    3    0    0  0.10249877122E+02  0.13734117377E+03  0.14976523174E+03  0.20346322181E+03  0.00000000000E+00 0.  1.
        -13    1    3    3    0    0  0.92126017115E+02  0.14486566363E+03  0.27768798159E+03  0.32647186501E+03  0.00000000000E+00 0. -1.
          2    1    6    6  502    0  0.27723451707E+03 -0.34043185816E+02 -0.57306241183E+01  0.27937565393E+03  0.00000000000E+00 0. -1.
          3    1    5    5  503    0 -0.35378038599E+03 -0.17510618754E+03  0.34551199252E+03  0.52459629755E+03  0.00000000000E+00 0. -1.
         -4    1    5    5    0  503 -0.10753414079E+03 -0.87724624506E+02  0.77516135777E+02  0.15895896478E+03  0.00000000000E+00 0.  1.
         -1    1    6    6    0  502  0.81704115467E+02  0.14667160473E+02  0.36367815356E+02  0.90627292105E+02  0.00000000000E+00 0.  1.
<mgrwt>
<rscale>  0 0.13157056E+04</rscale>
<asrwt>0</asrwt>
<pdfrwt beam="1">  1        2 0.18958552E+00 0.13157056E+04</pdfrwt>
<pdfrwt beam="2">  1       -2 0.54028828E-01 0.13157056E+04</pdfrwt>
<totfact> 0.57228424E+01</totfact>
</mgrwt>
</event>
<event>
12    1  0.1536832E-007  0.1373007E+04  0.7818608E-02  0.8973592E-01
         -1   -1    0    0    0  501 -0.00000000000E+00  0.00000000000E+00  0.35782430075E+03  0.35782430075E+03  0.00000000000E+00 0.  1.
          1   -1    0    0  501    0  0.00000000000E+00 -0.00000000000E+00 -0.13170915090E+04  0.13170915090E+04  0.00000000000E+00 0. -1.
         23    2    1    2    0    0 -0.22148538822E+03  0.29138334626E+03  0.37343392844E+01  0.37702317549E+03  0.90401868903E+02 0.  0.
        254    2    1    2    0    0  0.22148538822E+03 -0.29138334626E+03 -0.96300154749E+03  0.12978926342E+04  0.78942591659E+03 0.  0.
        -24    2    4    4    0    0  0.10174058701E+03  0.18512822182E+03 -0.69998086359E+03  0.73513900169E+03  0.76371047261E+02 0.  0.
         24    2    4    4    0    0  0.11974480121E+03 -0.47651156808E+03 -0.26302068390E+03  0.56275363251E+03  0.78164434470E+02 0.  0.
         13    1    3    3    0    0 -0.20477116095E+03  0.24764203671E+03 -0.24623920447E+02  0.32227960556E+03  0.00000000000E+00 0.  1.
        -13    1    3    3    0    0 -0.16714227263E+02  0.43741309546E+02  0.28358259731E+02  0.54743569931E+02  0.00000000000E+00 0. -1.
          2    1    6    6  502    0  0.66391779861E+02 -0.32968055524E+03 -0.14160532240E+03  0.36489615546E+03  0.00000000000E+00 0. -1.
          1    1    5    5  503    0  0.26062155480E+02  0.23159250209E+02 -0.22388991726E+03  0.22658835334E+03  0.00000000000E+00 0. -1.
         -2    1    5    5    0  503  0.75678431529E+02  0.16196897161E+03 -0.47609094633E+03  0.50855064835E+03  0.00000000000E+00 0.  1.
         -1    1    6    6    0  502  0.53353021345E+02 -0.14683101284E+03 -0.12141536149E+03  0.19785747705E+03  0.00000000000E+00 0.  1.
<mgrwt>
<rscale>  0 0.13730074E+04</rscale>
<asrwt>0</asrwt>
<pdfrwt beam="1">  1        1 0.20262947E+00 0.13730074E+04</pdfrwt>
<pdfrwt beam="2">  1       -1 0.55049892E-01 0.13730074E+04</pdfrwt>
<totfact> 0.28657627E+01</totfact>
</mgrwt>
</event>
<event>
12    1  0.1536832E-007  0.1595043E+04  0.7818608E-02  0.8823599E-01
          2   -1    0    0  501    0  0.00000000000E+00  0.00000000000E+00  0.13237599238E+04  0.13237599238E+04  0.00000000000E+00 0. -1.
         -2   -1    0    0    0  501 -0.00000000000E+00 -0.00000000000E+00 -0.48048052061E+03  0.48048052061E+03  0.00000000000E+00 0.  1.
         23    2    1    2    0    0 -0.28908156080E+03 -0.10408987850E+03  0.78267765421E+03  0.84578602350E+03  0.91470408025E+02 0.  0.
        254    2    1    2    0    0  0.28908156080E+03  0.10408987850E+03  0.60601748980E+02  0.95845442091E+03  0.90584736759E+03 0.  0.
        -24    2    4    4    0    0  0.55503120003E+03 -0.14105474644E+03 -0.20442851713E+02  0.57929082714E+03  0.84875660315E+02 0.  0.
         24    2    4    4    0    0 -0.26594963923E+03  0.24514462494E+03  0.81044600693E+02  0.37916359377E+03  0.79822965327E+02 0.  0.
         13    1    3    3    0    0  0.17661391101E+01 -0.66439213880E+01  0.64241869030E+02  0.64608657897E+02  0.00000000000E+00 0.  1.
        -13    1    3    3    0    0 -0.29084769991E+03 -0.97445957110E+02  0.71843578518E+03  0.78117736560E+03  0.00000000000E+00 0. -1.
          4    1    6    6  502    0 -0.79816919995E+02  0.37911401490E+02  0.42178982496E+02  0.97913643814E+02  0.00000000000E+00 0. -1.
          3    1    5    5  503    0  0.24722074021E+03 -0.29465518760E+02  0.18042931435E+02  0.24962343352E+03  0.00000000000E+00 0. -1.
         -4    1    5    5    0  503  0.30781045982E+03 -0.11158922768E+03 -0.38485783148E+02  0.32966739362E+03  0.00000000000E+00 0.  1.
         -3    1    6    6    0  502 -0.18613271924E+03  0.20723322345E+03  0.38865618197E+02  0.28124994996E+03  0.00000000000E+00 0.  1.
<mgrwt>
<rscale>  0 0.15950434E+04</rscale>
<asrwt>0</asrwt>
<pdfrwt beam="1">  1        2 0.20365537E+00 0.15950434E+04</pdfrwt>
<pdfrwt beam="2">  1       -2 0.73920081E-01 0.15950434E+04</pdfrwt>
<totfact> 0.25330772E+01</totfact>
</mgrwt>
</event>
<event>
12    1  0.1536832E-007  0.2415323E+04  0.7818608E-02  0.8433789E-01
         -1   -1    0    0    0  501 -0.00000000000E+00  0.00000000000E+00  0.95772243420E+03  0.95772243420E+03  0.00000000000E+00 0.  1.
          1   -1    0    0  501    0  0.00000000000E+00 -0.00000000000E+00 -0.15228283367E+04  0.15228283367E+04  0.00000000000E+00 0. -1.
         23    2    1    2    0    0 -0.22577828840E+03  0.37491210712E+03 -0.12162431124E+04  0.12957739505E+04  0.90817942265E+02 0.  0.
        254    2    1    2    0    0  0.22577828840E+03 -0.37491210712E+03  0.65113720992E+03  0.11847768204E+04  0.88779587996E+03 0.  0.
        -24    2    4    4    0    0 -0.28837034316E+03 -0.34485095357E+03  0.21330302421E+03  0.50408474399E+03  0.80768892553E+02 0.  0.
         24    2    4    4    0    0  0.51414863156E+03 -0.30061153557E+02  0.43783418572E+03  0.68069207643E+03  0.79940230417E+02 0.  0.
         13    1    3    3    0    0 -0.23112191765E+03  0.35307392672E+03 -0.11792915417E+04  0.12525202908E+04  0.00000000000E+00 0. -1.
        -13    1    3    3    0    0  0.53436292439E+01  0.21838180398E+02 -0.36951570768E+02  0.43253659715E+02  0.00000000000E+00 0.  1.
          4    1    6    6  502    0  0.53404449743E+02  0.20894000909E+02  0.41229988299E+02  0.70629359770E+02  0.00000000000E+00 0. -1.
          1    1    5    5  503    0 -0.29329137563E+03 -0.34152711378E+03  0.20721159342E+03  0.49557768807E+03  0.00000000000E+00 0. -1.
         -2    1    5    5    0  503  0.49210324712E+01 -0.33238397910E+01  0.60914307861E+01  0.85070559279E+01  0.00000000000E+00 0.  1.
         -3    1    6    6    0  502  0.46074418182E+03 -0.50955154466E+02  0.39660419742E+03  0.61006271666E+03  0.00000000000E+00 0.  1.
<mgrwt>
<rscale>  0 0.24153235E+04</rscale>
<asrwt>0</asrwt>
<pdfrwt beam="1">  1        1 0.23428128E+00 0.24153235E+04</pdfrwt>
<pdfrwt beam="2">  1       -1 0.14734191E+00 0.24153235E+04</pdfrwt>
<totfact> 0.20665885E+00</totfact>
</mgrwt>
</event>
<event>
12    1  0.1536832E-007  0.1241942E+04  0.7818608E-02  0.9076917E-01
          2   -1    0    0  501    0  0.00000000000E+00  0.00000000000E+00  0.78313992409E+03  0.78313992409E+03  0.00000000000E+00 0.  1.
         -2   -1    0    0    0  501 -0.00000000000E+00 -0.00000000000E+00 -0.49238289973E+03  0.49238289973E+03  0.00000000000E+00 0. -1.
         23    2    1    2    0    0  0.10279636556E+03 -0.18384727432E+03 -0.11559313494E+03  0.25685172786E+03  0.90797159704E+02 0.  0.
        254    2    1    2    0    0 -0.10279636556E+03  0.18384727432E+03  0.40635015929E+03  0.10186710960E+04  0.91005683161E+03 0.  0.
        -24    2    4    4    0    0 -0.16389084039E+03  0.29735149230E+03  0.64573500734E+03  0.73370114676E+03  0.77881676386E+02 0.  0.
         24    2    4    4    0    0  0.61094474825E+02 -0.11350421798E+03 -0.23938484805E+03  0.28496994921E+03  0.85364068107E+02 0.  0.
         11    1    3    3    0    0  0.40451409605E+02 -0.70924634884E+01 -0.29685508443E+02  0.50673947833E+02  0.00000000000E+00 0.  1.
        -11    1    3    3    0    0  0.62344955956E+02 -0.17675481083E+03 -0.85907626492E+02  0.20617778002E+03  0.00000000000E+00 0. -1.
          2    1    6    6  502    0 -0.51425600498E+01  0.39782253075E+01  0.33271976011E+01  0.73035911947E+01  0.00000000000E+00 0. -1.
          3    1    5    5  503    0  0.11122483972E+01  0.41096931438E+02  0.51818171283E+02  0.66146184661E+02  0.00000000000E+00 0. -1.
         -4    1    5    5    0  503 -0.16500308878E+03  0.25625456086E+03  0.59391683606E+03  0.66755496210E+03  0.00000000000E+00 0.  1.
         -1    1    6    6    0  502  0.66237034875E+02 -0.11748244328E+03 -0.24271204565E+03  0.27766635801E+03  0.00000000000E+00 0.  1.
<mgrwt>
<rscale>  0 0.12419416E+04</rscale>
<asrwt>0</asrwt>
<pdfrwt beam="1">  1        2 0.12048307E+00 0.12419416E+04</pdfrwt>
<pdfrwt beam="2">  1       -2 0.75751215E-01 0.12419416E+04</pdfrwt>
<totfact> 0.54483345E+01</totfact>
</mgrwt>
</event>
<event>
12    1  0.1536832E-007  0.2270059E+04  0.7818608E-02  0.8489821E-01
         -2   -1    0    0    0  501 -0.00000000000E+00  0.00000000000E+00  0.40682325243E+03  0.40682325243E+03  0.00000000000E+00 0.  1.
          2   -1    0    0  501    0  0.00000000000E+00 -0.00000000000E+00 -0.31667116094E+04  0.31667116094E+04  0.00000000000E+00 0. -1.
         23    2    1    2    0    0 -0.68284715739E+03 -0.21752865733E+03 -0.18194907061E+03  0.74491311205E+03  0.90504823573E+02 0.  0.
        254    2    1    2    0    0  0.68284715739E+03  0.21752865733E+03 -0.25779392864E+04  0.28286217498E+04  0.91745903563E+03 0.  0.
        -24    2    4    4    0    0  0.76857823164E+03 -0.13697900061E+03 -0.16107169096E+04  0.17917962439E+04  0.81541842631E+02 0.  0.
         24    2    4    4    0    0 -0.85731074250E+02  0.35450765795E+03 -0.96722237679E+03  0.10368255059E+04  0.80389718645E+02 0.  0.
         13    1    3    3    0    0 -0.56054805126E+03 -0.15808828119E+03 -0.17750041530E+03  0.60886157692E+03  0.00000000000E+00 0.  1.
        -13    1    3    3    0    0 -0.12229910613E+03 -0.59440376140E+02 -0.44486553081E+01  0.13605153513E+03  0.00000000000E+00 0. -1.
          4    1    6    6  502    0 -0.65457562024E+02  0.17229849771E+03 -0.39358966765E+03  0.43460820428E+03  0.00000000000E+00 0. -1.
          3    1    5    5  503    0  0.12000177206E+03  0.11051108252E+01 -0.29339081568E+03  0.31698551590E+03  0.00000000000E+00 0. -1.
         -2    1    5    5    0  503  0.64857645958E+03 -0.13808411144E+03 -0.13173260939E+04  0.14748107280E+04  0.00000000000E+00 0.  1.
         -3    1    6    6    0  502 -0.20273512226E+02  0.18220916023E+03 -0.57363270913E+03  0.60221730161E+03  0.00000000000E+00 0.  1.
<mgrwt>
<rscale>  0 0.22700590E+04</rscale>
<asrwt>0</asrwt>
<pdfrwt beam="1">  1        2 0.48718642E+00 0.22700590E+04</pdfrwt>
<pdfrwt beam="2">  1       -2 0.62588191E-01 0.22700590E+04</pdfrwt>
<totfact> 0.29371976E+00</totfact>
</mgrwt>
</event>
<event>
12    1  0.1536832E-007  0.1662406E+04  0.7818608E-02  0.8783101E-01
          1   -1    0    0  501    0  0.00000000000E+00  0.00000000000E+00  0.83663146925E+03  0.83663146925E+03  0.00000000000E+00 0. -1.
         -1   -1    0    0    0  501 -0.00000000000E+00 -0.00000000000E+00 -0.82580989807E+03  0.82580989807E+03  0.00000000000E+00 0.  1.
         23    2    1    2    0    0 -0.13208613225E+03 -0.22101510233E+03 -0.52272691694E+03  0.58721539426E+03  0.72691593578E+02 0.  0.
        254    2    1    2    0    0  0.13208613225E+03  0.22101510233E+03  0.53354848811E+03  0.10752259731E+04  0.89729732094E+03 0.  0.
        -24    2    4    4    0    0 -0.17863886996E+03  0.45193505587E+03  0.45768602751E+03  0.67244192705E+03  0.80898114277E+02 0.  0.
         24    2    4    4    0    0  0.31072500221E+03 -0.23091995354E+03  0.75862460605E+02  0.40278404600E+03  0.81276213278E+02 0.  0.
         11    1    3    3    0    0 -0.46943519091E+02 -0.67746279485E+02 -0.10011892912E+03  0.12968057810E+03  0.00000000000E+00 0. -1.
        -11    1    3    3    0    0 -0.85142613160E+02 -0.15326882285E+03 -0.42260798782E+03  0.45753481616E+03  0.00000000000E+00 0.  1.
          4    1    6    6  502    0  0.27615027326E+03 -0.17373713899E+03  0.45600493665E+02  0.32942825001E+03  0.00000000000E+00 0. -1.
          1    1    5    5  503    0 -0.14537551783E+03  0.42622163763E+03  0.42465072120E+03  0.61897266546E+03  0.00000000000E+00 0. -1.
         -2    1    5    5    0  503 -0.33263352127E+02  0.25713418244E+02  0.33035306304E+02  0.53469261591E+02  0.00000000000E+00 0.  1.
         -3    1    6    6    0  502  0.34574728952E+02 -0.57182814555E+02  0.30261966941E+02  0.73355795992E+02  0.00000000000E+00 0.  1.
<mgrwt>
<rscale>  0 0.16624061E+04</rscale>
<asrwt>0</asrwt>
<pdfrwt beam="1">  1        1 0.12871253E+00 0.16624061E+04</pdfrwt>
<pdfrwt beam="2">  1       -1 0.12704768E+00 0.16624061E+04</pdfrwt>
<totfact> 0.10547547E+01</totfact>
</mgrwt>
</event>
<event>
12    1  0.1536832E-007  0.2380386E+04  0.7818608E-02  0.8446884E-01
          2   -1    0    0  501    0  0.00000000000E+00  0.00000000000E+00  0.71807669466E+03  0.71807669466E+03  0.00000000000E+00 0. -1.
         -2   -1    0    0    0  501 -0.00000000000E+00 -0.00000000000E+00 -0.19727127148E+04  0.19727127148E+04  0.00000000000E+00 0.  1.
         23    2    1    2    0    0  0.25019555226E+03 -0.56642672741E+03  0.36740197559E+03  0.72605958911E+03  0.93494723831E+02 0.  0.
        254    2    1    2    0    0 -0.25019555226E+03  0.56642672741E+03 -0.16220379958E+04  0.19647298204E+04  0.91962979266E+03 0.  0.
        -24    2    4    4    0    0  0.22220258188E+03  0.56424845601E+03 -0.10800018670E+04  0.12411857458E+04  0.79923184143E+02 0.  0.
         24    2    4    4    0    0 -0.47239813414E+03  0.21782713918E+01 -0.54203612872E+03  0.72354407454E+03  0.80920460736E+02 0.  0.
         13    1    3    3    0    0  0.97970905327E+02 -0.19324522875E+03  0.79622026524E+02  0.23082825614E+03  0.00000000000E+00 0. -1.
        -13    1    3    3    0    0  0.15222464693E+03 -0.37318149866E+03  0.28777994906E+03  0.49523133297E+03  0.00000000000E+00 0.  1.
          4    1    6    6  502    0 -0.36076424177E+03  0.62710972814E+01 -0.46160628996E+03  0.58589293538E+03  0.00000000000E+00 0. -1.
          1    1    5    5  503    0  0.24399805427E+02  0.53356853374E+02 -0.63530557865E+02  0.86477951464E+02  0.00000000000E+00 0. -1.
         -2    1    5    5    0  503  0.19780277646E+03  0.51089160264E+03 -0.10164713092E+04  0.11547077944E+04  0.00000000000E+00 0.  1.
         -3    1    6    6    0  502 -0.11163389237E+03 -0.40928258897E+01 -0.80429838761E+02  0.13765113916E+03  0.00000000000E+00 0.  1.
<mgrwt>
<rscale>  0 0.23803857E+04</rscale>
<asrwt>0</asrwt>
<pdfrwt beam="1">  1        2 0.11047334E+00 0.23803857E+04</pdfrwt>
<pdfrwt beam="2">  1       -2 0.30349426E+00 0.23803857E+04</pdfrwt>
<totfact> 0.10811798E+00</totfact>
</mgrwt>
</event>
<event>
12    1  0.1536832E-007  0.2496844E+04  0.7818608E-02  0.8404111E-01
          1   -1    0    0  501    0  0.00000000000E+00  0.00000000000E+00  0.15178066318E+04  0.15178066318E+04  0.00000000000E+00 0. -1.
         -1   -1    0    0    0  501 -0.00000000000E+00 -0.00000000000E+00 -0.10268487571E+04  0.10268487571E+04  0.00000000000E+00 0.  1.
         23    2    1    2    0    0 -0.98007147603E+03 -0.54412183227E+02 -0.25836414636E+03  0.10196120569E+04  0.96726059976E+02 0.  0.
        254    2    1    2    0    0  0.98007147603E+03  0.54412183227E+02  0.74932202113E+03  0.15250433320E+04  0.89485914488E+03 0.  0.
        -24    2    4    4    0    0  0.53825411090E+03  0.15713130085E+03 -0.84305619512E+02  0.57255731861E+03  0.79414809696E+02 0.  0.
         24    2    4    4    0    0  0.44181736513E+03 -0.10271911762E+03  0.83362764064E+03  0.95248601335E+03  0.80874972205E+02 0.  0.
         11    1    3    3    0    0 -0.75163075026E+03 -0.28603086939E+02 -0.23746977772E+03  0.78877044611E+03  0.00000000000E+00 0.  1.
        -11    1    3    3    0    0 -0.22844072577E+03 -0.25809096288E+02 -0.20894368634E+02  0.23084161081E+03  0.00000000000E+00 0. -1.
          2    1    6    6  502    0  0.42200358963E+03 -0.10969817071E+03  0.81545495800E+03  0.92470941752E+03  0.00000000000E+00 0. -1.
          3    1    5    5  503    0  0.37686683157E+03  0.12743258264E+03 -0.91823139814E+02  0.40828808562E+03  0.00000000000E+00 0. -1.
         -4    1    5    5    0  503  0.16138727934E+03  0.29698718204E+02  0.75175203017E+01  0.16426923299E+03  0.00000000000E+00 0.  1.
         -1    1    6    6    0  502  0.19813775499E+02  0.69790530874E+01  0.18172682633E+02  0.27776595825E+02  0.00000000000E+00 0.  1.
<mgrwt>
<rscale>  0 0.24968443E+04</rscale>
<asrwt>0</asrwt>
<pdfrwt beam="1">  1        1 0.23350871E+00 0.24968443E+04</pdfrwt>
<pdfrwt beam="2">  1       -1 0.15797673E+00 0.24968443E+04</pdfrwt>
<totfact> 0.17109050E+00</totfact>
</mgrwt>
</event>
<event>
12    1  0.1536832E-007  0.1722040E+04  0.7818608E-02  0.8748893E-01
         -2   -1    0    0    0  501 -0.00000000000E+00  0.00000000000E+00  0.95822998822E+03  0.95822998822E+03  0.00000000000E+00 0. -1.
          2   -1    0    0  501    0  0.00000000000E+00 -0.00000000000E+00 -0.77367127570E+03  0.77367127570E+03  0.00000000000E+00 0.  1.
         23    2    1    2    0    0  0.22021078405E+03  0.24366211892E+03 -0.44086752851E+03  0.55697181451E+03  0.89383481976E+02 0.  0.
        254    2    1    2    0    0 -0.22021078405E+03 -0.24366211892E+03  0.62542624103E+03  0.11749294494E+04  0.93884887522E+03 0.  0.
        -24    2    4    4    0    0  0.25088224677E+03 -0.41094792952E+03  0.32881600663E+03  0.58840216326E+03  0.79227753972E+02 0.  0.
         24    2    4    4    0    0 -0.47109303082E+03  0.16728581059E+03  0.29661023440E+03  0.58652728614E+03  0.78252412937E+02 0.  0.
         13    1    3    3    0    0  0.20838507806E+02 -0.94042750516E+00 -0.52958899904E+02  0.56919002895E+02  0.00000000000E+00 0. -1.
        -13    1    3    3    0    0  0.19937227625E+03  0.24460254643E+03 -0.38790862861E+03  0.50005281161E+03  0.00000000000E+00 0.  1.
          2    1    6    6  502    0 -0.18171953713E+03  0.75587207335E+02  0.16002107345E+03  0.25365756452E+03  0.00000000000E+00 0. -1.
          1    1    5    5  503    0  0.19050278109E+03 -0.28663214153E+03  0.27324407448E+03  0.43944467047E+03  0.00000000000E+00 0. -1.
         -2    1    5    5    0  503  0.60379465680E+02 -0.12431578798E+03  0.55571932150E+02  0.14895749280E+03  0.00000000000E+00 0.  1.
         -1    1    6    6    0  502 -0.28937349369E+03  0.91698603258E+02  0.13658916094E+03  0.33286972162E+03  0.00000000000E+00 0.  1.
<mgrwt>
<rscale>  0 0.17220395E+04</rscale>
<asrwt>0</asrwt>
<pdfrwt beam="1">  1        2 0.11902635E+00 0.17220395E+04</pdfrwt>
<pdfrwt beam="2">  1       -2 0.14742000E+00 0.17220395E+04</pdfrwt>
<totfact> 0.10725162E+01</totfact>
</mgrwt>
</event>
<event>
12    1  0.1536832E-007  0.1644340E+04  0.7818608E-02  0.8793762E-01
         -1   -1    0    0    0  501 -0.00000000000E+00  0.00000000000E+00  0.89081114026E+03  0.89081114026E+03  0.00000000000E+00 0.  1.
          1   -1    0    0  501    0  0.00000000000E+00 -0.00000000000E+00 -0.75881830355E+03  0.75881830355E+03  0.00000000000E+00 0. -1.
         23    2    1    2    0    0 -0.20987450471E+03 -0.65226444560E+02 -0.47826966156E+03  0.53465158620E+03  0.93854422737E+02 0.  0.
        254    2    1    2    0    0  0.20987450471E+03  0.65226444560E+02  0.61026249827E+03  0.11149778576E+04  0.90689222587E+03 0.  0.
        -24    2    4    4    0    0  0.55515478607E+03  0.50988353905E+02  0.46989919235E+03  0.73334456284E+03  0.78691474450E+02 0.  0.
         24    2    4    4    0    0 -0.34528028136E+03  0.14238090655E+02  0.14036330591E+03  0.38163329475E+03  0.80752201804E+02 0.  0.
         13    1    3    3    0    0 -0.67891938102E+02  0.23157047876E+02 -0.14287547509E+03  0.15987171578E+03  0.00000000000E+00 0. -1.
        -13    1    3    3    0    0 -0.14198256661E+03 -0.88383492437E+02 -0.33539418647E+03  0.37477987042E+03  0.00000000000E+00 0.  1.
          4    1    6    6  502    0 -0.18740253524E+03  0.20086717670E+02  0.11723778675E+03  0.22196370217E+03  0.00000000000E+00 0. -1.
          3    1    5    5  503    0  0.31024802446E+03  0.34896182335E+02  0.31275160149E+03  0.44191078790E+03  0.00000000000E+00 0. -1.
         -4    1    5    5    0  503  0.24490676161E+03  0.16092171570E+02  0.15714759086E+03  0.29143377495E+03  0.00000000000E+00 0.  1.
         -3    1    6    6    0  502 -0.15787774612E+03 -0.58486270145E+01  0.23125519166E+02  0.15966959258E+03  0.00000000000E+00 0.  1.
<mgrwt>
<rscale>  0 0.16443404E+04</rscale>
<asrwt>0</asrwt>
<pdfrwt beam="1">  1        1 0.11674128E+00 0.16443404E+04</pdfrwt>
<pdfrwt beam="2">  1       -1 0.13704787E+00 0.16443404E+04</pdfrwt>
<totfact> 0.10189015E+01</totfact>
</mgrwt>
</event>
<event>
12    1  0.1536832E-007  0.2260214E+04  0.7818608E-02  0.8493775E-01
          2   -1    0    0  501    0  0.00000000000E+00  0.00000000000E+00  0.80861932031E+03  0.80861932031E+03  0.00000000000E+00 0. -1.
         -2   -1    0    0    0  501 -0.00000000000E+00 -0.00000000000E+00 -0.15794103100E+04  0.15794103100E+04  0.00000000000E+00 0.  1.
         23    2    1    2    0    0 -0.29968112153E+03 -0.89213376674E+03 -0.21165949245E+03  0.96891298804E+03  0.91001127942E+02 0.  0.
        254    2    1    2    0    0  0.29968112153E+03  0.89213376674E+03 -0.55913149722E+03  0.14191166422E+04  0.90307949857E+03 0.  0.
        -24    2    4    4    0    0  0.63257643372E+02  0.44750377723E+03  0.20386389709E+03  0.50132470562E+03  0.74194419296E+02 0.  0.
         24    2    4    4    0    0  0.23642347816E+03  0.44462998952E+03 -0.76299539431E+03  0.91779193662E+03  0.81167595619E+02 0.  0.
         11    1    3    3    0    0 -0.26851211527E+03 -0.73717974744E+03 -0.20411115955E+03  0.81067509000E+03  0.00000000000E+00 0. -1.
        -11    1    3    3    0    0 -0.31169006266E+02 -0.15495401930E+03 -0.75483328985E+01  0.15823789805E+03  0.00000000000E+00 0.  1.
          4    1    6    6  502    0  0.51149179474E+02  0.43227245761E+02 -0.81915010111E+02  0.10580596495E+03  0.00000000000E+00 0. -1.
          3    1    5    5  503    0  0.52872610820E+01  0.35602151784E+01  0.13290505724E+02  0.14740006929E+02  0.00000000000E+00 0. -1.
         -4    1    5    5    0  503  0.57970382290E+02  0.44394356205E+03  0.19057339136E+03  0.48658469870E+03  0.00000000000E+00 0.  1.
         -1    1    6    6    0  502  0.18527429869E+03  0.40140274376E+03 -0.68108038420E+03  0.81198597167E+03  0.00000000000E+00 0.  1.
<mgrwt>
<rscale>  0 0.22602139E+04</rscale>
<asrwt>0</asrwt>
<pdfrwt beam="1">  1        2 0.12440297E+00 0.22602139E+04</pdfrwt>
<pdfrwt beam="2">  1       -2 0.24298620E+00 0.22602139E+04</pdfrwt>
<totfact> 0.21920309E+00</totfact>
</mgrwt>
</event>
<event>
12    1  0.1536832E-007  0.1716470E+04  0.7818608E-02  0.8752026E-01
          1   -1    0    0  501    0  0.00000000000E+00  0.00000000000E+00  0.24501727641E+04  0.24501727641E+04  0.00000000000E+00 0. -1.
         -1   -1    0    0    0  501 -0.00000000000E+00 -0.00000000000E+00 -0.30061846530E+03  0.30061846530E+03  0.00000000000E+00 0.  1.
         23    2    1    2    0    0 -0.39855362984E+03  0.35815379465E+03  0.28977556145E+03  0.61596392266E+03  0.91227964561E+02 0.  0.
        254    2    1    2    0    0  0.39855362984E+03 -0.35815379465E+03  0.18597787373E+04  0.21348273067E+04  0.90088375567E+03 0.  0.
        -24    2    4    4    0    0 -0.13612842241E+03 -0.20972053824E+03  0.87939472665E+02  0.27643785832E+03  0.78554994193E+02 0.  0.
         24    2    4    4    0    0  0.53468205226E+03 -0.14843325641E+03  0.17718392646E+04  0.18583894484E+04  0.79244138706E+02 0.  0.
         13    1    3    3    0    0 -0.22855629394E+03  0.24182230833E+03  0.13860043794E+03  0.36045261783E+03  0.00000000000E+00 0.  1.
        -13    1    3    3    0    0 -0.16999733591E+03  0.11633148632E+03  0.15117512352E+03  0.25551130483E+03  0.00000000000E+00 0. -1.
          4    1    6    6  502    0  0.41659324883E+03 -0.83511058530E+02  0.13885878787E+04  0.14521364704E+04  0.00000000000E+00 0. -1.
          1    1    5    5  503    0 -0.41015910442E+02 -0.13489293074E+03  0.44187286070E+02  0.14775291511E+03  0.00000000000E+00 0. -1.
         -2    1    5    5    0  503 -0.95112511971E+02 -0.74827607497E+02  0.43752186595E+02  0.12868494321E+03  0.00000000000E+00 0.  1.
         -3    1    6    6    0  502  0.11808880343E+03 -0.64922197883E+02  0.38325138593E+03  0.40625297795E+03  0.00000000000E+00 0.  1.
<mgrwt>
<rscale>  0 0.17164698E+04</rscale>
<asrwt>0</asrwt>
<pdfrwt beam="1">  1        1 0.37694964E+00 0.17164698E+04</pdfrwt>
<pdfrwt beam="2">  1       -1 0.46248996E-01 0.17164698E+04</pdfrwt>
<totfact> 0.64935994E+00</totfact>
</mgrwt>
</event>
<event>
12    1  0.1536832E-007  0.1741037E+04  0.7818608E-02  0.8738300E-01
          2   -1    0    0  501    0  0.00000000000E+00  0.00000000000E+00  0.10707561569E+04  0.10707561569E+04  0.00000000000E+00 0. -1.
         -2   -1    0    0    0  501 -0.00000000000E+00 -0.00000000000E+00 -0.70772621327E+03  0.70772621327E+03  0.00000000000E+00 0.  1.
         23    2    1    2    0    0  0.13529593068E+03  0.49666063345E+03  0.51785489456E+03  0.73647943596E+03  0.96184687401E+02 0.  0.
        254    2    1    2    0    0 -0.13529593068E+03 -0.49666063345E+03 -0.15482495093E+03  0.10420029342E+04  0.89264918967E+03 0.  0.
        -24    2    4    4    0    0  0.21576299894E+03 -0.46022948177E+03  0.18365023858E+03  0.54637287876E+03  0.80193920663E+02 0.  0.
         24    2    4    4    0    0 -0.35105892962E+03 -0.36431151677E+02 -0.33847518951E+03  0.49563005546E+03  0.80709956533E+02 0.  0.
         11    1    3    3    0    0  0.63222303344E+02  0.26775771415E+03  0.20983478059E+03  0.34600850896E+03  0.00000000000E+00 0. -1.
        -11    1    3    3    0    0  0.72073627341E+02  0.22890291931E+03  0.30802011397E+03  0.39047092700E+03  0.00000000000E+00 0.  1.
          4    1    6    6  502    0 -0.11404711921E+03  0.23398485116E+02 -0.90847298376E+02  0.14767351194E+03  0.00000000000E+00 0. -1.
          3    1    5    5  503    0  0.71619253449E+02 -0.22280740368E+03  0.55733479572E+02  0.24057987726E+03  0.00000000000E+00 0. -1.
         -4    1    5    5    0  503  0.14414374549E+03 -0.23742207810E+03  0.12791675901E+03  0.30579300150E+03  0.00000000000E+00 0.  1.
         -3    1    6    6    0  502 -0.23701181041E+03 -0.59829636794E+02 -0.24762789113E+03  0.34795654352E+03  0.00000000000E+00 0.  1.
<mgrwt>
<rscale>  0 0.17410367E+04</rscale>
<asrwt>0</asrwt>
<pdfrwt beam="1">  1        2 0.16473172E+00 0.17410367E+04</pdfrwt>
<pdfrwt beam="2">  1       -2 0.10888096E+00 0.17410367E+04</pdfrwt>
<totfact> 0.14513857E+01</totfact>
</mgrwt>
</event>
<event>
12    1  0.1536832E-007  0.3413085E+04  0.7818608E-02  0.8134702E-01
         -1   -1    0    0    0  501 -0.00000000000E+00  0.00000000000E+00  0.20990158000E+04  0.20990158000E+04  0.00000000000E+00 0.  1.
          1   -1    0    0  501    0  0.00000000000E+00 -0.00000000000E+00 -0.13874536722E+04  0.13874536722E+04  0.00000000000E+00 0. -1.
         23    2    1    2    0    0  0.61815915477E+03  0.13613139942E+04 -0.18979069560E+03  0.15097746060E+04  0.90012895158E+02 0.  0.
        254    2    1    2    0    0 -0.61815915477E+03 -0.13613139942E+04  0.90135282341E+03  0.19766948662E+04  0.92714030771E+03 0.  0.
        -24    2    4    4    0    0 -0.58332004859E+03 -0.13201614240E+04  0.44809785284E+03  0.15133452107E+04  0.79583771162E+02 0.  0.
         24    2    4    4    0    0 -0.34839106184E+02 -0.41152570228E+02  0.45325497057E+03  0.46334965544E+03  0.79658882078E+02 0.  0.
         11    1    3    3    0    0  0.13331464368E+03  0.27452251337E+03 -0.74659284215E+02  0.31418054250E+03  0.00000000000E+00 0.  1.
        -11    1    3    3    0    0  0.48484451109E+03  0.10867914809E+04 -0.11513141138E+03  0.11955940635E+04  0.00000000000E+00 0. -1.
          2    1    6    6  502    0 -0.19527677431E+02 -0.64895480094E+02  0.30701626275E+03  0.31440696417E+03  0.00000000000E+00 0. -1.
          1    1    5    5  503    0 -0.15017400055E+03 -0.37600209058E+03  0.91745744412E+02  0.41514706331E+03  0.00000000000E+00 0. -1.
         -2    1    5    5    0  503 -0.43314604804E+03 -0.94415933342E+03  0.35635210843E+03  0.10981981474E+04  0.00000000000E+00 0.  1.
         -1    1    6    6    0  502 -0.15311428753E+02  0.23742909866E+02  0.14623870782E+03  0.14894269127E+03  0.00000000000E+00 0.  1.
<mgrwt>
<rscale>  0 0.34130849E+04</rscale>
<asrwt>0</asrwt>
<pdfrwt beam="1">  1        1 0.21345441E+00 0.34130849E+04</pdfrwt>
<pdfrwt beam="2">  1       -1 0.32292551E+00 0.34130849E+04</pdfrwt>
<totfact> 0.15087443E-01</totfact>
</mgrwt>
</event>
<event>
12    1  0.1536832E-007  0.1661728E+04  0.7818608E-02  0.8783499E-01
         -1   -1    0    0    0  501 -0.00000000000E+00  0.00000000000E+00  0.11824253232E+04  0.11824253232E+04  0.00000000000E+00 0.  1.
          1   -1    0    0  501    0  0.00000000000E+00 -0.00000000000E+00 -0.58382945158E+03  0.58382945158E+03  0.00000000000E+00 0. -1.
         23    2    1    2    0    0 -0.21380926324E+02 -0.52545778501E+03  0.48000486801E+03  0.71774912248E+03  0.90532323858E+02 0.  0.
        254    2    1    2    0    0  0.21380926324E+02  0.52545778501E+03  0.11859100358E+03  0.10485056523E+04  0.89929819798E+03 0.  0.
        -24    2    4    4    0    0 -0.28251724016E+03  0.30157442738E+02  0.31339515259E+03  0.43050325082E+03  0.79944136452E+02 0.  0.
         24    2    4    4    0    0  0.30389816649E+03  0.49530034227E+03 -0.19480414901E+03  0.61800240146E+03  0.79383796133E+02 0.  0.
         11    1    3    3    0    0 -0.42913518471E+02 -0.39175978246E+03  0.31659607951E+03  0.50551990543E+03  0.00000000000E+00 0.  1.
        -11    1    3    3    0    0  0.21532592146E+02 -0.13369800255E+03  0.16340878850E+03  0.21222921705E+03  0.00000000000E+00 0. -1.
          2    1    6    6  502    0  0.16307848281E+03  0.23890752666E+03 -0.13597733678E+03  0.31962671035E+03  0.00000000000E+00 0. -1.
          1    1    5    5  503    0 -0.20334130811E+03  0.32208930471E+02  0.27201896268E+03  0.34114427863E+03  0.00000000000E+00 0. -1.
         -2    1    5    5    0  503 -0.79175932054E+02 -0.20514877325E+01  0.41376189918E+02  0.89358972189E+02  0.00000000000E+00 0.  1.
         -1    1    6    6    0  502  0.14081968368E+03  0.25639281561E+03 -0.58826812229E+02  0.29837569111E+03  0.00000000000E+00 0.  1.
<mgrwt>
<rscale>  0 0.16617277E+04</rscale>
<asrwt>0</asrwt>
<pdfrwt beam="1">  1        1 0.89819916E-01 0.16617277E+04</pdfrwt>
<pdfrwt beam="2">  1       -1 0.18191159E+00 0.16617277E+04</pdfrwt>
<totfact> 0.68568967E+00</totfact>
</mgrwt>
</event>
<event>
12    1  0.1536832E-007  0.1134083E+04  0.7818608E-02  0.9172595E-01
         -1   -1    0    0    0  501 -0.00000000000E+00  0.00000000000E+00  0.10566887870E+04  0.10566887870E+04  0.00000000000E+00 0.  1.
          1   -1    0    0  501    0  0.00000000000E+00 -0.00000000000E+00 -0.30428635163E+03  0.30428635163E+03  0.00000000000E+00 0. -1.
         23    2    1    2    0    0  0.83530640822E+02  0.15861035139E+03  0.16402372768E+03  0.25869755686E+03  0.88803328542E+02 0.  0.
        254    2    1    2    0    0 -0.83530640822E+02 -0.15861035139E+03  0.58837870768E+03  0.11022775818E+04  0.91470856128E+03 0.  0.
        -24    2    4    4    0    0 -0.25365250572E+03 -0.43270491804E+03  0.57968003329E+03  0.77112089203E+03  0.83817357210E+02 0.  0.
         24    2    4    4    0    0  0.17012186490E+03  0.27409456665E+03  0.86986743848E+01  0.33115668973E+03  0.74295395795E+02 0.  0.
         11    1    3    3    0    0  0.80167929493E+02  0.16674789278E+03  0.16716309442E+03  0.24934966774E+03  0.00000000000E+00 0. -1.
        -11    1    3    3    0    0  0.33627113287E+01 -0.81375413933E+01 -0.31393667435E+01  0.93478891178E+01  0.00000000000E+00 0.  1.
          4    1    6    6  502    0  0.22298704081E+02  0.19300029409E+02  0.21200751399E+02  0.36320726848E+02  0.00000000000E+00 0. -1.
          1    1    5    5  503    0 -0.23678730346E+02 -0.82361917091E+02  0.65944573826E+02  0.10813350302E+03  0.00000000000E+00 0. -1.
         -2    1    5    5    0  503 -0.22997377537E+03 -0.35034300095E+03  0.51373545947E+03  0.66298738901E+03  0.00000000000E+00 0.  1.
         -3    1    6    6    0  502  0.14782316082E+03  0.25479453724E+03 -0.12502077014E+02  0.29483596288E+03  0.00000000000E+00 0.  1.
<mgrwt>
<rscale>  0 0.11340828E+04</rscale>
<asrwt>0</asrwt>
<pdfrwt beam="1">  1        1 0.46813285E-01 0.11340828E+04</pdfrwt>
<pdfrwt beam="2">  1       -1 0.16256750E+00 0.11340828E+04</pdfrwt>
<totfact> 0.23915775E+01</totfact>
</mgrwt>
</event>
<event>
12    1  0.1536832E-007  0.2709817E+04  0.7818608E-02  0.8331827E-01
          2   -1    0    0  501    0  0.00000000000E+00  0.00000000000E+00  0.14093809054E+04  0.14093809054E+04  0.00000000000E+00 0.  1.
         -2   -1    0    0    0  501 -0.00000000000E+00 -0.00000000000E+00 -0.13025413354E+04  0.13025413354E+04  0.00000000000E+00 0. -1.
         23    2    1    2    0    0  0.94384816780E+02  0.95570237337E+03  0.78425881776E+03  0.12431155816E+04  0.89436769722E+02 0.  0.
        254    2    1    2    0    0 -0.94384816780E+02 -0.95570237337E+03 -0.67741924771E+03  0.14688066592E+04  0.88103385003E+03 0.  0.
        -24    2    4    4    0    0  0.93194344886E+02 -0.38546934324E+03 -0.75698200556E+03  0.85836140036E+03  0.80565106576E+02 0.  0.
         24    2    4    4    0    0 -0.18757916167E+03 -0.57023303012E+03  0.79562757847E+02  0.61044525886E+03  0.77210951881E+02 0.  0.
         13    1    3    3    0    0  0.41989477610E+02  0.19256685801E+03  0.12583048793E+03  0.23383417785E+03  0.00000000000E+00 0. -1.
        -13    1    3    3    0    0  0.52395339170E+02  0.76313551536E+03  0.65842832982E+03  0.10092814037E+04  0.00000000000E+00 0.  1.
          4    1    6    6  502    0 -0.17158241421E+03 -0.50702239979E+03  0.46352861208E+02  0.53727165056E+03  0.00000000000E+00 0. -1.
          1    1    5    5  503    0  0.97247791702E+02 -0.37896127960E+03 -0.70911717091E+03  0.80988637876E+03  0.00000000000E+00 0. -1.
         -2    1    5    5    0  503 -0.40534468155E+01 -0.65080636478E+01 -0.47864834649E+02  0.48475021604E+02  0.00000000000E+00 0.  1.
         -3    1    6    6    0  502 -0.15996747459E+02 -0.63210630334E+02  0.33209896639E+02  0.73173608297E+02  0.00000000000E+00 0.  1.
<mgrwt>
<rscale>  0 0.27098169E+04</rscale>
<asrwt>0</asrwt>
<pdfrwt beam="1">  1        2 0.21682783E+00 0.27098169E+04</pdfrwt>
<pdfrwt beam="2">  1       -2 0.20039097E+00 0.27098169E+04</pdfrwt>
<totfact> 0.16566652E+00</totfact>
</mgrwt>
</event>
<event>
12    1  0.1536832E-007  0.2083508E+04  0.7818608E-02  0.8568543E-01
         -1   -1    0    0    0  501 -0.00000000000E+00  0.00000000000E+00  0.33407965082E+03  0.33407965082E+03  0.00000000000E+00 0.  1.
          1   -1    0    0  501    0  0.00000000000E+00 -0.00000000000E+00 -0.32484807449E+04  0.32484807449E+04  0.00000000000E+00 0. -1.
         23    2    1    2    0    0 -0.72058229586E+03  0.40942079931E+03 -0.91246666139E+03  0.12359877175E+04  0.90586940035E+02 0.  0.
        254    2    1    2    0    0  0.72058229586E+03 -0.40942079931E+03 -0.20019344327E+04  0.23465726782E+04  0.90099812725E+03 0.  0.
        -24    2    4    4    0    0  0.69950846408E+03 -0.21999905740E+03 -0.66314627484E+03  0.99191175366E+03  0.80089129332E+02 0.  0.
         24    2    4    4    0    0  0.21073831775E+02 -0.18942174191E+03 -0.13387881579E+04  0.13546609246E+04  0.80173475599E+02 0.  0.
         13    1    3    3    0    0 -0.38593136071E+03  0.19451977063E+03 -0.41599646244E+03  0.59986166164E+03  0.00000000000E+00 0.  1.
        -13    1    3    3    0    0 -0.33465093515E+03  0.21490102868E+03 -0.49647019895E+03  0.63612605588E+03  0.00000000000E+00 0. -1.
          2    1    6    6  502    0  0.36009735350E+01 -0.13697617017E+03 -0.11441234019E+04  0.11522993521E+04  0.00000000000E+00 0. -1.
          1    1    5    5  503    0  0.50961685862E+03 -0.13122148922E+03 -0.44236426091E+03  0.68746968017E+03  0.00000000000E+00 0. -1.
         -2    1    5    5    0  503  0.18989160547E+03 -0.88777568174E+02 -0.22078201393E+03  0.30444207349E+03  0.00000000000E+00 0.  1.
         -1    1    6    6    0  502  0.17472858240E+02 -0.52445571742E+02 -0.19466475601E+03  0.20236157245E+03  0.00000000000E+00 0.  1.
<mgrwt>
<rscale>  0 0.20835079E+04</rscale>
<asrwt>0</asrwt>
<pdfrwt beam="1">  1        1 0.49976629E+00 0.20835079E+04</pdfrwt>
<pdfrwt beam="2">  1       -1 0.51396867E-01 0.20835079E+04</pdfrwt>
<totfact> 0.13738285E+00</totfact>
</mgrwt>
</event>
<event>
12    1  0.1536832E-007  0.1433362E+04  0.7818608E-02  0.8930017E-01
         -1   -1    0    0    0  501 -0.00000000000E+00  0.00000000000E+00  0.84066633814E+03  0.84066633814E+03  0.00000000000E+00 0.  1.
          1   -1    0    0  501    0  0.00000000000E+00 -0.00000000000E+00 -0.61098152088E+03  0.61098152088E+03  0.00000000000E+00 0. -1.
         23    2    1    2    0    0  0.31932135595E+03 -0.85436424955E+02 -0.20783155375E+03  0.40095166689E+03  0.91119555379E+02 0.  0.
        254    2    1    2    0    0 -0.31932135595E+03  0.85436424955E+02  0.43751637100E+03  0.10506961921E+04  0.89625688404E+03 0.  0.
        -24    2    4    4    0    0 -0.45705044176E+03  0.83440318676E+02 -0.10635594814E+03  0.48312588234E+03  0.79004033997E+02 0.  0.
         24    2    4    4    0    0  0.13772908581E+03  0.19961062791E+01  0.54387231914E+03  0.56757030979E+03  0.85823490398E+02 0.  0.
         13    1    3    3    0    0  0.30718689207E+03 -0.57633392764E+02 -0.18946412920E+03  0.36548878351E+03  0.00000000000E+00 0. -1.
        -13    1    3    3    0    0  0.12134463880E+02 -0.27803032192E+02 -0.18367424552E+02  0.35462883377E+02  0.00000000000E+00 0.  1.
          4    1    6    6  502    0  0.89870680553E+02 -0.39949627439E+02  0.34695627362E+03  0.36062635478E+03  0.00000000000E+00 0. -1.
          3    1    5    5  503    0 -0.45117349720E+03  0.78843804654E+02 -0.11447430473E+03  0.47209981630E+03  0.00000000000E+00 0. -1.
         -4    1    5    5    0  503 -0.58769445580E+01  0.45965140221E+01  0.81183565913E+01  0.11026066036E+02  0.00000000000E+00 0.  1.
         -3    1    6    6    0  502  0.47858405255E+02  0.41945733718E+02  0.19691604552E+03  0.20694395501E+03  0.00000000000E+00 0.  1.
<mgrwt>
<rscale>  0 0.14333619E+04</rscale>
<asrwt>0</asrwt>
<pdfrwt beam="1">  1        1 0.93997156E-01 0.14333619E+04</pdfrwt>
<pdfrwt beam="2">  1       -1 0.12933328E+00 0.14333619E+04</pdfrwt>
<totfact> 0.16672078E+01</totfact>
</mgrwt>
</event>
<event>
12    1  0.1536832E-007  0.1436191E+04  0.7818608E-02  0.8928031E-01
         -2   -1    0    0    0  501 -0.00000000000E+00  0.00000000000E+00  0.18592678764E+04  0.18592678764E+04  0.00000000000E+00 0. -1.
          2   -1    0    0  501    0  0.00000000000E+00 -0.00000000000E+00 -0.27734618483E+03  0.27734618483E+03  0.00000000000E+00 0.  1.
         23    2    1    2    0    0  0.17732199080E+03 -0.17619930190E+03 -0.31677678775E+02  0.26806129863E+03  0.91455465007E+02 0.  0.
        254    2    1    2    0    0 -0.17732199080E+03  0.17619930190E+03  0.16135993703E+04  0.18685527626E+04  0.90845870366E+03 0.  0.
        -24    2    4    4    0    0  0.15765451993E+02  0.52642987886E+03  0.87176434702E+03  0.10216888976E+04  0.80611164578E+02 0.  0.
         24    2    4    4    0    0 -0.19308744279E+03 -0.35023057695E+03  0.74183502333E+03  0.84686386504E+03  0.83156397685E+02 0.  0.
         13    1    3    3    0    0  0.13372948388E+02 -0.40531661389E+02 -0.35055630450E+02  0.55231771199E+02  0.00000000000E+00 0.  1.
        -13    1    3    3    0    0  0.16394904241E+03 -0.13566764052E+03  0.33779516748E+01  0.21282952743E+03  0.00000000000E+00 0. -1.
          4    1    6    6  502    0 -0.12929519402E+03 -0.30129482659E+03  0.58448748600E+03  0.67016523412E+03  0.00000000000E+00 0. -1.
          3    1    5    5  503    0  0.30088711809E+02  0.50530289151E+03  0.81432182960E+03  0.95883073841E+03  0.00000000000E+00 0. -1.
         -4    1    5    5    0  503 -0.14323259816E+02  0.21126987341E+02  0.57442517416E+02  0.62858159160E+02  0.00000000000E+00 0.  1.
         -3    1    6    6    0  502 -0.63792248770E+02 -0.48935750360E+02  0.15734753732E+03  0.17669863092E+03  0.00000000000E+00 0.  1.
<mgrwt>
<rscale>  0 0.14361906E+04</rscale>
<asrwt>0</asrwt>
<pdfrwt beam="1">  1        2 0.42668645E-01 0.14361906E+04</pdfrwt>
<pdfrwt beam="2">  1       -2 0.28604120E+00 0.14361906E+04</pdfrwt>
<totfact> 0.45157545E+00</totfact>
</mgrwt>
</event>
<event>
12    1  0.1536832E-007  0.1481838E+04  0.7818608E-02  0.8896621E-01
         -2   -1    0    0    0  501 -0.00000000000E+00  0.00000000000E+00  0.31762031161E+03  0.31762031161E+03  0.00000000000E+00 0.  1.
          2   -1    0    0  501    0  0.00000000000E+00 -0.00000000000E+00 -0.17283548246E+04  0.17283548246E+04  0.00000000000E+00 0. -1.
         23    2    1    2    0    0  0.21321393177E+03 -0.21647331805E+03  0.35183985907E+02  0.31907153409E+03  0.90817690324E+02 0.  0.
        254    2    1    2    0    0 -0.21321393177E+03  0.21647331805E+03 -0.14459184989E+04  0.17269036022E+04  0.89397699493E+03 0.  0.
        -24    2    4    4    0    0 -0.38449095639E+03  0.32037642059E+03 -0.14224395149E+04  0.15100046221E+04  0.79406792825E+02 0.  0.
         24    2    4    4    0    0  0.17127702462E+03 -0.10390310254E+03 -0.23478984042E+02  0.21689898008E+03  0.79763594371E+02 0.  0.
         11    1    3    3    0    0  0.10764696377E+03 -0.13530607796E+03  0.61153473446E+02  0.18339942982E+03  0.00000000000E+00 0.  1.
        -11    1    3    3    0    0  0.10556696799E+03 -0.81167240090E+02 -0.25969487539E+02  0.13567210427E+03  0.00000000000E+00 0. -1.
          4    1    6    6  502    0  0.16770030806E+03 -0.74440875253E+02 -0.31480239908E+02  0.18616079807E+03  0.00000000000E+00 0. -1.
          3    1    5    5  503    0 -0.93208015813E+02  0.91305896136E+02 -0.27866884157E+03  0.30770249291E+03  0.00000000000E+00 0. -1.
         -2    1    5    5    0  503 -0.29128294058E+03  0.22907052446E+03 -0.11437706733E+04  0.12023021292E+04  0.00000000000E+00 0.  1.
         -3    1    6    6    0  502  0.35767165625E+01 -0.29462227287E+02  0.80012558661E+01  0.30738182013E+02  0.00000000000E+00 0.  1.
<mgrwt>
<rscale>  0 0.14818375E+04</rscale>
<asrwt>0</asrwt>
<pdfrwt beam="1">  1        2 0.26590074E+00 0.14818375E+04</pdfrwt>
<pdfrwt beam="2">  1       -2 0.48864663E-01 0.14818375E+04</pdfrwt>
<totfact> 0.36281029E+01</totfact>
</mgrwt>
</event>
<event>
12    1  0.1536832E-007  0.2051167E+04  0.7818608E-02  0.8583065E-01
          1   -1    0    0  501    0  0.00000000000E+00  0.00000000000E+00  0.17016618439E+04  0.17016618439E+04  0.00000000000E+00 0. -1.
         -1   -1    0    0    0  501 -0.00000000000E+00 -0.00000000000E+00 -0.61811427291E+03  0.61811427291E+03  0.00000000000E+00 0.  1.
         23    2    1    2    0    0  0.89176628716E+02  0.72848776102E+03  0.86152417523E+03  0.11353248725E+04  0.89954279662E+02 0.  0.
        254    2    1    2    0    0 -0.89176628716E+02 -0.72848776102E+03  0.22202339574E+03  0.11844512444E+04  0.90276435071E+03 0.  0.
        -24    2    4    4    0    0  0.17111540710E+03 -0.52662153461E+03 -0.24227966546E+03  0.60985538661E+03  0.81323016512E+02 0.  0.
         24    2    4    4    0    0 -0.26029203582E+03 -0.20186622641E+03  0.46430306121E+03  0.57459585774E+03  0.77981727406E+02 0.  0.
         13    1    3    3    0    0  0.71419507701E+02  0.38699894137E+03  0.40231909119E+03  0.56278732914E+03  0.00000000000E+00 0. -1.
        -13    1    3    3    0    0  0.17757121015E+02  0.34148881965E+03  0.45920508404E+03  0.57253754332E+03  0.00000000000E+00 0.  1.
          4    1    6    6  502    0 -0.20136647663E+03 -0.17936380445E+03  0.32962244188E+03  0.42587649201E+03  0.00000000000E+00 0. -1.
          3    1    5    5  503    0  0.99039887159E+02 -0.29469946064E+03 -0.91862652092E+02  0.32418423497E+03  0.00000000000E+00 0. -1.
         -2    1    5    5    0  503  0.72075519945E+02 -0.23192207397E+03 -0.15041701337E+03  0.28567115164E+03  0.00000000000E+00 0.  1.
         -3    1    6    6    0  502 -0.58925559187E+02 -0.22502421956E+02  0.13468061933E+03  0.14871936572E+03  0.00000000000E+00 0.  1.
<mgrwt>
<rscale>  0 0.20511670E+04</rscale>
<asrwt>0</asrwt>
<pdfrwt beam="1">  1        1 0.26179413E+00 0.20511670E+04</pdfrwt>
<pdfrwt beam="2">  1       -1 0.95094504E-01 0.20511670E+04</pdfrwt>
<totfact> 0.46899142E+00</totfact>
</mgrwt>
</event>
<event>
12    1  0.1536832E-007  0.1710571E+04  0.7818608E-02  0.8755358E-01
         -2   -1    0    0    0  501 -0.00000000000E+00  0.00000000000E+00  0.33692033449E+03  0.33692033449E+03  0.00000000000E+00 0.  1.
          2   -1    0    0  501    0  0.00000000000E+00 -0.00000000000E+00 -0.21711758344E+04  0.21711758344E+04  0.00000000000E+00 0. -1.
         23    2    1    2    0    0  0.71108572102E+02  0.52621467647E+03 -0.11414709535E+04  0.12620547523E+04  0.88701439901E+02 0.  0.
        254    2    1    2    0    0 -0.71108572102E+02 -0.52621467647E+03 -0.69278454646E+03  0.12460414166E+04  0.88921902214E+03 0.  0.
        -24    2    4    4    0    0  0.12127988167E+03 -0.95249405301E+01 -0.67267829030E+03  0.68847901992E+03  0.81900820732E+02 0.  0.
         24    2    4    4    0    0 -0.19238845377E+03 -0.51668973594E+03 -0.20106256151E+02  0.55756239668E+03  0.80560314578E+02 0.  0.
         11    1    3    3    0    0  0.22085768988E+02  0.29861468669E+03 -0.73458750204E+03  0.79327001106E+03  0.00000000000E+00 0.  1.
        -11    1    3    3    0    0  0.49022803114E+02  0.22759998979E+03 -0.40688345144E+03  0.46878474126E+03  0.00000000000E+00 0. -1.
          2    1    6    6  502    0 -0.17577439382E+03 -0.44912495058E+03 -0.43262097080E+02  0.48423286526E+03  0.00000000000E+00 0. -1.
          1    1    5    5  503    0  0.11483731983E+03  0.18001316928E+02 -0.48821898647E+03  0.50186595440E+03  0.00000000000E+00 0. -1.
         -2    1    5    5    0  503  0.64425618463E+01 -0.27526257458E+02 -0.18445930384E+03  0.18661306553E+03  0.00000000000E+00 0.  1.
         -1    1    6    6    0  502 -0.16614059952E+02 -0.67564785363E+02  0.23155840930E+02  0.73329531421E+02  0.00000000000E+00 0.  1.
<mgrwt>
<rscale>  0 0.17105710E+04</rscale>
<asrwt>0</asrwt>
<pdfrwt beam="1">  1        2 0.33402705E+00 0.17105710E+04</pdfrwt>
<pdfrwt beam="2">  1       -2 0.51833898E-01 0.17105710E+04</pdfrwt>
<totfact> 0.17920088E+01</totfact>
</mgrwt>
</event>
<event>
12    1  0.1536832E-007  0.1941453E+04  0.7818608E-02  0.8634494E-01
         -2   -1    0    0    0  501 -0.00000000000E+00  0.00000000000E+00  0.33972551726E+03  0.33972551726E+03  0.00000000000E+00 0.  1.
          2   -1    0    0  501    0  0.00000000000E+00 -0.00000000000E+00 -0.27737377466E+04  0.27737377466E+04  0.00000000000E+00 0. -1.
         23    2    1    2    0    0  0.37301188634E+03  0.75591414156E+01 -0.20213233322E+04  0.20575818724E+04  0.93274543428E+02 0.  0.
        254    2    1    2    0    0 -0.37301188634E+03 -0.75591414156E+01 -0.41268889719E+03  0.10558813915E+04  0.89742875988E+03 0.  0.
        -24    2    4    4    0    0  0.21732972640E+03 -0.23859569270E+03 -0.13272153935E+03  0.35818948686E+03  0.80774915263E+02 0.  0.
         24    2    4    4    0    0 -0.59034161273E+03  0.23103655128E+03 -0.27996735784E+03  0.69769190463E+03  0.80691787539E+02 0.  0.
         11    1    3    3    0    0  0.71420981503E+02  0.19177022840E+01 -0.62362821950E+03  0.62770756754E+03  0.00000000000E+00 0.  1.
        -11    1    3    3    0    0  0.30159090483E+03  0.56414391315E+01 -0.13976951127E+04  0.14298743049E+04  0.00000000000E+00 0. -1.
          4    1    6    6  502    0 -0.56656085469E+03  0.23722120917E+03 -0.27296282515E+03  0.67214121140E+03  0.00000000000E+00 0. -1.
          1    1    5    5  503    0  0.16018870897E+03 -0.21750351921E+03 -0.12176605553E+03  0.29630250696E+03  0.00000000000E+00 0. -1.
         -2    1    5    5    0  503  0.57141017427E+02 -0.21092173485E+02 -0.10955483827E+02  0.61886979897E+02  0.00000000000E+00 0.  1.
         -3    1    6    6    0  502 -0.23780758045E+02 -0.61846578877E+01 -0.70045326865E+01  0.25550693230E+02  0.00000000000E+00 0.  1.
<mgrwt>
<rscale>  0 0.19414525E+04</rscale>
<asrwt>0</asrwt>
<pdfrwt beam="1">  1        2 0.42672889E+00 0.19414525E+04</pdfrwt>
<pdfrwt beam="2">  1       -2 0.52265464E-01 0.19414525E+04</pdfrwt>
<totfact> 0.77490468E+00</totfact>
</mgrwt>
</event>
<event>
12    1  0.1536832E-007  0.1261703E+04  0.7818608E-02  0.9060499E-01
         -1   -1    0    0    0  501 -0.00000000000E+00  0.00000000000E+00  0.11922726040E+04  0.11922726040E+04  0.00000000000E+00 0.  1.
          1   -1    0    0  501    0  0.00000000000E+00 -0.00000000000E+00 -0.33379421823E+03  0.33379421823E+03  0.00000000000E+00 0. -1.
         23    2    1    2    0    0 -0.10541573444E+03 -0.24141394914E+03  0.39328711223E+02  0.28171887649E+03  0.91791099427E+02 0.  0.
        254    2    1    2    0    0  0.10541573444E+03  0.24141394914E+03  0.81914967453E+03  0.12443479457E+04  0.89888956433E+03 0.  0.
        -24    2    4    4    0    0 -0.37851129735E+03  0.82267338806E+02  0.21557625926E+03  0.45030068114E+03  0.79112973765E+02 0.  0.
         24    2    4    4    0    0  0.48392703179E+03  0.15914661033E+03  0.60357341526E+03  0.79404726459E+03  0.81836270138E+02 0.  0.
         11    1    3    3    0    0 -0.76614521255E+02 -0.20916986093E+03 -0.75694493678E+00  0.22276083263E+03  0.00000000000E+00 0. -1.
        -11    1    3    3    0    0 -0.28801213186E+02 -0.32244088215E+02  0.40085656160E+02  0.58958043858E+02  0.00000000000E+00 0.  1.
          2    1    6    6  502    0  0.17765174547E+03  0.89711558150E+02  0.19397651846E+03  0.27791220924E+03  0.00000000000E+00 0. -1.
          1    1    5    5  503    0 -0.37744690052E+01 -0.85096381812E+01  0.19866272566E+01  0.95187838563E+01  0.00000000000E+00 0. -1.
         -2    1    5    5    0  503 -0.37473682835E+03  0.90776976988E+02  0.21358963201E+03  0.44078189728E+03  0.00000000000E+00 0.  1.
         -1    1    6    6    0  502  0.30627528632E+03  0.69435052185E+02  0.40959689681E+03  0.51613505535E+03  0.00000000000E+00 0.  1.
<mgrwt>
<rscale>  0 0.12617031E+04</rscale>
<asrwt>0</asrwt>
<pdfrwt beam="1">  1        1 0.51352957E-01 0.12617031E+04</pdfrwt>
<pdfrwt beam="2">  1       -1 0.18342655E+00 0.12617031E+04</pdfrwt>
<totfact> 0.14772270E+01</totfact>
</mgrwt>
</event>
<event>
12    1  0.1672122E-007  0.1425596E+04  0.7818608E-02  0.8935496E-01
          2   -1    0    0  501    0  0.00000000000E+00  0.00000000000E+00  0.13207913674E+04  0.13207913674E+04  0.00000000000E+00 0. -1.
         -2   -1    0    0    0  501 -0.00000000000E+00 -0.00000000000E+00 -0.38467921676E+03  0.38467921676E+03  0.00000000000E+00 0.  1.
         23    2    1    2    0    0  0.35375656001E+03  0.15971777077E+03  0.84581511227E+02  0.40818616439E+03  0.93853304195E+02 0.  0.
        254    2    1    2    0    0 -0.35375656001E+03 -0.15971777077E+03  0.85153063940E+03  0.12972844198E+04  0.89843695709E+03 0.  0.
        -24    2    4    4    0    0 -0.53721908977E+03 -0.11523140920E+03  0.92531483278E+03  0.10789905824E+04  0.78297567714E+02 0.  0.
         24    2    4    4    0    0  0.18346252976E+03 -0.44486361566E+02 -0.73784193379E+02  0.21829383734E+03  0.81058966395E+02 0.  0.
         11    1    3    3    0    0  0.10323540409E+03  0.63626011958E+02 -0.14559080436E+02  0.12213838413E+03  0.00000000000E+00 0.  1.
        -11    1    3    3    0    0  0.25052115592E+03  0.96091758808E+02  0.99140591663E+02  0.28604778026E+03  0.00000000000E+00 0. -1.
          2    1    6    6  502    0  0.17960204077E+03 -0.38398116628E+02 -0.87011413525E+02  0.20322965948E+03  0.00000000000E+00 0. -1.
          3    1    5    5  503    0 -0.53409107943E+03 -0.10546699154E+03  0.90261853507E+03  0.10540857590E+04  0.00000000000E+00 0. -1.
         -4    1    5    5    0  503 -0.31280103434E+01 -0.97644176620E+01  0.22696297711E+02  0.24904823444E+02  0.00000000000E+00 0.  1.
         -1    1    6    6    0  502  0.38604889973E+01 -0.60882449389E+01  0.13227220145E+02  0.15064177857E+02  0.00000000000E+00 0.  1.
<mgrwt>
<rscale>  0 0.14255960E+04</rscale>
<asrwt>0</asrwt>
<pdfrwt beam="1">  1        2 0.20319867E+00 0.14255960E+04</pdfrwt>
<pdfrwt beam="2">  1       -2 0.59181419E-01 0.14255960E+04</pdfrwt>
<totfact> 0.41639818E+01</totfact>
</mgrwt>
</event>
<event>
12    1  0.1536832E-007  0.1515015E+04  0.7818608E-02  0.8874529E-01
          1   -1    0    0  501    0  0.00000000000E+00  0.00000000000E+00  0.11759030246E+04  0.11759030246E+04  0.00000000000E+00 0.  1.
         -1   -1    0    0    0  501 -0.00000000000E+00 -0.00000000000E+00 -0.48798014271E+03  0.48798014271E+03  0.00000000000E+00 0. -1.
         23    2    1    2    0    0  0.22052589412E+03  0.10238674077E+03  0.69141676812E+03  0.73879704107E+03  0.93001107436E+02 0.  0.
        254    2    1    2    0    0 -0.22052589412E+03 -0.10238674077E+03 -0.34938862119E+01  0.92508612627E+03  0.89255667557E+03 0.  0.
        -24    2    4    4    0    0 -0.52782313554E+03 -0.18248171352E+03  0.11820091556E+03  0.57617218912E+03  0.78141518380E+02 0.  0.
         24    2    4    4    0    0  0.30729724142E+03  0.80094972758E+02 -0.12169480177E+03  0.34891393715E+03  0.78003278841E+02 0.  0.
         13    1    3    3    0    0  0.58221352103E+02  0.47924523045E+02  0.11520392810E+03  0.13768961762E+03  0.00000000000E+00 0. -1.
        -13    1    3    3    0    0  0.16230454201E+03  0.54462217722E+02  0.57621284002E+03  0.60110742345E+03  0.00000000000E+00 0.  1.
          4    1    6    6  502    0  0.22958325516E+02 -0.77546801751E+01  0.61721914105E+01  0.25006313641E+02  0.00000000000E+00 0. -1.
          1    1    5    5  503    0 -0.16332649471E+03 -0.25676877900E+02  0.55839151784E+02  0.17450746919E+03  0.00000000000E+00 0. -1.
         -2    1    5    5    0  503 -0.36449664083E+03 -0.15680483563E+03  0.62361763779E+02  0.40166471993E+03  0.00000000000E+00 0.  1.
         -3    1    6    6    0  502  0.28433891591E+03  0.87849652933E+02 -0.12786699319E+03  0.32390762351E+03  0.00000000000E+00 0.  1.
<mgrwt>
<rscale>  0 0.15150146E+04</rscale>
<asrwt>0</asrwt>
<pdfrwt beam="1">  1        1 0.18090816E+00 0.15150146E+04</pdfrwt>
<pdfrwt beam="2">  1       -1 0.75073869E-01 0.15150146E+04</pdfrwt>
<totfact> 0.19188801E+01</totfact>
</mgrwt>
</event>
<event>
12    1  0.1536832E-007  0.2000496E+04  0.7818608E-02  0.8606389E-01
         -2   -1    0    0    0  501 -0.00000000000E+00  0.00000000000E+00  0.55390761057E+03  0.55390761057E+03  0.00000000000E+00 0.  1.
          2   -1    0    0  501    0  0.00000000000E+00 -0.00000000000E+00 -0.18062506967E+04  0.18062506967E+04  0.00000000000E+00 0. -1.
         23    2    1    2    0    0  0.42550630875E+03  0.23183206071E+03 -0.12035905826E+04  0.13006476994E+04  0.90842853812E+02 0.  0.
        254    2    1    2    0    0 -0.42550630875E+03 -0.23183206071E+03 -0.48752503498E+02  0.10595106079E+04  0.94094856316E+03 0.  0.
        -24    2    4    4    0    0 -0.55722979533E+02 -0.47024765958E+03  0.23033362528E+03  0.53230511247E+03  0.77828285635E+02 0.  0.
         24    2    4    4    0    0 -0.36978332922E+03  0.23841559886E+03 -0.27908612878E+03  0.52720549544E+03  0.80466507281E+02 0.  0.
         13    1    3    3    0    0  0.10263550485E+03  0.92932284129E+02 -0.40869984478E+03  0.43151595499E+03  0.00000000000E+00 0.  1.
        -13    1    3    3    0    0  0.32287080390E+03  0.13889977659E+03 -0.79489073787E+03  0.86913174438E+03  0.00000000000E+00 0. -1.
          2    1    6    6  502    0 -0.31116367437E+03  0.22550524402E+03 -0.21915892584E+03  0.44238680145E+03  0.00000000000E+00 0. -1.
          1    1    5    5  503    0 -0.37347515166E+02 -0.43317660161E+03  0.22781586805E+03  0.49085321106E+03  0.00000000000E+00 0. -1.
         -2    1    5    5    0  503 -0.18375464367E+02 -0.37071057961E+02  0.25177572329E+01  0.41451901411E+02  0.00000000000E+00 0.  1.
         -1    1    6    6    0  502 -0.58619654851E+02  0.12910354846E+02 -0.59927202940E+02  0.84818693985E+02  0.00000000000E+00 0.  1.
<mgrwt>
<rscale>  0 0.20004959E+04</rscale>
<asrwt>0</asrwt>
<pdfrwt beam="1">  1        2 0.27788472E+00 0.20004959E+04</pdfrwt>
<pdfrwt beam="2">  1       -2 0.85216557E-01 0.20004959E+04</pdfrwt>
<totfact> 0.95261250E+00</totfact>
</mgrwt>
</event>
<event>
12    1  0.1536832E-007  0.2094129E+04  0.7818608E-02  0.8563834E-01
          2   -1    0    0  501    0  0.00000000000E+00  0.00000000000E+00  0.38366603999E+04  0.38366603999E+04  0.00000000000E+00 0. -1.
         -2   -1    0    0    0  501 -0.00000000000E+00 -0.00000000000E+00 -0.28575476683E+03  0.28575476683E+03  0.00000000000E+00 0.  1.
         23    2    1    2    0    0  0.69914832875E+03  0.28080089503E+03  0.22249785331E+04  0.23504233429E+04  0.79390740355E+02 0.  0.
        254    2    1    2    0    0 -0.69914832875E+03 -0.28080089503E+03  0.13259270999E+04  0.17719918238E+04  0.90233852915E+03 0.  0.
        -24    2    4    4    0    0 -0.83569731409E+02 -0.31527085378E+03  0.10304308846E+04  0.10838412303E+04  0.80897424453E+02 0.  0.
         24    2    4    4    0    0 -0.61557859734E+03  0.34469958744E+02  0.29549621533E+03  0.68815059356E+03  0.78153941558E+02 0.  0.
         11    1    3    3    0    0  0.14912220380E+02  0.20876304390E+02  0.73986349056E+02  0.78308200389E+02  0.00000000000E+00 0.  1.
        -11    1    3    3    0    0  0.68423610837E+03  0.25992459064E+03  0.21509921840E+04  0.22721151425E+04  0.00000000000E+00 0. -1.
          2    1    6    6  502    0 -0.54533089616E+03  0.64666610258E+01  0.25044939581E+03  0.60012707310E+03  0.00000000000E+00 0. -1.
          3    1    5    5  503    0 -0.45197129705E+02 -0.26509967861E+03  0.89250346545E+03  0.93213896817E+03  0.00000000000E+00 0. -1.
         -4    1    5    5    0  503 -0.38372601705E+02 -0.50171175170E+02  0.13792741915E+03  0.15170226212E+03  0.00000000000E+00 0.  1.
         -1    1    6    6    0  502 -0.70247701179E+02  0.28003297719E+02  0.45046819518E+02  0.88023520452E+02  0.00000000000E+00 0.  1.
<mgrwt>
<rscale>  0 0.20941289E+04</rscale>
<asrwt>0</asrwt>
<pdfrwt beam="1">  1        2 0.59025541E+00 0.20941289E+04</pdfrwt>
<pdfrwt beam="2">  1       -2 0.43962275E-01 0.20941289E+04</pdfrwt>
<totfact> 0.20981379E+00</totfact>
</mgrwt>
</event>
<event>
12    1  0.1536832E-007  0.2375337E+04  0.7818608E-02  0.8448795E-01
          1   -1    0    0  501    0  0.00000000000E+00  0.00000000000E+00  0.95257631122E+03  0.95257631122E+03  0.00000000000E+00 0. -1.
         -1   -1    0    0    0  501 -0.00000000000E+00 -0.00000000000E+00 -0.14807808940E+04  0.14807808940E+04  0.00000000000E+00 0.  1.
         23    2    1    2    0    0 -0.40600641287E+03 -0.40705268283E+03  0.62992961911E+03  0.85780582517E+03  0.92121738920E+02 0.  0.
        254    2    1    2    0    0  0.40600641287E+03  0.40705268283E+03 -0.11581342019E+04  0.15755513800E+04  0.90030785164E+03 0.  0.
        -24    2    4    4    0    0 -0.16122233653E+03 -0.16788505049E+03 -0.17837341233E+03  0.30329127167E+03  0.77398251115E+02 0.  0.
         24    2    4    4    0    0  0.56722874939E+03  0.57493773332E+03 -0.97976078955E+03  0.12722601084E+04  0.80079506061E+02 0.  0.
         11    1    3    3    0    0 -0.34424410625E+03 -0.35389590706E+03  0.58227335211E+03  0.76340590402E+03  0.00000000000E+00 0. -1.
        -11    1    3    3    0    0 -0.61762306613E+02 -0.53156775768E+02  0.47656267001E+02  0.94399921148E+02  0.00000000000E+00 0.  1.
          2    1    6    6  502    0  0.41182671091E+03  0.42310197390E+03 -0.76942290054E+03  0.96985984555E+03  0.00000000000E+00 0. -1.
          1    1    5    5  503    0 -0.16888008267E+03 -0.15015717001E+03 -0.16426634758E+03  0.27937625342E+03  0.00000000000E+00 0. -1.
         -2    1    5    5    0  503  0.76577461439E+01 -0.17727880478E+02 -0.14107064753E+02  0.23915018256E+02  0.00000000000E+00 0.  1.
         -1    1    6    6    0  502  0.15540203848E+03  0.15183575941E+03 -0.21033788901E+03  0.30240026282E+03  0.00000000000E+00 0.  1.
<mgrwt>
<rscale>  0 0.23753373E+04</rscale>
<asrwt>0</asrwt>
<pdfrwt beam="1">  1        1 0.14655020E+00 0.23753373E+04</pdfrwt>
<pdfrwt beam="2">  1       -1 0.22781245E+00 0.23753373E+04</pdfrwt>
<totfact> 0.14458280E+00</totfact>
</mgrwt>
</event>
<event>
12    1  0.1536832E-007  0.1957217E+04  0.7818608E-02  0.8626889E-01
         -2   -1    0    0    0  501 -0.00000000000E+00  0.00000000000E+00  0.39991484148E+03  0.39991484148E+03  0.00000000000E+00 0.  1.
          2   -1    0    0  501    0  0.00000000000E+00 -0.00000000000E+00 -0.23946955938E+04  0.23946955938E+04  0.00000000000E+00 0. -1.
         23    2    1    2    0    0 -0.54401878724E+03  0.52493392712E+03 -0.58920267746E+03  0.96279509005E+03  0.91118173782E+02 0.  0.
        254    2    1    2    0    0  0.54401878724E+03 -0.52493392712E+03 -0.14055780749E+04  0.18318153453E+04  0.89910270035E+03 0.  0.
        -24    2    4    4    0    0 -0.15504275545E+03 -0.69217744102E+02  0.84225493782E+01  0.18783300351E+03  0.79880822204E+02 0.  0.
         24    2    4    4    0    0  0.69906154269E+03 -0.45571618301E+03 -0.14140006243E+04  0.16439823417E+04  0.83161857693E+02 0.  0.
         11    1    3    3    0    0 -0.19217822168E+03  0.20275442335E+03 -0.27196496173E+03  0.38988045024E+03  0.00000000000E+00 0.  1.
        -11    1    3    3    0    0 -0.35184056556E+03  0.32217950377E+03 -0.31723771573E+03  0.57291463981E+03  0.00000000000E+00 0. -1.
          4    1    6    6  502    0  0.62784991210E+03 -0.38583175898E+03 -0.12068154773E+04  0.14140244887E+04  0.00000000000E+00 0. -1.
          3    1    5    5  503    0 -0.16373666078E+03 -0.71347433159E+02  0.67954017581E+01  0.17873535685E+03  0.00000000000E+00 0. -1.
         -4    1    5    5    0  503  0.86939053362E+01  0.21296890567E+01  0.16271476202E+01  0.90976466656E+01  0.00000000000E+00 0.  1.
         -3    1    6    6    0  502  0.71211630594E+02 -0.69884424039E+02 -0.20718514694E+03  0.22995785302E+03  0.00000000000E+00 0.  1.
<mgrwt>
<rscale>  0 0.19572167E+04</rscale>
<asrwt>0</asrwt>
<pdfrwt beam="1">  1        2 0.36841472E+00 0.19572167E+04</pdfrwt>
<pdfrwt beam="2">  1       -2 0.61525359E-01 0.19572167E+04</pdfrwt>
<totfact> 0.91685163E+00</totfact>
</mgrwt>
</event>
<event>
12    1  0.1698993E-007  0.1369193E+04  0.7818608E-02  0.8976425E-01
         -2   -1    0    0    0  501 -0.00000000000E+00  0.00000000000E+00  0.55118260313E+03  0.55118260313E+03  0.00000000000E+00 0.  1.
          2   -1    0    0  501    0  0.00000000000E+00 -0.00000000000E+00 -0.85030313318E+03  0.85030313318E+03  0.00000000000E+00 0. -1.
         23    2    1    2    0    0 -0.26161013132E+02  0.86235701773E+02  0.30030385546E+03  0.32594016044E+03  0.89070689440E+02 0.  0.
        254    2    1    2    0    0  0.26161013132E+02 -0.86235701773E+02 -0.59942438551E+03  0.10755455759E+04  0.88846367228E+03 0.  0.
        -24    2    4    4    0    0 -0.21770936191E+03  0.16765618807E+03  0.87584368216E+02  0.29948223060E+03  0.80700813057E+02 0.  0.
         24    2    4    4    0    0  0.24387037504E+03 -0.25389188985E+03 -0.68700875372E+03  0.77606334527E+03  0.79746075914E+02 0.  0.
         13    1    3    3    0    0 -0.71473390934E+01 -0.18184484302E+02  0.33220110195E+02  0.38540052501E+02  0.00000000000E+00 0. -1.
        -13    1    3    3    0    0 -0.19013674038E+02  0.10442018607E+03  0.26708374526E+03  0.28740010794E+03  0.00000000000E+00 0.  1.
          4    1    6    6  502    0  0.28057213848E+02 -0.44863446535E+02 -0.55252895507E+02  0.76503715895E+02  0.00000000000E+00 0. -1.
          1    1    5    5  503    0 -0.25590660789E+02  0.51147347450E+02 -0.28882925640E+01  0.57264957039E+02  0.00000000000E+00 0. -1.
         -2    1    5    5    0  503 -0.19211870112E+03  0.11650884062E+03  0.90472660780E+02  0.24221727356E+03  0.00000000000E+00 0.  1.
         -3    1    6    6    0  502  0.21581316119E+03 -0.20902844331E+03 -0.63175585822E+03  0.69955962937E+03  0.00000000000E+00 0.  1.
<mgrwt>
<rscale>  0 0.13691929E+04</rscale>
<asrwt>0</asrwt>
<pdfrwt beam="1">  1        2 0.13081587E+00 0.13691929E+04</pdfrwt>
<pdfrwt beam="2">  1       -2 0.84797324E-01 0.13691929E+04</pdfrwt>
<totfact> 0.37501802E+01</totfact>
</mgrwt>
</event>
<event>
12    1  0.1536832E-007  0.3106976E+04  0.7818608E-02  0.8213826E-01
         -1   -1    0    0    0  501 -0.00000000000E+00  0.00000000000E+00  0.73514458725E+03  0.73514458725E+03  0.00000000000E+00 0.  1.
          1   -1    0    0  501    0  0.00000000000E+00 -0.00000000000E+00 -0.32827895313E+04  0.32827895313E+04  0.00000000000E+00 0. -1.
         23    2    1    2    0    0 -0.86172445862E+03 -0.96251149936E+03 -0.19921382703E+04  0.23760949304E+04  0.90635541380E+02 0.  0.
        254    2    1    2    0    0  0.86172445862E+03  0.96251149936E+03 -0.55550667380E+03  0.16418391882E+04  0.84737879735E+03 0.  0.
        -24    2    4    4    0    0  0.52383755103E+01  0.53923890077E+03 -0.38754150935E+03  0.66850892709E+03  0.76874777708E+02 0.  0.
         24    2    4    4    0    0  0.85648608311E+03  0.42327259860E+03 -0.16796516445E+03  0.97333026109E+03  0.80195993646E+02 0.  0.
         11    1    3    3    0    0 -0.50900161677E+03 -0.53404223243E+03 -0.10657300752E+04  0.12961729611E+04  0.00000000000E+00 0. -1.
        -11    1    3    3    0    0 -0.35272284185E+03 -0.42846926693E+03 -0.92640819508E+03  0.10799219693E+04  0.00000000000E+00 0.  1.
          2    1    6    6  502    0  0.60119911070E+03  0.27007692690E+03 -0.14413266457E+03  0.67465260850E+03  0.00000000000E+00 0. -1.
          3    1    5    5  503    0  0.91317113829E+01  0.20393855357E+03 -0.19249062049E+03  0.28058325104E+03  0.00000000000E+00 0. -1.
         -4    1    5    5    0  503 -0.38933358726E+01  0.33530034720E+03 -0.19505088885E+03  0.38792567605E+03  0.00000000000E+00 0.  1.
         -1    1    6    6    0  502  0.25528697241E+03  0.15319567170E+03 -0.23832499880E+02  0.29867765259E+03  0.00000000000E+00 0.  1.
<mgrwt>
<rscale>  0 0.31069760E+04</rscale>
<asrwt>0</asrwt>
<pdfrwt beam="1">  1        1 0.50504454E+00 0.31069760E+04</pdfrwt>
<pdfrwt beam="2">  1       -1 0.11309917E+00 0.31069760E+04</pdfrwt>
<totfact> 0.22151650E-01</totfact>
</mgrwt>
</event>
